
     Program PW2WANNIER v.6.3 starts on  5Jan2022 at 22:14:49 

     This program is part of the open-source Quantum ESPRESSO suite
     for quantum simulation of materials; please cite
         "P. Giannozzi et al., J. Phys.:Condens. Matter 21 395502 (2009);
         "P. Giannozzi et al., J. Phys.:Condens. Matter 29 465901 (2017);
          URL http://www.quantum-espresso.org", 
     in publications or presentations arising from this work. More details at
     http://www.quantum-espresso.org/quote

     Parallel version (MPI), running on    16 processors
     R & G space division:  proc/nbgrp/npool/nimage =      16

  Reading nscf_save data

     Reading data from directory:
     /home/zfwang/scratch/GNRDATASET/AGNR/LS7_2_9_2/LS7_2_9_2.save/

     IMPORTANT: XC functional enforced from input :
     Exchange-correlation      = PBE ( 1  4  3  4 0 0)
     Any further DFT definition will be discarded
     Please, verify this is what you really want


     Parallelization info
     --------------------
     sticks:   dense  smooth     PW     G-vecs:    dense   smooth      PW
     Min        2556     852    225               382876    73664   10077
     Max        2557     853    226               382881    73669   10080
     Sum       40909   13645   3615              6126037  1178677  161273


     negative rho (up, down):  4.061E-04 0.000E+00

  Spin CASE ( default = unpolarized )

  Wannier mode is: standalone     

  -----------------
  *** Reading nnkp 
  -----------------

  Checking info from wannier.nnkp file

  - Real lattice is ok
  - Reciprocal lattice is ok
  - K-points are ok
  - Number of wannier functions is ok ( 64)
  - All guiding functions are given 

 Projections:
    5.000000   10.073700    7.056094  1  1  1    1.000000
    5.000000   10.083000   11.345232  1  1  1    1.000000
    5.000000   11.330100    3.581126  1  1  1    1.000000
    5.000000   11.285700    7.809943  1  1  1    1.000000
    5.000000   11.309100   12.069262  1  1  1    1.000000
    5.000000   11.327400   16.356185  1  1  1    1.000000
    5.000000   10.083000    5.694768  1  1  1    1.000000
    5.000000   10.073700    9.983906  1  1  1    1.000000
    5.000000   12.525000    2.855904  1  1  1    1.000000
    5.000000   12.527400    7.108406  1  1  1    1.000000
    5.000000   12.539700   11.349322  1  1  1    1.000000
    5.000000   12.531300   15.622783  1  1  1    1.000000
    5.000000   13.765500    3.558122  1  1  1    1.000000
    5.000000   13.764600    7.813862  1  1  1    1.000000
    5.000000   13.766700   12.062446  1  1  1    1.000000
    5.000000   13.762500   16.325683  1  1  1    1.000000
    5.000000   11.327400    0.683815  1  1  1    1.000000
    5.000000   11.309100    4.970738  1  1  1    1.000000
    5.000000   11.285700    9.230227  1  1  1    1.000000
    5.000000   11.330100   13.458874  1  1  1    1.000000
    5.000000   12.531300    1.417217  1  1  1    1.000000
    5.000000   12.539700    5.690678  1  1  1    1.000000
    5.000000   12.527400    9.931594  1  1  1    1.000000
    5.000000   12.525000   14.184096  1  1  1    1.000000
    5.000000   15.000000    2.842954  1  1  1    1.000000
    5.000000   15.000000    7.101931  1  1  1    1.000000
    5.000000   15.000000   11.351196  1  1  1    1.000000
    5.000000   15.000000   15.612900  1  1  1    1.000000
    5.000000   16.234500    3.558122  1  1  1    1.000000
    5.000000   16.235400    7.813862  1  1  1    1.000000
    5.000000   16.233300   12.062446  1  1  1    1.000000
    5.000000   16.237500   16.325683  1  1  1    1.000000
    5.000000   13.762500    0.714317  1  1  1    1.000000
    5.000000   13.766700    4.977554  1  1  1    1.000000
    5.000000   13.764600    9.226138  1  1  1    1.000000
    5.000000   13.765500   13.481878  1  1  1    1.000000
    5.000000   15.000000    1.427100  1  1  1    1.000000
    5.000000   15.000000    5.688804  1  1  1    1.000000
    5.000000   15.000000    9.938069  1  1  1    1.000000
    5.000000   15.000000   14.197046  1  1  1    1.000000
    5.000000   17.475000    2.855904  1  1  1    1.000000
    5.000000   17.472600    7.108406  1  1  1    1.000000
    5.000000   17.460300   11.349322  1  1  1    1.000000
    5.000000   17.468700   15.622783  1  1  1    1.000000
    5.000000   18.669900    3.581126  1  1  1    1.000000
    5.000000   18.714300    7.809943  1  1  1    1.000000
    5.000000   18.690900   12.069262  1  1  1    1.000000
    5.000000   18.672600   16.356185  1  1  1    1.000000
    5.000000   16.237500    0.714317  1  1  1    1.000000
    5.000000   16.233300    4.977554  1  1  1    1.000000
    5.000000   16.235400    9.226138  1  1  1    1.000000
    5.000000   16.234500   13.481878  1  1  1    1.000000
    5.000000   17.468700    1.417217  1  1  1    1.000000
    5.000000   17.460300    5.690678  1  1  1    1.000000
    5.000000   17.472600    9.931594  1  1  1    1.000000
    5.000000   17.475000   14.184096  1  1  1    1.000000
    5.000000   19.926300    7.056094  1  1  1    1.000000
    5.000000   19.917000   11.345232  1  1  1    1.000000
    5.000000   18.672600    0.683815  1  1  1    1.000000
    5.000000   18.690900    4.970738  1  1  1    1.000000
    5.000000   18.714300    9.230227  1  1  1    1.000000
    5.000000   18.669900   13.458874  1  1  1    1.000000
    5.000000   19.917000    5.694768  1  1  1    1.000000
    5.000000   19.926300    9.983906  1  1  1    1.000000
  - Number of wannier functions is ok ( 64)
  - All guiding functions are given 

  Reading data about k-point neighbours 

  All neighbours are found 

  Opening pp-files 


  --------------------------
  *** Compute  A projections
  --------------------------

  AMN: iknum =       50
       1       2       3       4       5       6       7       8       9      10
      11      12      13      14      15      16      17      18      19      20
      21      22      23      24      25      26      27      28      29      30
      31      32      33      34      35      36      37      38      39      40
      41      42      43      44      45      46      47      48      49      50


  AMN calculated

  ---------------
  *** Compute  M 
  ---------------

  MMN: iknum =       50
       1       2       3       4       5       6       7       8       9      10
      11      12      13      14      15      16      17      18      19      20
      21      22      23      24      25      26      27      28      29      30
      31      32      33      34      35      36      37      38      39      40
      41      42      43      44      45      46      47      48      49      50


  MMN calculated

  -----------------------------------
  *** Orbital terms are not computed 
  -----------------------------------

  ----------------
  *** Write bands 
  ----------------


  -----------------------------
  *** Plot info is not printed 
  -----------------------------

  -----------------------------
  *** Parity info is not printed 
  -----------------------------

  ------------
  *** Stop pp 
  ------------


     init_pw2wan  :    215.68s CPU    505.52s WALL (       1 calls)
     compute_amn  :   2171.67s CPU   2210.38s WALL (       1 calls)
     compute_mmn  :  19714.92s CPU  20001.30s WALL (       1 calls)

     PW2WANNIER   :     6h 8m CPU        8h 6m WALL

      18h

   This run was terminated on:   4:33:26   6Jan2022            

=------------------------------------------------------------------------------=
   JOB DONE.
=------------------------------------------------------------------------------=

