
             +---------------------------------------------------+
             |                                                   |
             |                   WANNIER90                       |
             |                                                   |
             +---------------------------------------------------+
             |                                                   |
             |        Welcome to the Maximally-Localized         |
             |        Generalized Wannier Functions code         |
             |            http://www.wannier.org                 |
             |                                                   |
             |  Wannier90 v2.x Authors:                          |
             |    Arash A. Mostofi  (Imperial College London)    |
             |    Giovanni Pizzi    (EPFL)                       |
             |    Ivo Souza         (Universidad del Pais Vasco) |
             |    Jonathan R. Yates (University of Oxford)       |
             |                                                   |
             |  Wannier90 Contributors:                          |
             |    Young-Su Lee       (KIST, S. Korea)            |
             |    Matthew Shelley    (Imperial College London)   |
             |    Nicolas Poilvert   (Penn State University)     |
             |    Raffaello Bianco   (Paris 6 and CNRS)          |
             |    Gabriele Sclauzero (ETH Zurich)                |
             |    David Strubbe (MIT, USA)                       |
             |    Rei Sakuma (Lund University, Sweden)           |
             |    Yusuke Nomura (U. Tokyo, Japan)                |
             |    Takashi Koretsune (Riken, Japan)               |
             |    Yoshiro Nohara (ASMS Co. Ltd., Japan)          |
             |    Ryotaro Arita (Riken, Japan)                   |
             |    Lorenzo Paulatto (UPMC Paris)                  |
             |    Florian Thole (ETH Zurich)                     |
             |    Pablo Garcia Fernandez (Unican, Spain)         |
             |    Dominik Gresch (ETH Zurich)                    |
             |    Samuel Ponce (University of Oxford)            |
             |    Marco Gibertini (EPFL)                         |
             |    Christian Stieger (ETHZ, CH)                   |
             |    Stepan Tsirkin (Universidad del Pais Vasco)    |
             |                                                   |
             |  Wannier77 Authors:                               |
             |    Nicola Marzari    (EPFL)                       |
             |    Ivo Souza         (Universidad del Pais Vasco) |
             |    David Vanderbilt  (Rutgers University)         |
             |                                                   |
             |  Please cite                                      |
             |                                                   |
             |  [ref] "An updated version of Wannier90:          |
             |        A Tool for Obtaining Maximally Localised   |
             |        Wannier Functions", A. A. Mostofi,         |
             |        J. R. Yates, G. Pizzi, Y. S. Lee,          |
             |        I. Souza, D. Vanderbilt and N. Marzari,    |
             |        Comput. Phys. Commun. 185, 2309 (2014)     |
             |        http://dx.doi.org/10.1016/j.cpc.2014.05.003|
             |                                                   |
             |  in any publications arising from the use of      |
             |  this code. For the method please cite            |
             |                                                   |
             |  [ref] "Maximally Localized Generalised Wannier   |
             |         Functions for Composite Energy Bands"     |
             |         N. Marzari and D. Vanderbilt              |
             |         Phys. Rev. B 56 12847 (1997)              |
             |                                                   |
             |  [ref] "Maximally Localized Wannier Functions     |
             |         for Entangled Energy Bands"               |
             |         I. Souza, N. Marzari and D. Vanderbilt    |
             |         Phys. Rev. B 65 035109 (2001)             |
             |                                                   |
             |                                                   |
             | Copyright (c) 1996-2017                           |
             |        Arash A. Mostofi, Jonathan R. Yates,       |
             |        Young-Su Lee, Giovanni Pizzi, Ivo Souza,   |
             |        David Vanderbilt and Nicola Marzari        |
             |                                                   |
             |        Release: 2.1.0   13th January 2017         |
             |                                                   |
             | This program is free software; you can            |
             | redistribute it and/or modify it under the terms  |
             | of the GNU General Public License as published by |
             | the Free Software Foundation; either version 2 of |
             | the License, or (at your option) any later version|
             |                                                   |
             | This program is distributed in the hope that it   |
             | will be useful, but WITHOUT ANY WARRANTY; without |
             | even the implied warranty of MERCHANTABILITY or   |
             | FITNESS FOR A PARTICULAR PURPOSE. See the GNU     |
             | General Public License for more details.          |
             |                                                   |
             | You should have received a copy of the GNU General|
             | Public License along with this program; if not,   |
             | write to the Free Software Foundation, Inc.,      |
             | 675 Mass Ave, Cambridge, MA 02139, USA.           |
             |                                                   |
             +---------------------------------------------------+
             |    Execution started on  7Jan2022 at 14:00:11     |
             +---------------------------------------------------+
 
 ******************************************************************************
 * -> Using CODATA 2006 constant values                                       *
 *    (http://physics.nist.gov/cuu/Constants/index.html)                      *
 * -> Using Bohr value from CODATA                                            *
 ******************************************************************************
 

                                    ------
                                    SYSTEM
                                    ------

                              Lattice Vectors (Ang)
                    a_1    10.000000   0.000000   0.000000
                    a_2     0.000000  30.000000   0.000000
                    a_3     0.000000   0.000000  17.040000

                   Unit Cell Volume:    5112.00000  (Ang^3)

                        Reciprocal-Space Vectors (Ang^-1)
                    b_1     0.628319   0.000000   0.000000
                    b_2     0.000000   0.209440   0.000000
                    b_3     0.000000   0.000000   0.368732
  
 *----------------------------------------------------------------------------*
 |   Site       Fractional Coordinate          Cartesian Coordinate (Ang)     |
 +----------------------------------------------------------------------------+
 | C    1   0.50000   0.33579   0.41409   |    5.00000  10.07380   7.05605    |
 | C    2   0.50000   0.33610   0.66580   |    5.00000  10.08295  11.34524    |
 | C    3   0.50000   0.37767   0.21016   |    5.00000  11.33013   3.58121    |
 | C    4   0.50000   0.37619   0.45833   |    5.00000  11.28566   7.80986    |
 | C    5   0.50000   0.37697   0.70829   |    5.00000  11.30905  12.06924    |
 | C    6   0.50000   0.37758   0.95987   |    5.00000  11.32730  16.35623    |
 | C    7   0.50000   0.33610   0.33420   |    5.00000  10.08296   5.69477    |
 | C    8   0.50000   0.33579   0.58591   |    5.00000  10.07380   9.98395    |
 | C    9   0.50000   0.41750   0.16760   |    5.00000  12.52514   2.85588    |
 | C   10   0.50000   0.41758   0.41716   |    5.00000  12.52740   7.10843    |
 | C   11   0.50000   0.41799   0.66604   |    5.00000  12.53983  11.34930    |
 | C   12   0.50000   0.41771   0.91683   |    5.00000  12.53123  15.62272    |
 | C   13   0.50000   0.45885   0.20881   |    5.00000  13.76545   3.55805    |
 | C   14   0.50000   0.45882   0.45856   |    5.00000  13.76471   7.81388    |
 | C   15   0.50000   0.45889   0.70789   |    5.00000  13.76679  12.06243    |
 | C   16   0.50000   0.45875   0.95808   |    5.00000  13.76240  16.32569    |
 | C   17   0.50000   0.37758   0.04013   |    5.00000  11.32730   0.68377    |
 | C   18   0.50000   0.37697   0.29171   |    5.00000  11.30905   4.97076    |
 | C   19   0.50000   0.37619   0.54168   |    5.00000  11.28566   9.23015    |
 | C   20   0.50000   0.37767   0.78984   |    5.00000  11.33014  13.45879    |
 | C   21   0.50000   0.41771   0.08317   |    5.00000  12.53123   1.41728    |
 | C   22   0.50000   0.41799   0.33396   |    5.00000  12.53983   5.69070    |
 | C   23   0.50000   0.41758   0.58284   |    5.00000  12.52740   9.93157    |
 | C   24   0.50000   0.41750   0.83240   |    5.00000  12.52514  14.18412    |
 | C   25   0.50000   0.50000   0.16684   |    5.00000  15.00000   2.84296    |
 | C   26   0.50000   0.50000   0.41678   |    5.00000  15.00000   7.10192    |
 | C   27   0.50000   0.50000   0.66615   |    5.00000  15.00000  11.35122    |
 | C   28   0.50000   0.50000   0.91625   |    5.00000  15.00000  15.61294    |
 | C   29   0.50000   0.54115   0.20881   |    5.00000  16.23455   3.55805    |
 | C   30   0.50000   0.54118   0.45856   |    5.00000  16.23529   7.81388    |
 | C   31   0.50000   0.54111   0.70789   |    5.00000  16.23321  12.06242    |
 | C   32   0.50000   0.54125   0.95808   |    5.00000  16.23760  16.32569    |
 | C   33   0.50000   0.45875   0.04192   |    5.00000  13.76240   0.71431    |
 | C   34   0.50000   0.45889   0.29211   |    5.00000  13.76679   4.97758    |
 | C   35   0.50000   0.45882   0.54144   |    5.00000  13.76471   9.22612    |
 | C   36   0.50000   0.45885   0.79119   |    5.00000  13.76545  13.48195    |
 | C   37   0.50000   0.50000   0.08375   |    5.00000  15.00000   1.42705    |
 | C   38   0.50000   0.50000   0.33385   |    5.00000  15.00000   5.68879    |
 | C   39   0.50000   0.50000   0.58322   |    5.00000  15.00000   9.93808    |
 | C   40   0.50000   0.50000   0.83316   |    5.00000  15.00000  14.19704    |
 | C   41   0.50000   0.58250   0.16760   |    5.00000  17.47486   2.85588    |
 | C   42   0.50000   0.58242   0.41716   |    5.00000  17.47260   7.10843    |
 | C   43   0.50000   0.58201   0.66604   |    5.00000  17.46017  11.34930    |
 | C   44   0.50000   0.58229   0.91683   |    5.00000  17.46876  15.62271    |
 | C   45   0.50000   0.62233   0.21016   |    5.00000  18.66987   3.58121    |
 | C   46   0.50000   0.62381   0.45833   |    5.00000  18.71434   7.80986    |
 | C   47   0.50000   0.62303   0.70829   |    5.00000  18.69095  12.06924    |
 | C   48   0.50000   0.62242   0.95987   |    5.00000  18.67270  16.35623    |
 | C   49   0.50000   0.54125   0.04192   |    5.00000  16.23760   0.71431    |
 | C   50   0.50000   0.54111   0.29211   |    5.00000  16.23321   4.97758    |
 | C   51   0.50000   0.54118   0.54144   |    5.00000  16.23529   9.22612    |
 | C   52   0.50000   0.54115   0.79119   |    5.00000  16.23455  13.48195    |
 | C   53   0.50000   0.58229   0.08317   |    5.00000  17.46877   1.41728    |
 | C   54   0.50000   0.58201   0.33396   |    5.00000  17.46017   5.69070    |
 | C   55   0.50000   0.58242   0.58284   |    5.00000  17.47260   9.93157    |
 | C   56   0.50000   0.58250   0.83240   |    5.00000  17.47486  14.18412    |
 | C   57   0.50000   0.66421   0.41409   |    5.00000  19.92620   7.05605    |
 | C   58   0.50000   0.66390   0.66580   |    5.00000  19.91704  11.34523    |
 | C   59   0.50000   0.62242   0.04013   |    5.00000  18.67270   0.68376    |
 | C   60   0.50000   0.62303   0.29171   |    5.00000  18.69095   4.97077    |
 | C   61   0.50000   0.62381   0.54168   |    5.00000  18.71434   9.23015    |
 | C   62   0.50000   0.62233   0.78984   |    5.00000  18.66986  13.45879    |
 | C   63   0.50000   0.66390   0.33420   |    5.00000  19.91704   5.69477    |
 | C   64   0.50000   0.66421   0.58591   |    5.00000  19.92620   9.98396    |
 | H    1   0.50000   0.30389   0.44436   |    5.00000   9.11666   7.57194    |
 | H    2   0.50000   0.30487   0.69856   |    5.00000   9.14610  11.90355    |
 | H    3   0.50000   0.30487   0.30144   |    5.00000   9.14610   5.13646    |
 | H    4   0.50000   0.30389   0.55564   |    5.00000   9.11666   9.46806    |
 | H    5   0.50000   0.69611   0.44436   |    5.00000  20.88334   7.57194    |
 | H    6   0.50000   0.69513   0.69856   |    5.00000  20.85389  11.90354    |
 | H    7   0.50000   0.69513   0.30144   |    5.00000  20.85390   5.13646    |
 | H    8   0.50000   0.69611   0.55564   |    5.00000  20.88333   9.46806    |
 | H    9   0.50000   0.34568   0.18010   |    5.00000  10.37028   3.06891    |
 | H   10   0.50000   0.34566   0.92967   |    5.00000  10.36969  15.84150    |
 | H   11   0.50000   0.34566   0.07033   |    5.00000  10.36969   1.19850    |
 | H   12   0.50000   0.34568   0.81990   |    5.00000  10.37028  13.97110    |
 | H   13   0.50000   0.65432   0.18010   |    5.00000  19.62972   3.06891    |
 | H   14   0.50000   0.65434   0.92967   |    5.00000  19.63031  15.84150    |
 | H   15   0.50000   0.65434   0.07033   |    5.00000  19.63031   1.19849    |
 | H   16   0.50000   0.65432   0.81990   |    5.00000  19.62972  13.97109    |
 *----------------------------------------------------------------------------*
  
                                ------------
                                K-POINT GRID
                                ------------
  
             Grid size =  1 x  1 x 50      Total points =   50
  
  
 *---------------------------------- MAIN ------------------------------------*
 |  Number of Wannier Functions               :                64             |
 |  Number of input Bloch states              :               500             |
 |  Output verbosity (1=low, 5=high)          :                 1             |
 |  Timing Level (1=low, 5=high)              :                 1             |
 |  Optimisation (0=memory, 3=speed)          :                 3             |
 |  Length Unit                               :               Ang             |
 |  Post-processing setup (write *.nnkp)      :                 F             |
 |  Using Gamma-only branch of algorithms     :                 F             |
 *----------------------------------------------------------------------------*
 *------------------------------- WANNIERISE ---------------------------------*
 |  Total number of iterations                :                 0             |
 |  Number of CG steps before reset           :                 5             |
 |  Trial step length for line search         :             2.000             |
 |  Convergence tolerence                     :         0.100E-08             |
 |  Convergence window                        :                -1             |
 |  Iterations between writing output         :                 1             |
 |  Iterations between backing up to disk     :               100             |
 |  Write r^2_nm to file                      :                 F             |
 |  Write xyz WF centres to file              :                 T             |
 |  Write on-site energies <0n|H|0n> to file  :                 F             |
 |  Use guiding centre to control phases      :                 T             |
 |  Use phases for initial projections        :                 F             |
 |  Iterations before starting guiding centres:                 0             |
 |  Iterations between using guiding centres  :                 1             |
 *----------------------------------------------------------------------------*
 *------------------------------- DISENTANGLE --------------------------------*
 |  Using band disentanglement                :                 T             |
 |  Total number of iterations                :             20000             |
 |  Mixing ratio                              :             0.500             |
 |  Convergence tolerence                     :         1.500E-04             |
 |  Convergence window                        :                 3             |
 *----------------------------------------------------------------------------*
 *-------------------------------- PLOTTING ----------------------------------*
 |  Plotting interpolated bandstructure       :                 T             |
 |   Number of K-path sections                :                 1             |
 |   Divisions along first K-path section     :               100             |
 |   Output format                            :           gnuplot             |
 |   Output mode                              :               s-k             |
 *----------------------------------------------------------------------------*
 |   K-space path sections:                                                   |
 |    From:  G    0.000  0.000  0.000     To:  P    0.000  0.000  0.500       |
 *----------------------------------------------------------------------------*
 |  Plotting Hamiltonian in WF basis          :                 T             |
 *----------------------------------------------------------------------------*
 Time to read parameters        0.045 (sec)

 *---------------------------------- K-MESH ----------------------------------*
 +----------------------------------------------------------------------------+
 |                    Distance to Nearest-Neighbour Shells                    |
 |                    ------------------------------------                    |
 |          Shell             Distance (Ang^-1)          Multiplicity         |
 |          -----             -----------------          ------------         |
 |             1                   0.007375                      2            |
 |             2                   0.014749                      2            |
 |             3                   0.022124                      2            |
 |             4                   0.029499                      2            |
 |             5                   0.036873                      2            |
 |             6                   0.044248                      2            |
 |             7                   0.051622                      2            |
 |             8                   0.058997                      2            |
 |             9                   0.066372                      2            |
 |            10                   0.073746                      2            |
 |            11                   0.081121                      2            |
 |            12                   0.088496                      2            |
 |            13                   0.095870                      2            |
 |            14                   0.103245                      2            |
 |            15                   0.110619                      2            |
 |            16                   0.117994                      2            |
 |            17                   0.125369                      2            |
 |            18                   0.132743                      2            |
 |            19                   0.140118                      2            |
 |            20                   0.147493                      2            |
 |            21                   0.154867                      2            |
 |            22                   0.162242                      2            |
 |            23                   0.169617                      2            |
 |            24                   0.176991                      2            |
 |            25                   0.184366                      2            |
 |            26                   0.191740                      2            |
 |            27                   0.199115                      2            |
 |            28                   0.206490                      2            |
 |            29                   0.209440                      2            |
 |            30                   0.209569                      4            |
 |            31                   0.209958                      4            |
 |            32                   0.210605                      4            |
 |            33                   0.211507                      4            |
 |            34                   0.212661                      4            |
 |            35                   0.213864                      2            |
 |            36                   0.214063                      4            |
 |            37                   0.215708                      4            |
 |            38                   0.217590                      4            |
 |            39                   0.219705                      4            |
 |            40                   0.221239                      2            |
 |            41                   0.222044                      4            |
 |            42                   0.224601                      4            |
 |            43                   0.227368                      4            |
 |            44                   0.228614                      2            |
 |            45                   0.230339                      4            |
 |            46                   0.233505                      4            |
 |            47                   0.235988                      2            |
 |            48                   0.236858                      4            |
 |            49                   0.240390                      4            |
 |            50                   0.243363                      2            |
 |            51                   0.244095                      4            |
 |            52                   0.247963                      4            |
 |            53                   0.250737                      2            |
 |            54                   0.251988                      4            |
 |            55                   0.256162                      4            |
 |            56                   0.258112                      2            |
 |            57                   0.260478                      4            |
 |            58                   0.264929                      4            |
 |            59                   0.265487                      2            |
 |            60                   0.269508                      4            |
 |            61                   0.272861                      2            |
 |            62                   0.274209                      4            |
 |            63                   0.279026                      4            |
 |            64                   0.280236                      2            |
 |            65                   0.283953                      4            |
 |            66                   0.287611                      2            |
 |            67                   0.288984                      4            |
 |            68                   0.294114                      4            |
 |            69                   0.294985                      2            |
 |            70                   0.299337                      4            |
 |            71                   0.302360                      2            |
 |            72                   0.304650                      4            |
 |            73                   0.309734                      2            |
 |            74                   0.310047                      4            |
 |            75                   0.315524                      4            |
 |            76                   0.317109                      2            |
 |            77                   0.321077                      4            |
 |            78                   0.324484                      2            |
 |            79                   0.326702                      4            |
 |            80                   0.331858                      2            |
 |            81                   0.332395                      4            |
 |            82                   0.338154                      4            |
 |            83                   0.339233                      2            |
 |            84                   0.343974                      4            |
 |            85                   0.346608                      2            |
 |            86                   0.349853                      4            |
 |            87                   0.353982                      2            |
 |            88                   0.355788                      4            |
 |            89                   0.361357                      2            |
 |            90                   0.361775                      4            |
 |            91                   0.367813                      4            |
 |            92                   0.368732                      2            |
 |            93                   0.373899                      4            |
 |            94                   0.376106                      2            |
 |            95                   0.380030                      4            |
 |            96                   0.383481                      2            |
 |            97                   0.386205                      4            |
 |            98                   0.390855                      2            |
 |            99                   0.392422                      4            |
 |           100                   0.398230                      2            |
 |           101                   0.398678                      4            |
 |           102                   0.404971                      4            |
 |           103                   0.405605                      2            |
 |           104                   0.411301                      4            |
 |           105                   0.412979                      2            |
 |           106                   0.417665                      4            |
 |           107                   0.418879                      2            |
 |           108                   0.418944                      4            |
 |           109                   0.419139                      4            |
 |           110                   0.419463                      4            |
 |           111                   0.419916                      4            |
 |           112                   0.420354                      2            |
 |           113                   0.420499                      4            |
 |           114                   0.421210                      4            |
 |           115                   0.422048                      4            |
 |           116                   0.423013                      4            |
 |           117                   0.424061                      4            |
 |           118                   0.424105                      4            |
 |           119                   0.425321                      4            |
 |           120                   0.426662                      4            |
 |           121                   0.427729                      2            |
 |           122                   0.428125                      4            |
 |           123                   0.429710                      4            |
 |           124                   0.430489                      4            |
 |           125                   0.431415                      4            |
 |           126                   0.433239                      4            |
 |           127                   0.435103                      2            |
 |           128                   0.435181                      4            |
 |           129                   0.436947                      4            |
 |           130                   0.437238                      4            |
 |           131                   0.439409                      4            |
 |           132                   0.441693                      4            |
 |           133                   0.442478                      2            |
 |           134                   0.443433                      4            |
 |           135                   0.444087                      4            |
 |           136                   0.446591                      4            |
 |           137                   0.449202                      4            |
 |           138                   0.449852                      2            |
 |           139                   0.449947                      4            |
 |           140                   0.451917                      4            |
 |           141                   0.454737                      4            |
 |           142                   0.456487                      4            |
 |           143                   0.457227                      2            |
 |           144                   0.457657                      4            |
 |           145                   0.460678                      4            |
 |           146                   0.463052                      4            |
 |           147                   0.463796                      4            |
 |           148                   0.464602                      2            |
 |           149                   0.467009                      4            |
 |           150                   0.469641                      4            |
 |           151                   0.470316                      4            |
 |           152                   0.471976                      2            |
 |           153                   0.473715                      4            |
 |           154                   0.476253                      4            |
 |           155                   0.477204                      4            |
 |           156                   0.479351                      2            |
 |           157                   0.480781                      4            |
 |           158                   0.482887                      4            |
 |           159                   0.484443                      4            |
 |           160                   0.486726                      2            |
 |           161                   0.488189                      4            |
 |           162                   0.489542                      4            |
 |           163                   0.492018                      4            |
 |           164                   0.494100                      2            |
 |           165                   0.495926                      4            |
 |           166                   0.496218                      4            |
 |           167                   0.499913                      4            |
 |           168                   0.501475                      2            |
 |           169                   0.502913                      4            |
 |           170                   0.503976                      4            |
 |           171                   0.508114                      4            |
 |           172                   0.508850                      2            |
 |           173                   0.509627                      4            |
 |           174                   0.512324                      4            |
 |           175                   0.516224                      2            |
 |           176                   0.516359                      4            |
 |           177                   0.516605                      4            |
 |           178                   0.520956                      4            |
 |           179                   0.523108                      4            |
 |           180                   0.523599                      2            |
 |           181                   0.525374                      4            |
 |           182                   0.529858                      4            |
 |           183                   0.529874                      4            |
 |           184                   0.530973                      2            |
 |           185                   0.534406                      4            |
 |           186                   0.536656                      4            |
 |           187                   0.538348                      2            |
 |           188                   0.539016                      4            |
 |           189                   0.543454                      4            |
 |           190                   0.543688                      4            |
 |           191                   0.545723                      2            |
 |           192                   0.548419                      4            |
 |           193                   0.550266                      4            |
 |           194                   0.553097                      2            |
 |           195                   0.553207                      4            |
 |           196                   0.557093                      4            |
 |           197                   0.558052                      4            |
 |           198                   0.560472                      2            |
 |           199                   0.562952                      4            |
 |           200                   0.563933                      4            |
 |           201                   0.567847                      2            |
 |           202                   0.567906                      4            |
 |           203                   0.570787                      4            |
 |           204                   0.572912                      4            |
 |           205                   0.575221                      2            |
 |           206                   0.577653                      4            |
 |           207                   0.577968                      4            |
 |           208                   0.582596                      2            |
 |           209                   0.583074                      4            |
 |           210                   0.584532                      4            |
 |           211                   0.588227                      4            |
 |           212                   0.589970                      2            |
 |           213                   0.591423                      4            |
 |           214                   0.593428                      4            |
 |           215                   0.597345                      2            |
 |           216                   0.598326                      4            |
 |           217                   0.598675                      4            |
 |           218                   0.603966                      4            |
 |           219                   0.604720                      2            |
 |           220                   0.605239                      4            |
 |           221                   0.609300                      4            |
 |           222                   0.612094                      2            |
 |           223                   0.612164                      4            |
 |           224                   0.614676                      4            |
 |           225                   0.619098                      4            |
 |           226                   0.619469                      2            |
 |           227                   0.620094                      4            |
 |           228                   0.625551                      4            |
 |           229                   0.626043                      4            |
 |           230                   0.626844                      2            |
 |           231                   0.628319                      4            |
 |           232                   0.628362                      8            |
 |           233                   0.628492                      8            |
 |           234                   0.628708                      8            |
 |           235                   0.629011                      8            |
 |           236                   0.629400                      8            |
 |           237                   0.629875                      8            |
 |           238                   0.630436                      8            |
 |           239                   0.631048                      4            |
 |           240                   0.631082                      8            |
 |           241                   0.631814                      8            |
 |           242                   0.632632                      8            |
 |           243                   0.632998                      4            |
 |           244                   0.633534                      8            |
 |           245                   0.634218                      2            |
 |           246                   0.634520                      8            |
 |           247                   0.635590                      8            |
 |           248                   0.636582                      4            |
 |           249                   0.636745                      8            |
 |           250                   0.637982                      8            |
 |           251                   0.639302                      8            |
 |           252                   0.639962                      4            |
 |           253                   0.640704                      8            |
 |           254                   0.641593                      2            |
 |           255                   0.642154                      4            |
 |           256                   0.642188                      8            |
 |           257                   0.643752                      8            |
 |           258                   0.645398                      8            |
 |           259                   0.646935                      4            |
 |           260                   0.647123                      8            |
 |           261                   0.647761                      4            |
 |           262                   0.648927                      8            |
 |           263                   0.648967                      2            |
 |           264                   0.650810                      8            |
 |           265                   0.652771                      8            |
 |           266                   0.653404                      4            |
 |           267                   0.653916                      4            |
 |           268                   0.654809                      8            |
 |           269                   0.656342                      2            |
 |           270                   0.656924                      8            |
 |           271                   0.659081                      4            |
 |           272                   0.659114                      8            |
 |           273                   0.660907                      4            |
 |           274                   0.661379                      8            |
 |           275                   0.662306                      4            |
 |           276                   0.662347                      8            |
 |           277                   0.662470                      8            |
 |           278                   0.662675                      8            |
 |           279                   0.662962                      8            |
 |           280                   0.663332                      8            |
 |           281                   0.663717                      2            |
 |           282                   0.663718                      8            |
 |           283                   0.663782                      8            |
 |           284                   0.664315                      8            |
 |           285                   0.664791                      4            |
 |           286                   0.664928                      8            |
 |           287                   0.665623                      8            |
 |           288                   0.666131                      8            |
 |           289                   0.666399                      8            |
 |           290                   0.667255                      8            |
 |           291                   0.667905                      4            |
 |           292                   0.668192                      8            |
 |           293                   0.668617                      8            |
 |           294                   0.669209                      8            |
 |           295                   0.670305                      8            |
 |           296                   0.670534                      4            |
 |           297                   0.671091                      2            |
 |           298                   0.671174                      8            |
 |           299                   0.671480                      8            |
 |           300                   0.672734                      8            |
 |           301                   0.673802                      8            |
 |           302                   0.674067                      8            |
 |           303                   0.674912                      4            |
 |           304                   0.675478                      8            |
 |           305                   0.676308                      4            |
 |           306                   0.676501                      8            |
 |           307                   0.676965                      8            |
 |           308                   0.678466                      2            |
 |           309                   0.678530                      8            |
 |           310                   0.679269                      8            |
 |           311                   0.680171                      8            |
 |           312                   0.681888                      8            |
 |           313                   0.681926                      4            |
 |           314                   0.682105                      8            |
 |           315                   0.682113                      4            |
 |           316                   0.683680                      8            |
 |           317                   0.685009                      8            |
 |           318                   0.685547                      8            |
 |           319                   0.685841                      2            |
 |           320                   0.687488                      8            |
 |           321                   0.687948                      4            |
 |           322                   0.687980                      8            |
 |           323                   0.688948                      4            |
 |           324                   0.689502                      8            |
 |           325                   0.691017                      8            |
 |           326                   0.691589                      8            |
 |           327                   0.693215                      2            |
 |           328                   0.693749                      8            |
 |           329                   0.693813                      4            |
 |           330                   0.694118                      8            |
 |           331                   0.695978                      4            |
 |           332                   0.695979                      8            |
 |           333                   0.697284                      8            |
 |           334                   0.698281                      8            |
 |           335                   0.699706                      4            |
 |           336                   0.700514                      8            |
 |           337                   0.700590                      2            |
 |           338                   0.700652                      8            |
 |           339                   0.703014                      4            |
 |           340                   0.703093                      8            |
 |           341                   0.703806                      8            |
 |           342                   0.705602                      8            |
 |           343                   0.705627                      4            |
 |           344                   0.707159                      8            |
 |           345                   0.707965                      2            |
 |           346                   0.708180                      8            |
 |           347                   0.710057                      4            |
 |           348                   0.710573                      8            |
 |           349                   0.710824                      8            |
 |           350                   0.711575                      4            |
 |           351                   0.713535                      8            |
 |           352                   0.714047                      8            |
 |           353                   0.715339                      2            |
 |           354                   0.716312                      8            |
 |           355                   0.717107                      4            |
 |           356                   0.717550                      4            |
 |           357                   0.717580                      8            |
 |           358                   0.719153                      8            |
 |           359                   0.721171                      8            |
 |           360                   0.722059                      8            |
 |           361                   0.722714                      2            |
 |           362                   0.723550                      4            |
 |           363                   0.724163                      4            |
 |           364                   0.724819                      8            |
 |           365                   0.725028                      8            |
 |           366                   0.728059                      8            |
 |           367                   0.728524                      8            |
 |           368                   0.729576                      4            |
 |           369                   0.730088                      2            |
 |           370                   0.731153                      8            |
 |           371                   0.731226                      4            |
 |           372                   0.732284                      8            |
 |           373                   0.734307                      8            |
 |           374                   0.735626                      4            |
 |           375                   0.736099                      8            |
 |           376                   0.737463                      2            |
 |           377                   0.737522                      8            |
 |           378                   0.738294                      4            |
 |           379                   0.739968                      8            |
 |           380                   0.740796                      8            |
 |           381                   0.741700                      4            |
 |           382                   0.743889                      8            |
 |           383                   0.744129                      8            |
 |           384                   0.744838                      2            |
 |           385                   0.745369                      4            |
 |           386                   0.747520                      8            |
 |           387                   0.747798                      4            |
 |           388                   0.747863                      8            |
 |           389                   0.750968                      8            |
 |           390                   0.751888                      8            |
 |           391                   0.752212                      2            |
 |           392                   0.752449                      4            |
 |           393                   0.753918                      4            |
 |           394                   0.754472                      8            |
 |           395                   0.755145                      4            |
 |           396                   0.755181                      8            |
 |           397                   0.755289                      8            |
 |           398                   0.755469                      8            |
 |           399                   0.755721                      8            |
 |           400                   0.755964                      8            |
 +----------------------------------------------------------------------------+
 | The b-vectors are chosen automatically                                     |
 | SVD found small singular value, Rejecting this shell and trying the next   |
 | SVD found small singular value, Rejecting this shell and trying the next   |
 | SVD found small singular value, Rejecting this shell and trying the next   |
 | SVD found small singular value, Rejecting this shell and trying the next   |
 | SVD found small singular value, Rejecting this shell and trying the next   |
 | SVD found small singular value, Rejecting this shell and trying the next   |
 | SVD found small singular value, Rejecting this shell and trying the next   |
 | SVD found small singular value, Rejecting this shell and trying the next   |
 | SVD found small singular value, Rejecting this shell and trying the next   |
 | SVD found small singular value, Rejecting this shell and trying the next   |
 | SVD found small singular value, Rejecting this shell and trying the next   |
 | SVD found small singular value, Rejecting this shell and trying the next   |
 | SVD found small singular value, Rejecting this shell and trying the next   |
 | SVD found small singular value, Rejecting this shell and trying the next   |
 | SVD found small singular value, Rejecting this shell and trying the next   |
 | SVD found small singular value, Rejecting this shell and trying the next   |
 | SVD found small singular value, Rejecting this shell and trying the next   |
 | SVD found small singular value, Rejecting this shell and trying the next   |
 | SVD found small singular value, Rejecting this shell and trying the next   |
 | SVD found small singular value, Rejecting this shell and trying the next   |
 | SVD found small singular value, Rejecting this shell and trying the next   |
 | SVD found small singular value, Rejecting this shell and trying the next   |
 | SVD found small singular value, Rejecting this shell and trying the next   |
 | SVD found small singular value, Rejecting this shell and trying the next   |
 | SVD found small singular value, Rejecting this shell and trying the next   |
 | SVD found small singular value, Rejecting this shell and trying the next   |
 | SVD found small singular value, Rejecting this shell and trying the next   |
 | SVD found small singular value, Rejecting this shell and trying the next   |
 | SVD found small singular value, Rejecting this shell and trying the next   |
 | SVD found small singular value, Rejecting this shell and trying the next   |
 | SVD found small singular value, Rejecting this shell and trying the next   |
 | SVD found small singular value, Rejecting this shell and trying the next   |
 | SVD found small singular value, Rejecting this shell and trying the next   |
 | SVD found small singular value, Rejecting this shell and trying the next   |
 | SVD found small singular value, Rejecting this shell and trying the next   |
 | SVD found small singular value, Rejecting this shell and trying the next   |
 | SVD found small singular value, Rejecting this shell and trying the next   |
 | SVD found small singular value, Rejecting this shell and trying the next   |
 | SVD found small singular value, Rejecting this shell and trying the next   |
 | SVD found small singular value, Rejecting this shell and trying the next   |
 | SVD found small singular value, Rejecting this shell and trying the next   |
 | SVD found small singular value, Rejecting this shell and trying the next   |
 | SVD found small singular value, Rejecting this shell and trying the next   |
 | SVD found small singular value, Rejecting this shell and trying the next   |
 | SVD found small singular value, Rejecting this shell and trying the next   |
 | SVD found small singular value, Rejecting this shell and trying the next   |
 | SVD found small singular value, Rejecting this shell and trying the next   |
 | SVD found small singular value, Rejecting this shell and trying the next   |
 | SVD found small singular value, Rejecting this shell and trying the next   |
 | SVD found small singular value, Rejecting this shell and trying the next   |
 | SVD found small singular value, Rejecting this shell and trying the next   |
 | SVD found small singular value, Rejecting this shell and trying the next   |
 | SVD found small singular value, Rejecting this shell and trying the next   |
 | SVD found small singular value, Rejecting this shell and trying the next   |
 | SVD found small singular value, Rejecting this shell and trying the next   |
 | SVD found small singular value, Rejecting this shell and trying the next   |
 | SVD found small singular value, Rejecting this shell and trying the next   |
 | SVD found small singular value, Rejecting this shell and trying the next   |
 | SVD found small singular value, Rejecting this shell and trying the next   |
 | SVD found small singular value, Rejecting this shell and trying the next   |
 | SVD found small singular value, Rejecting this shell and trying the next   |
 | SVD found small singular value, Rejecting this shell and trying the next   |
 | SVD found small singular value, Rejecting this shell and trying the next   |
 | SVD found small singular value, Rejecting this shell and trying the next   |
 | SVD found small singular value, Rejecting this shell and trying the next   |
 | SVD found small singular value, Rejecting this shell and trying the next   |
 | SVD found small singular value, Rejecting this shell and trying the next   |
 | SVD found small singular value, Rejecting this shell and trying the next   |
 | SVD found small singular value, Rejecting this shell and trying the next   |
 | SVD found small singular value, Rejecting this shell and trying the next   |
 | SVD found small singular value, Rejecting this shell and trying the next   |
 | SVD found small singular value, Rejecting this shell and trying the next   |
 | SVD found small singular value, Rejecting this shell and trying the next   |
 | SVD found small singular value, Rejecting this shell and trying the next   |
 | SVD found small singular value, Rejecting this shell and trying the next   |
 | SVD found small singular value, Rejecting this shell and trying the next   |
 | SVD found small singular value, Rejecting this shell and trying the next   |
 | SVD found small singular value, Rejecting this shell and trying the next   |
 | SVD found small singular value, Rejecting this shell and trying the next   |
 | SVD found small singular value, Rejecting this shell and trying the next   |
 | SVD found small singular value, Rejecting this shell and trying the next   |
 | SVD found small singular value, Rejecting this shell and trying the next   |
 | SVD found small singular value, Rejecting this shell and trying the next   |
 | SVD found small singular value, Rejecting this shell and trying the next   |
 | SVD found small singular value, Rejecting this shell and trying the next   |
 | SVD found small singular value, Rejecting this shell and trying the next   |
 | SVD found small singular value, Rejecting this shell and trying the next   |
 | SVD found small singular value, Rejecting this shell and trying the next   |
 | SVD found small singular value, Rejecting this shell and trying the next   |
 | SVD found small singular value, Rejecting this shell and trying the next   |
 | SVD found small singular value, Rejecting this shell and trying the next   |
 | SVD found small singular value, Rejecting this shell and trying the next   |
 | SVD found small singular value, Rejecting this shell and trying the next   |
 | SVD found small singular value, Rejecting this shell and trying the next   |
 | SVD found small singular value, Rejecting this shell and trying the next   |
 | SVD found small singular value, Rejecting this shell and trying the next   |
 | SVD found small singular value, Rejecting this shell and trying the next   |
 | SVD found small singular value, Rejecting this shell and trying the next   |
 | SVD found small singular value, Rejecting this shell and trying the next   |
 | SVD found small singular value, Rejecting this shell and trying the next   |
 | SVD found small singular value, Rejecting this shell and trying the next   |
 | SVD found small singular value, Rejecting this shell and trying the next   |
 | SVD found small singular value, Rejecting this shell and trying the next   |
 | SVD found small singular value, Rejecting this shell and trying the next   |
 | SVD found small singular value, Rejecting this shell and trying the next   |
 | SVD found small singular value, Rejecting this shell and trying the next   |
 | SVD found small singular value, Rejecting this shell and trying the next   |
 | SVD found small singular value, Rejecting this shell and trying the next   |
 | SVD found small singular value, Rejecting this shell and trying the next   |
 | SVD found small singular value, Rejecting this shell and trying the next   |
 | SVD found small singular value, Rejecting this shell and trying the next   |
 | SVD found small singular value, Rejecting this shell and trying the next   |
 | SVD found small singular value, Rejecting this shell and trying the next   |
 | SVD found small singular value, Rejecting this shell and trying the next   |
 | SVD found small singular value, Rejecting this shell and trying the next   |
 | SVD found small singular value, Rejecting this shell and trying the next   |
 | SVD found small singular value, Rejecting this shell and trying the next   |
 | SVD found small singular value, Rejecting this shell and trying the next   |
 | SVD found small singular value, Rejecting this shell and trying the next   |
 | SVD found small singular value, Rejecting this shell and trying the next   |
 | SVD found small singular value, Rejecting this shell and trying the next   |
 | SVD found small singular value, Rejecting this shell and trying the next   |
 | SVD found small singular value, Rejecting this shell and trying the next   |
 | SVD found small singular value, Rejecting this shell and trying the next   |
 | SVD found small singular value, Rejecting this shell and trying the next   |
 | SVD found small singular value, Rejecting this shell and trying the next   |
 | SVD found small singular value, Rejecting this shell and trying the next   |
 | SVD found small singular value, Rejecting this shell and trying the next   |
 | SVD found small singular value, Rejecting this shell and trying the next   |
 | SVD found small singular value, Rejecting this shell and trying the next   |
 | SVD found small singular value, Rejecting this shell and trying the next   |
 | SVD found small singular value, Rejecting this shell and trying the next   |
 | SVD found small singular value, Rejecting this shell and trying the next   |
 | SVD found small singular value, Rejecting this shell and trying the next   |
 | SVD found small singular value, Rejecting this shell and trying the next   |
 | SVD found small singular value, Rejecting this shell and trying the next   |
 | SVD found small singular value, Rejecting this shell and trying the next   |
 | SVD found small singular value, Rejecting this shell and trying the next   |
 | SVD found small singular value, Rejecting this shell and trying the next   |
 | SVD found small singular value, Rejecting this shell and trying the next   |
 | SVD found small singular value, Rejecting this shell and trying the next   |
 | SVD found small singular value, Rejecting this shell and trying the next   |
 | SVD found small singular value, Rejecting this shell and trying the next   |
 | The following shells are used:   1, 29,232                                 |
 +----------------------------------------------------------------------------+
 |                        Shell   # Nearest-Neighbours                        |
 |                        -----   --------------------                        |
 |                          1               2                                 |
 |                         29               2                                 |
 |                        232               8                                 |
 +----------------------------------------------------------------------------+
 | Completeness relation is fully satisfied [Eq. (B1), PRB 56, 12847 (1997)]  |
 +----------------------------------------------------------------------------+
 |                  b_k Vectors (Ang^-1) and Weights (Ang^2)                  |
 |                  ----------------------------------------                  |
 |            No.         b_k(x)      b_k(y)      b_k(z)        w_b           |
 |            ---        --------------------------------     --------        |
 |             1         0.000000    0.000000    0.007375   **********        |
 |             2         0.000000    0.000000   -0.007375   **********        |
 |             3         0.000000    0.209440    0.000000     0.000000        |
 |             4         0.000000   -0.209440    0.000000     0.000000        |
 |             5         0.628319    0.000000    0.007375     0.633257        |
 |             6         0.000000    0.628319    0.007375     0.633257        |
 |             7         0.000000   -0.628319    0.007375     0.633257        |
 |             8        -0.628319    0.000000    0.007375     0.633257        |
 |             9         0.628319    0.000000   -0.007375     0.633257        |
 |            10         0.000000    0.628319   -0.007375     0.633257        |
 |            11         0.000000   -0.628319   -0.007375     0.633257        |
 |            12        -0.628319    0.000000   -0.007375     0.633257        |
 +----------------------------------------------------------------------------+
 |                           b_k Directions (Ang^-1)                          |
 |                           -----------------------                          |
 |            No.           x           y           z                         |
 |            ---        --------------------------------                     |
 |             1         0.000000    0.000000    0.007375                     |
 |             2         0.000000    0.209440    0.000000                     |
 |             3         0.628319    0.000000    0.007375                     |
 |             4         0.000000    0.628319    0.007375                     |
 |             5         0.000000   -0.628319    0.007375                     |
 |             6        -0.628319    0.000000    0.007375                     |
 +----------------------------------------------------------------------------+
  
 *============================================================================*
 |                              MEMORY ESTIMATE                               |
 |         Maximum RAM allocated during each phase of the calculation         |
 *============================================================================*
 |                        Disentanglement         2729.72 Mb                  |
 |                            Wannierise:          113.97 Mb                  |
 |                          plot_wannier:          113.97 Mb                  |
 *----------------------------------------------------------------------------*
  
 Starting a new Wannier90 calculation ...

 Time to get kmesh              2.101 (sec)

 Reading overlaps from LS7_2_9_2.mmn    :  Created on  5Jan2022 at 23: 0: 5

 Reading projections from LS7_2_9_2.amn :  Created on  5Jan2022 at 22:23:14

 Time to read overlaps        213.074 (sec)

 *------------------------------- DISENTANGLE --------------------------------*
 +----------------------------------------------------------------------------+
 |                              Energy  Windows                               |
 |                              ---------------                               |
 |                   Outer:  -15.00000  to   10.00000  (eV)                   |
 |                   Inner:   -4.50000  to   -0.75000  (eV)                   |
 +----------------------------------------------------------------------------+
   Number of target bands to extract:   64

                   Unitarised projection of Wannier functions                  
                   ------------------------------------------                  
   A_mn = <psi_m|g_n> --> S = A.A^+ --> U = S^-1/2.A
   In dis_project... done
   Using an inner window (linner = T)
   In dis_proj_froz... done

                   Extraction of optimally-connected subspace                  
                   ------------------------------------------                  
 +---------------------------------------------------------------------+<-- DIS
 |  Iter     Omega_I(i-1)      Omega_I(i)      Delta (frac.)    Time   |<-- DIS
 +---------------------------------------------------------------------+<-- DIS
       1     258.92397133     198.66259750       3.033E-01    544.10    <-- DIS
       2     204.63980752     174.83078641       1.705E-01    611.71    <-- DIS
       3     188.14463718     163.39330351       1.515E-01    679.32    <-- DIS
       4     173.67853785     154.94102545       1.209E-01    746.94    <-- DIS
       5     162.55078390     148.32498373       9.591E-02    814.42    <-- DIS
       6     154.02327369     142.98384092       7.721E-02    881.88    <-- DIS
       7     147.35889643     138.56687311       6.345E-02    949.43    <-- DIS
       8     142.02236318     134.84080322       5.326E-02   1017.03    <-- DIS
       9     137.64618914     131.64462430       4.559E-02   1084.61    <-- DIS
      10     133.97955968     128.86387043       3.970E-02   1152.19    <-- DIS
      11     130.84945403     126.41507695       3.508E-02   1219.82    <-- DIS
      12     128.13439979     124.23602725       3.138E-02   1287.42    <-- DIS
      13     125.74734522     122.27943490       2.836E-02   1355.10    <-- DIS
      14     123.62455687     120.50873632       2.586E-02   1422.59    <-- DIS
      15     121.71838436     118.89521995       2.374E-02   1490.16    <-- DIS
      16     119.99248921     117.41602425       2.194E-02   1557.72    <-- DIS
      17     118.41864884     116.05271436       2.039E-02   1625.32    <-- DIS
      18     116.97457761     114.79025252       1.903E-02   1692.95    <-- DIS
      19     115.64241321     113.61624150       1.783E-02   1760.56    <-- DIS
      20     114.40764551     112.52036093       1.677E-02   1828.15    <-- DIS
      21     113.25834461     111.49394164       1.583E-02   1895.72    <-- DIS
      22     112.18459501     110.52964063       1.497E-02   1963.17    <-- DIS
      23     111.17807417     109.62119004       1.420E-02   2030.62    <-- DIS
      24     110.23173406     108.76320128       1.350E-02   2098.14    <-- DIS
      25     109.33955720     107.95101087       1.286E-02   2165.72    <-- DIS
      26     108.49636764     107.18055782       1.228E-02   2233.26    <-- DIS
      27     107.69768265     106.44828551       1.174E-02   2300.81    <-- DIS
      28     106.93959544     105.75106237       1.124E-02   2368.37    <-- DIS
      29     106.21868124     105.08611737       1.078E-02   2435.94    <-- DIS
      30     105.53192167     104.45098715       1.035E-02   2503.51    <-- DIS
      31     104.87664326     103.84347244       9.949E-03   2570.92    <-- DIS
      32     104.25046702     103.26160182       9.576E-03   2638.36    <-- DIS
      33     103.65126693     102.70360148       9.227E-03   2705.90    <-- DIS
      34     103.07713544     102.16786984       8.900E-03   2773.38    <-- DIS
      35     102.52635460     101.65295605       8.592E-03   2840.90    <-- DIS
      36     101.99737186     101.15754176       8.302E-03   2908.44    <-- DIS
      37     101.48877955     100.68042558       8.029E-03   2975.94    <-- DIS
      38     100.99929752     100.22050974       7.771E-03   3043.43    <-- DIS
      39     100.52775823      99.77678857       7.526E-03   3110.97    <-- DIS
      40     100.07309400      99.34833857       7.295E-03   3178.33    <-- DIS
      41      99.63432601      98.93430977       7.076E-03   3245.74    <-- DIS
      42      99.21055479      98.53391821       6.867E-03   3313.16    <-- DIS
      43      98.80095190      98.14643933       6.669E-03   3380.67    <-- DIS
      44      98.40475276      97.77120217       6.480E-03   3448.12    <-- DIS
      45      98.02125025      97.40758431       6.300E-03   3515.60    <-- DIS
      46      97.64978920      97.05500730       6.128E-03   3583.07    <-- DIS
      47      97.28976147      96.71293272       5.964E-03   3650.55    <-- DIS
      48      96.94060159      96.38085857       5.808E-03   3717.92    <-- DIS
      49      96.60178293      96.05831613       5.658E-03   3785.28    <-- DIS
      50      96.27281424      95.74486713       5.514E-03   3852.69    <-- DIS
      51      95.95323663      95.44010116       5.377E-03   3920.15    <-- DIS
      52      95.64262080      95.14363347       5.245E-03   3987.56    <-- DIS
      53      95.34056460      94.85510283       5.118E-03   4054.96    <-- DIS
      54      95.04669083      94.57416972       4.996E-03   4122.40    <-- DIS
      55      94.76064522      94.30051468       4.879E-03   4189.82    <-- DIS
      56      94.48209469      94.03383672       4.767E-03   4257.28    <-- DIS
      57      94.21072566      93.77385201       4.659E-03   4324.54    <-- DIS
      58      93.94624265      93.52029257       4.555E-03   4391.83    <-- DIS
      59      93.68836688      93.27290520       4.454E-03   4459.21    <-- DIS
      60      93.43683509      93.03145034       4.358E-03   4526.54    <-- DIS
      61      93.19139840      92.79570124       4.264E-03   4593.85    <-- DIS
      62      92.95182136      92.56544297       4.174E-03   4661.19    <-- DIS
      63      92.71788096      92.34047170       4.087E-03   4728.53    <-- DIS
      64      92.48936581      92.12059394       4.003E-03   4795.84    <-- DIS
      65      92.26607537      91.90562588       3.922E-03   4863.24    <-- DIS
      66      92.04781921      91.69539275       3.843E-03   4930.46    <-- DIS
      67      91.83441641      91.48972826       3.768E-03   4997.70    <-- DIS
      68      91.62569488      91.28847408       3.694E-03   5065.05    <-- DIS
      69      91.42149086      91.09147933       3.623E-03   5132.33    <-- DIS
      70      91.22164839      90.89860015       3.554E-03   5199.61    <-- DIS
      71      91.02601882      90.70969930       3.487E-03   5266.97    <-- DIS
      72      90.83446040      90.52464572       3.422E-03   5334.24    <-- DIS
      73      90.64683784      90.34331422       3.360E-03   5401.55    <-- DIS
      74      90.46302195      90.16558511       3.299E-03   5468.91    <-- DIS
      75      90.28288930      89.99134393       3.240E-03   5536.09    <-- DIS
      76      90.10632185      89.82048113       3.182E-03   5603.34    <-- DIS
      77      89.93320671      89.65289180       3.127E-03   5670.59    <-- DIS
      78      89.76343580      89.48847543       3.073E-03   5735.10    <-- DIS
      79      89.59690563      89.32713569       3.020E-03   5802.40    <-- DIS
      80      89.43351701      89.16878017       2.969E-03   5869.69    <-- DIS
      81      89.27317486      89.01332022       2.919E-03   5936.97    <-- DIS
      82      89.11578797      88.86067073       2.871E-03   6004.14    <-- DIS
      83      88.96126883      88.71074994       2.824E-03   6071.30    <-- DIS
      84      88.80953340      88.56347932       2.778E-03   6138.52    <-- DIS
      85      88.66050095      88.41878335       2.734E-03   6205.78    <-- DIS
      86      88.51409391      88.27658942       2.690E-03   6273.07    <-- DIS
      87      88.37023770      88.13682766       2.648E-03   6340.33    <-- DIS
      88      88.22886059      87.99943083       2.607E-03   6407.59    <-- DIS
      89      88.08989355      87.86433417       2.567E-03   6474.84    <-- DIS
      90      87.95327014      87.73147532       2.528E-03   6542.09    <-- DIS
      91      87.81892637      87.60079417       2.490E-03   6609.22    <-- DIS
      92      87.68680060      87.47223277       2.453E-03   6676.34    <-- DIS
      93      87.55683343      87.34573526       2.417E-03   6743.51    <-- DIS
      94      87.42896758      87.22124775       2.382E-03   6810.69    <-- DIS
      95      87.30314781      87.09871820       2.347E-03   6877.93    <-- DIS
      96      87.17932085      86.97809643       2.314E-03   6945.13    <-- DIS
      97      87.05743525      86.85933393       2.281E-03   7012.34    <-- DIS
      98      86.93744137      86.74238389       2.249E-03   7079.54    <-- DIS
      99      86.81929126      86.62720105       2.217E-03   7146.75    <-- DIS
     100      86.70293860      86.51374167       2.187E-03   7213.83    <-- DIS
     101      86.58833863      86.40196346       2.157E-03   7280.93    <-- DIS
     102      86.47544808      86.29182553       2.128E-03   7348.07    <-- DIS
     103      86.36422512      86.18328830       2.099E-03   7415.22    <-- DIS
     104      86.25462928      86.07631350       2.072E-03   7482.44    <-- DIS
     105      86.14662142      85.97086408       2.044E-03   7549.61    <-- DIS
     106      86.04016365      85.86690413       2.018E-03   7616.81    <-- DIS
     107      85.93521929      85.76439894       1.992E-03   7683.98    <-- DIS
     108      85.83175284      85.66331482       1.966E-03   7751.17    <-- DIS
     109      85.72972991      85.56361917       1.941E-03   7818.24    <-- DIS
     110      85.62911717      85.46528037       1.917E-03   7885.37    <-- DIS
     111      85.52988234      85.36826779       1.893E-03   7952.56    <-- DIS
     112      85.43199413      85.27255170       1.870E-03   8019.77    <-- DIS
     113      85.33542220      85.17810329       1.847E-03   8087.05    <-- DIS
     114      85.24013713      85.08489460       1.825E-03   8154.29    <-- DIS
     115      85.14611037      84.99289850       1.803E-03   8221.54    <-- DIS
     116      85.05331425      84.90208866       1.781E-03   8288.78    <-- DIS
     117      84.96172190      84.81243951       1.760E-03   8356.02    <-- DIS
     118      84.87130723      84.72392624       1.740E-03   8423.14    <-- DIS
     119      84.78204493      84.63652475       1.719E-03   8490.26    <-- DIS
     120      84.69391042      84.55021160       1.700E-03   8557.45    <-- DIS
     121      84.60687982      84.46496407       1.680E-03   8624.64    <-- DIS
     122      84.52092994      84.38076003       1.661E-03   8691.91    <-- DIS
     123      84.43603822      84.29757800       1.643E-03   8759.12    <-- DIS
     124      84.35218278      84.21539709       1.624E-03   8826.35    <-- DIS
     125      84.26934232      84.13419698       1.606E-03   8893.56    <-- DIS
     126      84.18749614      84.05395792       1.589E-03   8960.79    <-- DIS
     127      84.10662410      83.97466068       1.571E-03   9027.90    <-- DIS
     128      84.02670664      83.89628658       1.555E-03   9095.02    <-- DIS
     129      83.94772471      83.81881741       1.538E-03   9162.20    <-- DIS
     130      83.86965977      83.74223547       1.522E-03   9229.38    <-- DIS
     131      83.79249379      83.66652352       1.506E-03   9296.63    <-- DIS
     132      83.71620922      83.59166478       1.490E-03   9363.85    <-- DIS
     133      83.64078897      83.51764290       1.474E-03   9431.09    <-- DIS
     134      83.56621641      83.44444196       1.459E-03   9498.31    <-- DIS
     135      83.49247533      83.37204647       1.444E-03   9565.55    <-- DIS
     136      83.41954996      83.30044130       1.430E-03   9632.65    <-- DIS
     137      83.34742491      83.22961175       1.416E-03   9699.77    <-- DIS
     138      83.27608522      83.15954347       1.401E-03   9766.94    <-- DIS
     139      83.20551628      83.09022246       1.388E-03   9834.12    <-- DIS
     140      83.13570388      83.02163511       1.374E-03   9901.34    <-- DIS
     141      83.06663413      82.95376810       1.361E-03   9968.58    <-- DIS
     142      82.99829353      82.88660849       1.347E-03  10035.80    <-- DIS
     143      82.93066889      82.82014361       1.335E-03  10103.01    <-- DIS
     144      82.86374735      82.75436115       1.322E-03  10170.24    <-- DIS
     145      82.79751636      82.68924906       1.309E-03  10237.33    <-- DIS
     146      82.73196370      82.62479560       1.297E-03  10304.44    <-- DIS
     147      82.66707743      82.56098931       1.285E-03  10371.59    <-- DIS
     148      82.60284590      82.49781899       1.273E-03  10438.76    <-- DIS
     149      82.53925773      82.43527374       1.261E-03  10505.95    <-- DIS
     150      82.47630183      82.37334289       1.250E-03  10573.20    <-- DIS
     151      82.41396737      82.31201602       1.239E-03  10640.40    <-- DIS
     152      82.35224377      82.25128296       1.227E-03  10707.59    <-- DIS
     153      82.29112069      82.19113379       1.217E-03  10774.78    <-- DIS
     154      82.23058804      82.13155879       1.206E-03  10842.04    <-- DIS
     155      82.17063598      82.07254850       1.195E-03  10909.13    <-- DIS
     156      82.11125487      82.01409363       1.185E-03  10976.27    <-- DIS
     157      82.05243530      81.95618515       1.174E-03  11043.43    <-- DIS
     158      81.99416808      81.89881419       1.164E-03  11110.61    <-- DIS
     159      81.93644422      81.84197212       1.154E-03  11177.84    <-- DIS
[...]
     639      72.41902894      72.40616510       1.777E-04  43406.05    <-- DIS
     640      72.41127940      72.39844527       1.773E-04  43473.13    <-- DIS
     641      72.40354785      72.39074332       1.769E-04  43540.22    <-- DIS
     642      72.39583421      72.38305918       1.765E-04  43607.37    <-- DIS
     643      72.38813843      72.37539279       1.761E-04  43674.44    <-- DIS
     644      72.38046044      72.36774407       1.757E-04  43741.53    <-- DIS
     645      72.37280018      72.36011297       1.753E-04  43808.69    <-- DIS
     646      72.36515756      72.35249941       1.750E-04  43875.65    <-- DIS
     647      72.35753254      72.34490334       1.746E-04  43942.66    <-- DIS
     648      72.34992504      72.33732469       1.742E-04  44009.78    <-- DIS
     649      72.34233501      72.32976339       1.738E-04  44076.85    <-- DIS
     650      72.33476237      72.32221938       1.734E-04  44143.93    <-- DIS
     651      72.32720706      72.31469260       1.731E-04  44211.03    <-- DIS
     652      72.31966902      72.30718299       1.727E-04  44278.15    <-- DIS
     653      72.31214819      72.29969047       1.723E-04  44345.28    <-- DIS
     654      72.30464450      72.29221499       1.719E-04  44412.43    <-- DIS
     655      72.29715789      72.28475650       1.716E-04  44479.40    <-- DIS
     656      72.28968830      72.27731491       1.712E-04  44546.40    <-- DIS
     657      72.28223566      72.26989018       1.708E-04  44613.47    <-- DIS
     658      72.27479991      72.26248224       1.705E-04  44680.60    <-- DIS
     659      72.26738100      72.25509103       1.701E-04  44747.68    <-- DIS
     660      72.25997885      72.24771649       1.697E-04  44814.78    <-- DIS
     661      72.25259342      72.24035856       1.694E-04  44881.89    <-- DIS
     662      72.24522464      72.23301718       1.690E-04  44949.01    <-- DIS
     663      72.23787244      72.22569229       1.686E-04  45016.14    <-- DIS
     664      72.23053677      72.21838383       1.683E-04  45083.13    <-- DIS
     665      72.22321758      72.21109174       1.679E-04  45150.13    <-- DIS
     666      72.21591479      72.20381596       1.676E-04  45217.19    <-- DIS
     667      72.20862835      72.19655644       1.672E-04  45284.28    <-- DIS
     668      72.20135821      72.18931311       1.669E-04  45351.42    <-- DIS
     669      72.19410430      72.18208592       1.665E-04  45418.51    <-- DIS
     670      72.18686656      72.17487481       1.661E-04  45485.63    <-- DIS
     671      72.17964494      72.16767973       1.658E-04  45552.73    <-- DIS
     672      72.17243939      72.16050060       1.654E-04  45619.85    <-- DIS
     673      72.16524983      72.15333739       1.651E-04  45686.85    <-- DIS
     674      72.15807622      72.14619003       1.648E-04  45753.85    <-- DIS
     675      72.15091850      72.13905847       1.644E-04  45820.89    <-- DIS
     676      72.14377661      72.13194264       1.641E-04  45887.96    <-- DIS
     677      72.13665050      72.12484250       1.637E-04  45955.04    <-- DIS
     678      72.12954011      72.11775798       1.634E-04  46022.18    <-- DIS
     679      72.12244538      72.11068904       1.630E-04  46089.29    <-- DIS
     680      72.11536626      72.10363562       1.627E-04  46156.37    <-- DIS
     681      72.10830270      72.09659766       1.624E-04  46223.48    <-- DIS
     682      72.10125463      72.08957511       1.620E-04  46290.64    <-- DIS
     683      72.09422201      72.08256792       1.617E-04  46357.62    <-- DIS
     684      72.08720478      72.07557603       1.613E-04  46424.69    <-- DIS
     685      72.08020289      72.06859938       1.610E-04  46491.76    <-- DIS
     686      72.07321628      72.06163793       1.607E-04  46558.83    <-- DIS
     687      72.06624490      72.05469162       1.603E-04  46625.93    <-- DIS
     688      72.05928869      72.04776040       1.600E-04  46693.09    <-- DIS
     689      72.05234761      72.04084422       1.597E-04  46760.16    <-- DIS
     690      72.04542160      72.03394302       1.593E-04  46827.26    <-- DIS
     691      72.03851061      72.02705675       1.590E-04  46894.43    <-- DIS
     692      72.03161458      72.02018536       1.587E-04  46961.39    <-- DIS
     693      72.02473346      72.01332879       1.584E-04  47028.39    <-- DIS
     694      72.01786721      72.00648701       1.580E-04  47095.50    <-- DIS
     695      72.01101577      71.99965995       1.577E-04  47162.56    <-- DIS
     696      72.00417908      71.99284756       1.574E-04  47229.63    <-- DIS
     697      71.99735710      71.98604980       1.571E-04  47296.72    <-- DIS
     698      71.99054979      71.97926662       1.568E-04  47363.84    <-- DIS
     699      71.98375707      71.97249796       1.564E-04  47430.94    <-- DIS
     700      71.97697892      71.96574377       1.561E-04  47498.08    <-- DIS
     701      71.97021527      71.95900400       1.558E-04  47565.04    <-- DIS
     702      71.96346608      71.95227861       1.555E-04  47632.03    <-- DIS
     703      71.95673129      71.94556755       1.552E-04  47699.09    <-- DIS
     704      71.95001087      71.93887076       1.549E-04  47766.19    <-- DIS
     705      71.94330475      71.93218821       1.545E-04  47833.25    <-- DIS
     706      71.93661289      71.92551983       1.542E-04  47900.34    <-- DIS
     707      71.92993524      71.91886558       1.539E-04  47967.44    <-- DIS
     708      71.92327176      71.91222542       1.536E-04  48034.54    <-- DIS
     709      71.91662239      71.90559929       1.533E-04  48101.66    <-- DIS
     710      71.90998709      71.89898715       1.530E-04  48168.62    <-- DIS
     711      71.90336581      71.89238895       1.527E-04  48235.60    <-- DIS
     712      71.89675850      71.88580465       1.524E-04  48302.64    <-- DIS
     713      71.89016511      71.87923419       1.521E-04  48369.69    <-- DIS
     714      71.88358560      71.87267753       1.518E-04  48436.80    <-- DIS
     715      71.87701992      71.86613463       1.515E-04  48503.87    <-- DIS
     716      71.87046803      71.85960543       1.512E-04  48570.96    <-- DIS
     717      71.86392987      71.85308990       1.509E-04  48638.04    <-- DIS
     718      71.85740541      71.84658798       1.506E-04  48705.14    <-- DIS
     719      71.85089459      71.84009963       1.503E-04  48772.11    <-- DIS
     720      71.84439737      71.83362480       1.500E-04  48839.09    <-- DIS
     721      71.83791370      71.82716346       1.497E-04  48906.28    <-- DIS
     722      71.83144354      71.82071555       1.494E-04  48972.58    <-- DIS

             <<<      Delta < 1.500E-04  over  3 iterations     >>>
             <<< Disentanglement convergence criteria satisfied >>>

        Final Omega_I    71.82071555 (Ang^2)

 +----------------------------------------------------------------------------+

 Time to disentangle bands  48809.623 (sec)

 Writing checkpoint file LS7_2_9_2.chk... done


 *------------------------------- WANNIERISE ---------------------------------*
 +--------------------------------------------------------------------+<-- CONV
 | Iter  Delta Spread     RMS Gradient      Spread (Ang^2)      Time  |<-- CONV
 +--------------------------------------------------------------------+<-- CONV

 ------------------------------------------------------------------------------
 Initial State
  WF centre and spread    1  (  4.999999, 10.017836,  7.086254 )     1.23366765
  WF centre and spread    2  (  5.000000, 10.031550, 11.374462 )     1.21941079
  WF centre and spread    3  (  4.999996, 11.276262,  3.541792 )     1.21898905
  WF centre and spread    4  (  4.999998, 11.277282,  7.803680 )     1.15708703
  WF centre and spread    5  (  5.000000, 11.301058, 12.072324 )     1.20055225
  WF centre and spread    6  (  5.000002, 11.268615, 16.328618 )     1.21394668
  WF centre and spread    7  (  5.000001, 10.031550,  5.665548 )     1.21941641
  WF centre and spread    8  (  4.999998, 10.017834,  9.953750 )     1.23367717
  WF centre and spread    9  (  5.000000, 12.520454,  2.854374 )     1.15899484
  WF centre and spread   10  (  4.999998, 12.522246,  7.111146 )     1.05766270
  WF centre and spread   11  (  5.000000, 12.537899, 11.350637 )     1.06882359
  WF centre and spread   12  (  5.000001, 12.523262, 15.625999 )     1.18268434
  WF centre and spread   13  (  5.000000, 13.763032,  3.555788 )     1.10595071
  WF centre and spread   14  (  4.999999, 13.764963,  7.809836 )     1.03570408
  WF centre and spread   15  (  5.000002, 13.766004, 12.063722 )     1.08261844
  WF centre and spread   16  (  5.000001, 13.759989, 16.328422 )     1.06638028
  WF centre and spread   17  (  4.999998, 11.268617,  0.711372 )     1.21395090
  WF centre and spread   18  (  5.000001, 11.301059,  4.967683 )     1.20054521
  WF centre and spread   19  (  4.999999, 11.277282,  9.236335 )     1.15710208
  WF centre and spread   20  (  5.000000, 11.276264, 13.498210 )     1.21899118
  WF centre and spread   21  (  5.000000, 12.523261,  1.413997 )     1.18268493
  WF centre and spread   22  (  5.000000, 12.537899,  5.689369 )     1.06882306
  WF centre and spread   23  (  4.999999, 12.522249,  9.928858 )     1.05766995
  WF centre and spread   24  (  4.999998, 12.520454, 14.185623 )     1.15899136
  WF centre and spread   25  (  5.000000, 15.000001,  2.843903 )     1.08786940
  WF centre and spread   26  (  5.000000, 15.000002,  7.100606 )     1.04716781
  WF centre and spread   27  (  5.000001, 15.000000, 11.354791 )     1.06202124
  WF centre and spread   28  (  5.000001, 15.000000, 15.617178 )     1.04670941
  WF centre and spread   29  (  4.999999, 16.236971,  3.555788 )     1.10594836
  WF centre and spread   30  (  5.000001, 16.235038,  7.809837 )     1.03570394
  WF centre and spread   31  (  5.000000, 16.233996, 12.063720 )     1.08261374
  WF centre and spread   32  (  5.000000, 16.240011, 16.328421 )     1.06637981
  WF centre and spread   33  (  5.000001, 13.759991,  0.711572 )     1.06638055
  WF centre and spread   34  (  5.000000, 13.766004,  4.976281 )     1.08261879
  WF centre and spread   35  (  5.000000, 13.764964,  9.230167 )     1.03570526
  WF centre and spread   36  (  5.000000, 13.763032, 13.484213 )     1.10595052
  WF centre and spread   37  (  5.000000, 15.000002,  1.422818 )     1.04670921
  WF centre and spread   38  (  5.000000, 15.000002,  5.685211 )     1.06202247
  WF centre and spread   39  (  5.000000, 15.000000,  9.939397 )     1.04716561
  WF centre and spread   40  (  5.000001, 15.000000, 14.196094 )     1.08787287
  WF centre and spread   41  (  5.000002, 17.479547,  2.854373 )     1.15899250
  WF centre and spread   42  (  5.000000, 17.477755,  7.111146 )     1.05765761
  WF centre and spread   43  (  5.000002, 17.462100, 11.350632 )     1.06881404
  WF centre and spread   44  (  5.000000, 17.476738, 15.625996 )     1.18268521
  WF centre and spread   45  (  5.000000, 18.723738,  3.541792 )     1.21899054
  WF centre and spread   46  (  5.000000, 18.722717,  7.803679 )     1.15707810
  WF centre and spread   47  (  5.000002, 18.698940, 12.072319 )     1.20054069
  WF centre and spread   48  (  5.000000, 18.731384, 16.328620 )     1.21394747
  WF centre and spread   49  (  5.000001, 16.240012,  0.711571 )     1.06637995
  WF centre and spread   50  (  5.000003, 16.233999,  4.976280 )     1.08261682
  WF centre and spread   51  (  5.000001, 16.235036,  9.230167 )     1.03570619
  WF centre and spread   52  (  5.000003, 16.236968, 13.484211 )     1.10594796
  WF centre and spread   53  (  4.999998, 17.476742,  1.413996 )     1.18268365
  WF centre and spread   54  (  5.000001, 17.462103,  5.689369 )     1.06881896
  WF centre and spread   55  (  5.000002, 17.477751,  9.928856 )     1.05766885
  WF centre and spread   56  (  5.000001, 17.479546, 14.185621 )     1.15899377
  WF centre and spread   57  (  5.000000, 19.982162,  7.086254 )     1.23366232
  WF centre and spread   58  (  5.000001, 19.968448, 11.374458 )     1.21939186
  WF centre and spread   59  (  4.999999, 18.731384,  0.711368 )     1.21394332
  WF centre and spread   60  (  4.999999, 18.698942,  4.967682 )     1.20054403
  WF centre and spread   61  (  5.000002, 18.722719,  9.236332 )     1.15709707
  WF centre and spread   62  (  4.999999, 18.723734, 13.498204 )     1.21899131
  WF centre and spread   63  (  5.000000, 19.968451,  5.665546 )     1.21941420
  WF centre and spread   64  (  5.000001, 19.982163,  9.953749 )     1.23367370
  Sum of centres and spreads (320.000012,960.000014,545.280018 )    72.49740379

      0     0.725E+02     0.0000000000       72.4974037926   49025.16  <-- CONV
        O_D=      0.0002314 O_OD=      0.6764569 O_TOT=     72.4974038 <-- SPRD
 ------------------------------------------------------------------------------
 Final State
  WF centre and spread    1  (  4.999999, 10.017836,  7.086254 )     1.23366765
  WF centre and spread    2  (  5.000000, 10.031550, 11.374462 )     1.21941079
  WF centre and spread    3  (  4.999996, 11.276262,  3.541792 )     1.21898905
  WF centre and spread    4  (  4.999998, 11.277282,  7.803680 )     1.15708703
  WF centre and spread    5  (  5.000000, 11.301058, 12.072324 )     1.20055225
  WF centre and spread    6  (  5.000002, 11.268615, 16.328618 )     1.21394668
  WF centre and spread    7  (  5.000001, 10.031550,  5.665548 )     1.21941641
  WF centre and spread    8  (  4.999998, 10.017834,  9.953750 )     1.23367717
  WF centre and spread    9  (  5.000000, 12.520454,  2.854374 )     1.15899484
  WF centre and spread   10  (  4.999998, 12.522246,  7.111146 )     1.05766270
  WF centre and spread   11  (  5.000000, 12.537899, 11.350637 )     1.06882359
  WF centre and spread   12  (  5.000001, 12.523262, 15.625999 )     1.18268434
  WF centre and spread   13  (  5.000000, 13.763032,  3.555788 )     1.10595071
  WF centre and spread   14  (  4.999999, 13.764963,  7.809836 )     1.03570408
  WF centre and spread   15  (  5.000002, 13.766004, 12.063722 )     1.08261844
  WF centre and spread   16  (  5.000001, 13.759989, 16.328422 )     1.06638028
  WF centre and spread   17  (  4.999998, 11.268617,  0.711372 )     1.21395090
  WF centre and spread   18  (  5.000001, 11.301059,  4.967683 )     1.20054521
  WF centre and spread   19  (  4.999999, 11.277282,  9.236335 )     1.15710208
  WF centre and spread   20  (  5.000000, 11.276264, 13.498210 )     1.21899118
  WF centre and spread   21  (  5.000000, 12.523261,  1.413997 )     1.18268493
  WF centre and spread   22  (  5.000000, 12.537899,  5.689369 )     1.06882306
  WF centre and spread   23  (  4.999999, 12.522249,  9.928858 )     1.05766995
  WF centre and spread   24  (  4.999998, 12.520454, 14.185623 )     1.15899136
  WF centre and spread   25  (  5.000000, 15.000001,  2.843903 )     1.08786940
  WF centre and spread   26  (  5.000000, 15.000002,  7.100606 )     1.04716781
  WF centre and spread   27  (  5.000001, 15.000000, 11.354791 )     1.06202124
  WF centre and spread   28  (  5.000001, 15.000000, 15.617178 )     1.04670941
  WF centre and spread   29  (  4.999999, 16.236971,  3.555788 )     1.10594836
  WF centre and spread   30  (  5.000001, 16.235038,  7.809837 )     1.03570394
  WF centre and spread   31  (  5.000000, 16.233996, 12.063720 )     1.08261374
  WF centre and spread   32  (  5.000000, 16.240011, 16.328421 )     1.06637981
  WF centre and spread   33  (  5.000001, 13.759991,  0.711572 )     1.06638055
  WF centre and spread   34  (  5.000000, 13.766004,  4.976281 )     1.08261879
  WF centre and spread   35  (  5.000000, 13.764964,  9.230167 )     1.03570526
  WF centre and spread   36  (  5.000000, 13.763032, 13.484213 )     1.10595052
  WF centre and spread   37  (  5.000000, 15.000002,  1.422818 )     1.04670921
  WF centre and spread   38  (  5.000000, 15.000002,  5.685211 )     1.06202247
  WF centre and spread   39  (  5.000000, 15.000000,  9.939397 )     1.04716561
  WF centre and spread   40  (  5.000001, 15.000000, 14.196094 )     1.08787287
  WF centre and spread   41  (  5.000002, 17.479547,  2.854373 )     1.15899250
  WF centre and spread   42  (  5.000000, 17.477755,  7.111146 )     1.05765761
  WF centre and spread   43  (  5.000002, 17.462100, 11.350632 )     1.06881404
  WF centre and spread   44  (  5.000000, 17.476738, 15.625996 )     1.18268521
  WF centre and spread   45  (  5.000000, 18.723738,  3.541792 )     1.21899054
  WF centre and spread   46  (  5.000000, 18.722717,  7.803679 )     1.15707810
  WF centre and spread   47  (  5.000002, 18.698940, 12.072319 )     1.20054069
  WF centre and spread   48  (  5.000000, 18.731384, 16.328620 )     1.21394747
  WF centre and spread   49  (  5.000001, 16.240012,  0.711571 )     1.06637995
  WF centre and spread   50  (  5.000003, 16.233999,  4.976280 )     1.08261682
  WF centre and spread   51  (  5.000001, 16.235036,  9.230167 )     1.03570619
  WF centre and spread   52  (  5.000003, 16.236968, 13.484211 )     1.10594796
  WF centre and spread   53  (  4.999998, 17.476742,  1.413996 )     1.18268365
  WF centre and spread   54  (  5.000001, 17.462103,  5.689369 )     1.06881896
  WF centre and spread   55  (  5.000002, 17.477751,  9.928856 )     1.05766885
  WF centre and spread   56  (  5.000001, 17.479546, 14.185621 )     1.15899377
  WF centre and spread   57  (  5.000000, 19.982162,  7.086254 )     1.23366232
  WF centre and spread   58  (  5.000001, 19.968448, 11.374458 )     1.21939186
  WF centre and spread   59  (  4.999999, 18.731384,  0.711368 )     1.21394332
  WF centre and spread   60  (  4.999999, 18.698942,  4.967682 )     1.20054403
  WF centre and spread   61  (  5.000002, 18.722719,  9.236332 )     1.15709707
  WF centre and spread   62  (  4.999999, 18.723734, 13.498204 )     1.21899131
  WF centre and spread   63  (  5.000000, 19.968451,  5.665546 )     1.21941420
  WF centre and spread   64  (  5.000001, 19.982163,  9.953749 )     1.23367370
  Sum of centres and spreads (320.000012,960.000014,545.280018 )    72.49740379

         Spreads (Ang^2)       Omega I      =    71.820715548
        ================       Omega D      =     0.000231383
                               Omega OD     =     0.676456862
    Final Spread (Ang^2)       Omega Total  =    72.497403793
 ------------------------------------------------------------------------------

 Wannier centres written to file LS7_2_9_2_centres.xyz
 Time for wannierise            0.355 (sec)

 Writing checkpoint file LS7_2_9_2.chk... done

 *---------------------------------------------------------------------------*
 |                               PLOTTING                                    |
 *---------------------------------------------------------------------------*


 Calculating interpolated band-structure

 Time to calculate interpolated band structure       0.207 (sec)

 Time for plotting              5.113 (sec)
 Total Execution Time       49030.790 (sec)

 *===========================================================================*
 |                             TIMING INFORMATION                            |
 *===========================================================================*
 |    Tag                                                Ncalls      Time (s)|
 |---------------------------------------------------------------------------|
 |kmesh: get                                        :         1         2.102|
 |overlap: read                                     :         1       213.061|
 |dis: main                                         :         1     48809.623|
 |wann: main                                        :         1         0.355|
 |plot: main                                        :         1         5.113|
 *---------------------------------------------------------------------------*

 All done: wannier90 exiting
