
     Program PWSCF v.6.3 starts on 28Apr2021 at 22:23:48 

     This program is part of the open-source Quantum ESPRESSO suite
     for quantum simulation of materials; please cite
         "P. Giannozzi et al., J. Phys.:Condens. Matter 21 395502 (2009);
         "P. Giannozzi et al., J. Phys.:Condens. Matter 29 465901 (2017);
          URL http://www.quantum-espresso.org", 
     in publications or presentations arising from this work. More details at
     http://www.quantum-espresso.org/quote

     Parallel version (MPI), running on    16 processors
     R & G space division:  proc/nbgrp/npool/nimage =      16
     Waiting for input...
     Reading input from standard input
     Message from routine read_cards :
     DEPRECATED: no units specified in CELL_PARAMETERS card

     Current dimensions of program PWSCF are:
     Max number of different atomic species (ntypx) = 10
     Max number of k-points (npk) =  40000
     Max angular momentum in pseudopotentials (lmaxx) =  3

     Atomic positions and unit cell read from directory:
     /home/zfwang/scratch/GNRDATASET/AGNR/C_2Z_1A_W9/C_2Z_1A_W9.save/


     Subspace diagonalization in iterative solution of the eigenvalue problem:
     a serial algorithm will be used


     Parallelization info
     --------------------
     sticks:   dense  smooth     PW     G-vecs:    dense   smooth      PW
     Min        2556     852    225               199304    38350    5232
     Max        2557     853    226               199305    38353    5233
     Sum       40909   13645   3615              3188877   613615   83713



     bravais-lattice index     =            0
     lattice parameter (alat)  =       1.8897  a.u.
     unit-cell volume          =   17957.3181 (a.u.)^3
     number of atoms/cell      =           44
     number of atomic types    =            2
     number of electrons       =       152.00
     number of Kohn-Sham states=          500
     kinetic-energy cutoff     =      40.0000  Ry
     charge density cutoff     =     480.0000  Ry
     Exchange-correlation      = PBE ( 1  4  3  4 0 0)

     celldm(1)=  18.897261  celldm(2)=   3.000000  celldm(3)=   0.887000
     celldm(4)=   0.000000  celldm(5)=   0.000000  celldm(6)=   0.000000

     crystal axes: (cart. coord. in units of alat)
               a(1) = (  10.000000   0.000000   0.000000 )  
               a(2) = (   0.000000  30.000000   0.000000 )  
               a(3) = (   0.000000   0.000000   8.870000 )  

     reciprocal axes: (cart. coord. in units 2 pi/alat)
               b(1) = (  0.100000  0.000000  0.000000 )  
               b(2) = (  0.000000  0.033333  0.000000 )  
               b(3) = (  0.000000  0.000000  0.112740 )  


     PseudoPot. # 1 for C  read from file:
     /home/zfwang/hp_home/MySoftware/qe-6.3/pseudo/C.pbe-n-rrkjus_psl.0.1.UPF
     MD5 check sum: fff530ed632a789b3b184014e67dd7f1
     Pseudo is Ultrasoft + core correction, Zval =  4.0
     Generated using "atomic" code by A. Dal Corso v.5.0.2 svn rev. 9415
     Using radial grid of 1073 points,  4 beta functions with: 
                l(1) =   0
                l(2) =   0
                l(3) =   1
                l(4) =   1
     Q(r) pseudized with 0 coefficients 


     PseudoPot. # 2 for H  read from file:
     /home/zfwang/hp_home/MySoftware/qe-6.3/pseudo/H.pbe-rrkjus_psl.0.1.UPF
     MD5 check sum: e164a6907b691c6980f16942be34de84
     Pseudo is Ultrasoft, Zval =  1.0
     Generated using "atomic" code by A. Dal Corso v.5.0.2 svn rev. 9415
     Using radial grid of  929 points,  2 beta functions with: 
                l(1) =   0
                l(2) =   0
     Q(r) pseudized with 0 coefficients 


     atomic species   valence    mass     pseudopotential
        C              4.00    12.01070     C ( 1.00)
        H              1.00     1.00794     H ( 1.00)

     No symmetry found



   Cartesian axes

     site n.     atom                  positions (alat units)
         1           C   tau(   1) = (   5.0000006   9.7752721   4.7580070  )
         2           C   tau(   2) = (   5.0000009  10.9812026   8.8728200  )
         3           C   tau(   3) = (   5.0000008  10.7480018   3.7213419  )
         4           C   tau(   4) = (   5.0000008  11.9170436   7.8475909  )
         5           C   tau(   5) = (   5.0000011  12.1369024   4.0814878  )
         6           C   tau(   6) = (   5.0000011  13.3179565   8.1826919  )
         7           C   tau(   7) = (   5.0000004  10.1525136   6.0709533  )
         8           C   tau(   8) = (   5.0000008  10.3853213   2.3757500  )
         9           C   tau(   9) = (   5.0000005  11.5219419   6.4582309  )
        10           C   tau(  10) = (   5.0000010  13.1254601   3.0661942  )
        11           C   tau(  11) = (   5.0000012  14.3055293   7.1637479  )
        12           C   tau(  12) = (   5.0000007  14.5114570   3.4099649  )
        13           C   tau(  13) = (   5.0000006  15.6944234   7.5059464  )
        14           C   tau(  14) = (   5.0000010  11.3499238   1.3587974  )
        15           C   tau(  15) = (   5.0000010  12.5164954   5.4535742  )
        16           C   tau(  16) = (   5.0000010  12.7413768   1.7034415  )
        17           C   tau(  17) = (   5.0000009  13.9109729   5.7973633  )
        18           C   tau(  18) = (   5.0000003  15.4884683   2.3897407  )
        19           C   tau(  19) = (   5.0000001  16.6819678   6.4870060  )
        20           C   tau(  20) = (   4.9999997  16.8744883   2.7335170  )
        21           C   tau(  21) = (   4.9999996  18.0828684   6.8220569  )
        22           C   tau(  22) = (   5.0000009  13.7170588   0.6747544  )
        23           C   tau(  23) = (   5.0000004  14.8948034   4.7823057  )
        24           C   tau(  24) = (   5.0000007  15.1051352   1.0174192  )
        25           C   tau(  25) = (   4.9999999  16.2828720   5.1249065  )
        26           C   tau(  26) = (   4.9999994  17.8629992   1.7181398  )
        27           C   tau(  27) = (   4.9999992  19.0186848   5.7969199  )
        28           C   tau(  28) = (   4.9999980  19.2519537   2.0783587  )
        29           C   tau(  29) = (   5.0000007  16.0889840   0.0023096  )
        30           C   tau(  30) = (   4.9999996  17.2585516   4.0962860  )
        31           C   tau(  31) = (   5.0000001  18.4780092   8.2113862  )
        32           C   tau(  32) = (   5.0000003  17.4834436   0.3461489  )
        33           C   tau(  33) = (   4.9999991  18.6500625   4.4408412  )
        34           C   tau(  34) = (   4.9999996  19.8474237   8.5988879  )
        35           C   tau(  35) = (   4.9999979  20.2245707   1.0414907  )
        36           C   tau(  36) = (   4.9999977  19.6145781   3.4239471  )
        37           H   tau(  37) = (   5.0000000   8.7190370   4.4840686  )
        38           H   tau(  38) = (   5.0000011   9.9156756   8.6507910  )
        39           H   tau(  39) = (   5.0000001   9.3770112   6.8335678  )
        40           H   tau(  40) = (   5.0000004   9.3270767   2.1059792  )
        41           H   tau(  41) = (   4.9999993  20.0841898   6.0189933  )
        42           H   tau(  42) = (   5.0000008  20.6229520   7.8360945  )
        43           H   tau(  43) = (   4.9999963  21.2809167   1.3156741  )
        44           H   tau(  44) = (   4.9999960  20.6728943   3.6936503  )

     number of k points=    26  Marzari-Vanderbilt smearing, width (Ry)=  0.0100
                       cart. coord. in units 2pi/alat
        k(    1) = (   0.0000000   0.0000000   0.0000000), wk =   0.0400000
        k(    2) = (   0.0000000   0.0000000   0.0022548), wk =   0.0800000
        k(    3) = (   0.0000000   0.0000000   0.0045096), wk =   0.0800000
        k(    4) = (   0.0000000   0.0000000   0.0067644), wk =   0.0800000
        k(    5) = (   0.0000000   0.0000000   0.0090192), wk =   0.0800000
        k(    6) = (   0.0000000   0.0000000   0.0112740), wk =   0.0800000
        k(    7) = (   0.0000000   0.0000000   0.0135287), wk =   0.0800000
        k(    8) = (   0.0000000   0.0000000   0.0157835), wk =   0.0800000
        k(    9) = (   0.0000000   0.0000000   0.0180383), wk =   0.0800000
        k(   10) = (   0.0000000   0.0000000   0.0202931), wk =   0.0800000
        k(   11) = (   0.0000000   0.0000000   0.0225479), wk =   0.0800000
        k(   12) = (   0.0000000   0.0000000   0.0248027), wk =   0.0800000
        k(   13) = (   0.0000000   0.0000000   0.0270575), wk =   0.0800000
        k(   14) = (   0.0000000   0.0000000   0.0293123), wk =   0.0800000
        k(   15) = (   0.0000000   0.0000000   0.0315671), wk =   0.0800000
        k(   16) = (   0.0000000   0.0000000   0.0338219), wk =   0.0800000
        k(   17) = (   0.0000000   0.0000000   0.0360767), wk =   0.0800000
        k(   18) = (   0.0000000   0.0000000   0.0383315), wk =   0.0800000
        k(   19) = (   0.0000000   0.0000000   0.0405862), wk =   0.0800000
        k(   20) = (   0.0000000   0.0000000   0.0428410), wk =   0.0800000
        k(   21) = (   0.0000000   0.0000000   0.0450958), wk =   0.0800000
        k(   22) = (   0.0000000   0.0000000   0.0473506), wk =   0.0800000
        k(   23) = (   0.0000000   0.0000000   0.0496054), wk =   0.0800000
        k(   24) = (   0.0000000   0.0000000   0.0518602), wk =   0.0800000
        k(   25) = (   0.0000000   0.0000000   0.0541150), wk =   0.0800000
        k(   26) = (   0.0000000   0.0000000  -0.0563698), wk =   0.0400000

     Dense  grid:  3188877 G-vectors     FFT dimensions: ( 135, 400, 120)

     Smooth grid:   613615 G-vectors     FFT dimensions: (  80, 240,  72)

     Estimated max dynamical RAM per process >     745.84 MB

     Estimated total dynamical RAM >      11.65 GB

     The potential is recalculated from file :
     /home/zfwang/scratch/GNRDATASET/AGNR/C_2Z_1A_W9/C_2Z_1A_W9.save/charge-density.dat


     negative rho (up, down):  2.066E-04 0.000E+00
     Starting wfcs are  152 randomized atomic wfcs +  348 random wfcs

     Band Structure Calculation
     Davidson diagonalization with overlap

     ethr =  6.58E-09,  avg # of iterations = 18.4

     total cpu time spent up to now is     4924.0 secs

     End of band structure calculation

          k = 0.0000 0.0000 0.0000 ( 76717 PWs)   bands (ev):

   -21.7681 -21.1676 -20.4318 -20.4217 -20.2594 -19.8237 -19.7703 -19.2409
   -18.8031 -18.7019 -18.0574 -17.5402 -17.2618 -16.8480 -16.7240 -16.5698
   -16.3420 -15.7095 -15.6361 -15.0642 -14.7449 -14.6524 -14.5538 -14.4490
   -13.9233 -13.3706 -12.8262 -12.5424 -11.8668 -11.7860 -11.6924 -11.0409
   -10.9439 -10.5452 -10.4861 -10.3967 -10.3516 -10.2412 -10.0338  -9.9241
    -9.8437  -9.6182  -9.6055  -9.3261  -9.2964  -9.1648  -9.1382  -8.7677
    -8.6413  -8.3644  -8.3286  -8.2623  -8.2523  -8.1343  -8.0742  -7.9907
    -7.6937  -7.6543  -7.6518  -7.5772  -7.5500  -6.9841  -6.8974  -6.6863
    -6.5192  -6.4336  -5.8947  -5.8195  -5.7474  -5.2544  -5.0872  -4.6655
    -4.6483  -4.2159  -4.0236  -2.6874  -2.4226  -1.0221  -0.8490  -0.7370
    -0.6181  -0.1869   0.1443   0.5961   0.6052   0.6517   0.9005   1.2572
     1.3378   1.3968   1.7233   1.7853   2.1021   2.1795   2.1927   2.1928
     2.2695   2.2909   2.3633   2.3719   2.4848   2.5467   2.5726   2.7209
     2.7243   2.7443   2.8290   2.9842   3.0959   3.1154   3.2389   3.2576
     3.3146   3.3152   3.3750   3.4268   3.4472   3.5792   3.5901   3.6005
     3.6368   3.7642   3.7932   3.9108   3.9351   3.9750   4.0896   4.1084
     4.1087   4.1571   4.2229   4.2444   4.3912   4.3988   4.4382   4.4482
     4.4993   4.5567   4.5675   4.5866   4.6213   4.6601   4.7146   4.7720
     4.7733   4.8032   4.8630   4.8985   4.9001   4.9909   5.0196   5.0507
     5.0961   5.1926   5.2101   5.2546   5.3035   5.3081   5.3166   5.4687
     5.4713   5.4755   5.5364   5.6535   5.6582   5.6657   5.6676   5.6980
     5.8009   5.8937   5.9159   5.9858   6.0077   6.0213   6.0500   6.0667
     6.1286   6.1361   6.3040   6.3166   6.4234   6.4277   6.4311   6.5061
     6.5632   6.5734   6.6286   6.6386   6.6580   6.6699   6.6876   6.7432
     6.8091   6.8965   6.9017   6.9096   6.9901   7.0036   7.0170   7.0272
     7.1035   7.1362   7.2138   7.2559   7.2721   7.3118   7.4032   7.4838
     7.5112   7.5795   7.7249   7.7428   7.7648   7.8243   7.8396   7.8950
     7.9204   7.9478   7.9489   8.0544   8.1141   8.1157   8.1834   8.1929
     8.2053   8.2483   8.2495   8.2644   8.2761   8.3410   8.3999   8.4786
     8.4788   8.5043   8.5181   8.5372   8.5765   8.5943   8.6120   8.6687
     8.6925   8.7294   8.7352   8.7828   8.7923   8.8153   8.8213   8.8471
     8.8863   8.9204   8.9206   8.9654   8.9833   9.0094   9.0266   9.0379
     9.1389   9.1465   9.1791   9.1853   9.1866   9.1940   9.2829   9.2837
     9.3206   9.4003   9.4008   9.4290   9.4568   9.5784   9.5857   9.6121
     9.6212   9.6610   9.6710   9.7310   9.7340   9.7792   9.7914   9.8306
     9.8623   9.8861   9.8895   9.9558   9.9953  10.0080  10.0369  10.0599
    10.1034  10.1400  10.1488  10.1549  10.1825  10.2118  10.2416  10.2628
    10.2637  10.2679  10.2700  10.2816  10.3239  10.3422  10.3772  10.4266
    10.4351  10.4398  10.4527  10.5633  10.5634  10.5812  10.5935  10.6001
    10.6419  10.6869  10.7028  10.7294  10.7445  10.7915  10.8017  10.8046
    10.8165  10.8460  10.8614  10.8621  10.9170  10.9304  10.9354  10.9482
    10.9871  10.9925  11.0198  11.0572  11.0761  11.1096  11.1793  11.1932
    11.2061  11.2340  11.2621  11.2828  11.3441  11.3610  11.4804  11.4855
    11.4901  11.5053  11.5925  11.6016  11.6555  11.6744  11.7033  11.7423
    11.7476  11.7531  11.8241  11.8524  11.9005  11.9031  11.9352  11.9689
    11.9746  12.0057  12.0309  12.0737  12.1159  12.1592  12.1916  12.2673
    12.2920  12.3571  12.3811  12.3940  12.4774  12.4825  12.5128  12.5583
    12.6342  12.6365  12.6372  12.6709  12.7062  12.7162  12.7245  12.7428
    12.7734  12.7834  12.8033  12.8757  12.9426  12.9451  12.9659  13.0774
    13.1179  13.1742  13.1851  13.2379  13.2686  13.3329  13.4112  13.4754
    13.4886  13.5343  13.5858  13.6018  13.6168  13.6377  13.6755  13.6878
    13.6939  13.7262  13.7478  13.7669  13.8096  13.8158  13.8639  13.8777
    13.9325  13.9735  13.9931  14.0092  14.0288  14.0463  14.0899  14.1005
    14.1698  14.2480  14.2566  14.2708  14.3344  14.3401  14.3706  14.3861
    14.4531  14.4597  14.4759  14.5284  14.5463  14.5516  14.5734  14.5981
    14.6175  14.6776  14.6829  14.6934  14.7104  14.7120  14.7574  14.8054
    14.8253  14.8465  14.9693  14.9757  14.9836  15.0244  15.0690  15.0764
    15.0790  15.1166  15.1383  15.1797  15.1851  15.2178  15.2715  15.2815
    15.3278  15.3287  15.3911  15.4416  15.4565  15.4752  15.4841  15.5021
    15.5133  15.5849  15.6151  15.6261  15.6953  15.7011  15.7031  15.7183
    15.7529  15.7950  15.8273  15.8509  15.8535  15.8798  15.8948  15.9093
    15.9477  15.9831  15.9990  16.0137  16.0671  16.0786  16.1243  16.1515
    16.1583  16.1657  16.2088  16.2148

          k = 0.0000 0.0000 0.0023 ( 76709 PWs)   bands (ev):

   -21.7675 -21.1671 -20.4768 -20.3782 -20.2570 -19.8522 -19.7402 -19.2432
   -18.8111 -18.6901 -18.0597 -17.5397 -17.2591 -16.8497 -16.7523 -16.5552
   -16.3383 -15.7282 -15.6092 -15.0709 -14.7437 -14.6517 -14.5614 -14.4329
   -13.9260 -13.3661 -12.8248 -12.5459 -11.8876 -11.7846 -11.6687 -11.0560
   -10.9384 -10.5846 -10.4663 -10.4016 -10.3568 -10.2080 -10.0772  -9.8787
    -9.8430  -9.7004  -9.5227  -9.3393  -9.2823  -9.1642  -9.1408  -8.7675
    -8.6399  -8.3639  -8.3303  -8.3134  -8.2092  -8.1250  -8.1055  -7.9612
    -7.7194  -7.6599  -7.6227  -7.6189  -7.5031  -6.9861  -6.8978  -6.6876
    -6.5360  -6.4133  -5.8965  -5.8205  -5.7495  -5.2587  -5.0805  -4.6663
    -4.6532  -4.2241  -4.0189  -2.6888  -2.4204  -1.0292  -0.8494  -0.7206
    -0.6166  -0.1894   0.1413   0.5969   0.6099   0.6525   0.9012   1.2580
     1.3340   1.3976   1.7210   1.7857   2.1018   2.1564   2.1820   2.2142
     2.2608   2.2769   2.3611   2.4049   2.4966   2.5475   2.5733   2.6590
     2.7306   2.8033   2.8288   2.9845   3.0361   3.1689   3.1816   3.2930
     3.3160   3.3215   3.3757   3.4269   3.4478   3.5327   3.6051   3.6233
     3.6647   3.7584   3.7920   3.8601   3.9535   3.9818   4.0830   4.1142
     4.1355   4.1491   4.2010   4.2886   4.3277   4.3723   4.4506   4.4917
     4.4946   4.5146   4.5773   4.5778   4.6411   4.6491   4.7389   4.7729
     4.7739   4.8234   4.8524   4.8690   4.9673   4.9848   5.0202   5.0567
     5.0945   5.1610   5.2099   5.2353   5.2822   5.3360   5.3728   5.4051
     5.4322   5.5418   5.5699   5.5952   5.6457   5.6780   5.6943   5.7263
     5.8015   5.8864   5.9255   5.9846   6.0017   6.0216   6.0318   6.0885
     6.1294   6.1433   6.2814   6.3285   6.4139   6.4145   6.4354   6.5083
     6.5415   6.5702   6.6331   6.6533   6.6538   6.6792   6.6990   6.7500
     6.8192   6.8940   6.9008   6.9222   6.9544   6.9921   7.0190   7.0492
     7.1142   7.1322   7.2175   7.2561   7.2731   7.3365   7.4072   7.4768
     7.5118   7.5797   7.7096   7.7448   7.7581   7.8093   7.8119   7.9084
     7.9196   7.9528   7.9682   8.0359   8.0807   8.1147   8.1633   8.1878
     8.2033   8.2336   8.2659   8.2708   8.3209   8.3792   8.3977   8.4588
     8.4733   8.4789   8.4814   8.5396   8.5879   8.5943   8.6105   8.6485
     8.6887   8.6933   8.7365   8.7786   8.7999   8.8250   8.8362   8.8455
     8.9052   8.9222   8.9443   8.9622   8.9765   9.0047   9.0111   9.0799
     9.1184   9.1277   9.1305   9.1519   9.2315   9.2464   9.2858   9.3048
     9.3206   9.3579   9.4076   9.4639   9.4854   9.5560   9.5697   9.5969
     9.6343   9.6483   9.6723   9.6827   9.7292   9.7805   9.8102   9.8497
     9.8857   9.8920   9.9072   9.9471   9.9726   9.9748  10.0583  10.0716
    10.0806  10.1150  10.1209  10.1679  10.1835  10.1887  10.2048  10.2131
    10.2487  10.2510  10.3067  10.3140  10.3536  10.3806  10.3931  10.4148
    10.4548  10.4862  10.5148  10.5323  10.5370  10.5623  10.5754  10.6327
    10.6381  10.6503  10.6905  10.7102  10.7312  10.7540  10.7807  10.8313
    10.8335  10.8518  10.8638  10.8714  10.8925  10.9294  10.9510  10.9717
    10.9783  11.0220  11.0232  11.0676  11.1107  11.1312  11.1885  11.1930
    11.2070  11.2346  11.2605  11.3069  11.3541  11.3668  11.4699  11.4722
    11.4928  11.5022  11.5917  11.6171  11.6493  11.6517  11.6776  11.7373
    11.7650  11.7740  11.8258  11.8362  11.8947  11.8953  11.9126  11.9399
    12.0080  12.0450  12.0832  12.0848  12.1216  12.1439  12.2075  12.2592
    12.2952  12.3402  12.3829  12.3942  12.4767  12.4823  12.5129  12.5753
    12.5940  12.6208  12.6337  12.6454  12.6747  12.6996  12.7381  12.7471
    12.7677  12.8436  12.8584  12.8658  12.9242  12.9619  12.9860  13.1051
    13.1172  13.1449  13.1793  13.2666  13.2670  13.3233  13.4225  13.4319
    13.4764  13.5405  13.5779  13.6040  13.6071  13.6514  13.6528  13.6828
    13.7040  13.7295  13.7558  13.7697  13.7905  13.8379  13.8648  13.8658
    13.9646  13.9687  13.9800  14.0112  14.0323  14.0470  14.0896  14.1009
    14.1671  14.2222  14.2585  14.2617  14.3435  14.3591  14.3696  14.3805
    14.4238  14.4486  14.4799  14.4860  14.5153  14.5730  14.5882  14.6341
    14.6468  14.6510  14.6842  14.6920  14.6956  14.7174  14.7701  14.8007
    14.8279  14.8504  14.9587  14.9590  15.0178  15.0190  15.0581  15.0755
    15.0774  15.1048  15.1304  15.1752  15.2056  15.2438  15.2929  15.2951
    15.3230  15.3570  15.3917  15.4229  15.4563  15.4862  15.4974  15.5036
    15.5127  15.5885  15.6165  15.6219  15.6815  15.6901  15.7349  15.7414
    15.7415  15.7819  15.8124  15.8186  15.8546  15.8618  15.8880  15.9451
    15.9661  15.9756  16.0231  16.0303  16.0600  16.0607  16.0896  16.1229
    16.1461  16.1967  16.2093  16.2252

          k = 0.0000 0.0000 0.0045 ( 76729 PWs)   bands (ev):

   -21.7659 -21.1655 -20.5266 -20.3356 -20.2471 -19.8957 -19.6921 -19.2502
   -18.8281 -18.6620 -18.0662 -17.5384 -17.2511 -16.8568 -16.8119 -16.5379
   -16.3244 -15.7545 -15.5587 -15.0881 -14.7421 -14.6592 -14.5615 -14.3980
   -13.9334 -13.3528 -12.8209 -12.5563 -11.9336 -11.7775 -11.6170 -11.0944
   -10.9286 -10.6458 -10.4972 -10.3738 -10.3495 -10.1634 -10.1241  -9.8411
    -9.8054  -9.7848  -9.4365  -9.3575  -9.2596  -9.1623  -9.1479  -8.7670
    -8.6358  -8.3710  -8.3630  -8.3357  -8.1819  -8.1595  -8.0910  -7.9139
    -7.7564  -7.6779  -7.6619  -7.5740  -7.4437  -6.9923  -6.8992  -6.6918
    -6.5666  -6.3723  -5.9017  -5.8236  -5.7554  -5.2695  -5.0625  -4.6758
    -4.6604  -4.2465  -4.0071  -2.6932  -2.4136  -1.0474  -0.8459  -0.6795
    -0.6117  -0.1968   0.1326   0.5990   0.6235   0.6546   0.9034   1.2602
     1.3225   1.3998   1.7144   1.7867   2.0991   2.1311   2.1557   2.2093
     2.2312   2.3018   2.3612   2.4585   2.5265   2.5497   2.5720   2.5955
     2.7361   2.8281   2.8759   2.9681   2.9853   3.1065   3.2341   3.2414
     3.3285   3.3772   3.3865   3.4263   3.4480   3.4860   3.6283   3.6341
     3.7245   3.7406   3.7923   3.7990   3.9174   4.0125   4.0757   4.1283
     4.1376   4.1910   4.2015   4.2601   4.3016   4.3496   4.4089   4.4263
     4.5059   4.5642   4.5760   4.6027   4.6035   4.7084   4.7218   4.7817
     4.7991   4.8253   4.8392   4.9370   4.9721   5.0223   5.0420   5.0550
     5.0821   5.1244   5.1913   5.2063   5.2954   5.3328   5.3763   5.4004
     5.4426   5.5156   5.6027   5.6253   5.6472   5.6828   5.6856   5.7904
     5.7976   5.8912   5.9320   5.9722   5.9964   6.0187   6.0227   6.1135
     6.1315   6.1566   6.2581   6.3222   6.3884   6.3980   6.4345   6.4943
     6.5168   6.5859   6.6339   6.6387   6.6484   6.7260   6.7326   6.7663
     6.8371   6.8781   6.8964   6.9311   6.9531   6.9726   7.0226   7.0447
     7.1121   7.1691   7.2186   7.2570   7.2937   7.3816   7.4192   7.4624
     7.5139   7.5799   7.6861   7.7010   7.7652   7.7689   7.7785   7.8657
     7.9425   7.9559   7.9893   8.0133   8.0501   8.1167   8.1680   8.1710
     8.1887   8.2295   8.2639   8.2788   8.3595   8.3817   8.3933   8.4325
     8.4534   8.4537   8.4901   8.4987   8.5554   8.5918   8.5995   8.6480
     8.6789   8.7036   8.7400   8.7701   8.7867   8.7905   8.8385   8.8497
     8.8870   8.9390   8.9415   8.9738   9.0086   9.0268   9.0423   9.0627
     9.0821   9.1169   9.1485   9.1679   9.2368   9.2502   9.2859   9.3039
     9.3265   9.3842   9.4346   9.4976   9.5064   9.5069   9.5488   9.5985
     9.6185   9.6229   9.6752   9.6910   9.7192   9.7461   9.7875   9.8549
     9.8961   9.9032   9.9349   9.9492   9.9530   9.9761   9.9854  10.0429
    10.0732  10.0920  10.1293  10.1367  10.1573  10.1852  10.2030  10.2187
    10.2287  10.2507  10.2847  10.3219  10.3606  10.4186  10.4546  10.4665
    10.4687  10.4943  10.5080  10.5269  10.5328  10.5645  10.6077  10.6155
    10.6311  10.6469  10.6469  10.6898  10.7124  10.7494  10.7594  10.7768
    10.7979  10.8552  10.8662  10.8820  10.9244  10.9713  10.9739  11.0045
    11.0123  11.0603  11.0616  11.0918  11.1127  11.1608  11.1867  11.2104
    11.2311  11.2441  11.3188  11.3215  11.3869  11.3899  11.4197  11.4695
    11.4966  11.4996  11.5623  11.6300  11.6372  11.6512  11.6843  11.6860
    11.7772  11.8097  11.8117  11.8333  11.8433  11.8871  11.8970  11.9568
    12.0479  12.1134  12.1146  12.1225  12.1398  12.1784  12.2360  12.2376
    12.2939  12.3244  12.3758  12.3956  12.4592  12.4930  12.5057  12.5189
    12.5701  12.5773  12.6321  12.6342  12.6580  12.6820  12.7418  12.7794
    12.7931  12.8494  12.8884  12.8943  12.9405  13.0115  13.0479  13.1021
    13.1029  13.1474  13.1882  13.2438  13.3068  13.3304  13.3629  13.4021
    13.4821  13.5331  13.5478  13.5563  13.6017  13.6565  13.6627  13.6951
    13.7060  13.7102  13.7641  13.7735  13.7940  13.8513  13.8689  13.8752
    13.9094  13.9839  13.9882  14.0112  14.0551  14.0731  14.0892  14.1094
    14.1447  14.1914  14.2546  14.2597  14.3105  14.3297  14.3681  14.3792
    14.3972  14.4232  14.4748  14.5025  14.5242  14.5441  14.5814  14.6293
    14.6305  14.6586  14.6787  14.6938  14.7066  14.7495  14.7783  14.8392
    14.8418  14.8581  14.8862  14.9777  15.0081  15.0128  15.0277  15.0536
    15.0651  15.1611  15.1652  15.2096  15.2324  15.2705  15.2734  15.3394
    15.3470  15.3746  15.3922  15.4329  15.4715  15.4785  15.5015  15.5154
    15.5314  15.5956  15.6253  15.6360  15.6503  15.6974  15.7090  15.7191
    15.7834  15.7856  15.7932  15.8229  15.8383  15.8680  15.9011  15.9091
    15.9395  15.9973  16.0140  16.0297  16.0635  16.0913  16.0940  16.0994
    16.1108  16.1823  16.1970  16.2105

          k = 0.0000 0.0000 0.0068 ( 76763 PWs)   bands (ev):

   -21.7632 -21.1630 -20.5760 -20.3073 -20.2219 -19.9391 -19.6407 -19.2618
   -18.8459 -18.6257 -18.0768 -17.5362 -17.2382 -16.8998 -16.8508 -16.5417
   -16.2987 -15.7711 -15.5032 -15.1087 -14.7455 -14.6802 -14.5364 -14.3576
   -13.9432 -13.3322 -12.8144 -12.5731 -11.9874 -11.7646 -11.5554 -11.1480
   -10.9213 -10.7112 -10.5485 -10.3832 -10.2934 -10.2148 -10.0570  -9.8709
    -9.8378  -9.7253  -9.3940  -9.3319  -9.2377  -9.1592  -9.1563  -8.7660
    -8.6300  -8.4288  -8.3630  -8.3447  -8.2149  -8.1716  -8.0376  -7.8778
    -7.7809  -7.7317  -7.6648  -7.5265  -7.3827  -7.0027  -6.9016  -6.6986
    -6.5968  -6.3244  -5.9105  -5.8288  -5.7652  -5.2836  -5.0370  -4.7023
    -4.6609  -4.2785  -3.9931  -2.7007  -2.4021  -1.0705  -0.8346  -0.6298
    -0.5977  -0.2092   0.1197   0.6026   0.6447   0.6581   0.9071   1.2638
     1.3032   1.4035   1.7046   1.7883   2.0830   2.1105   2.1323   2.1555
     2.2395   2.3408   2.3627   2.5110   2.5217   2.5536   2.5675   2.5872
     2.7461   2.8262   2.8993   2.9514   2.9858   3.0380   3.1783   3.2700
     3.3579   3.3791   3.3946   3.4458   3.4465   3.4896   3.6327   3.6471
     3.7164   3.7394   3.7865   3.7953   3.8985   3.9806   4.1054   4.1359
     4.1382   4.2001   4.2205   4.2366   4.2546   4.3153   4.3577   4.4111
     4.4974   4.5546   4.5778   4.6535   4.6643   4.6692   4.7513   4.7913
     4.8038   4.8160   4.9143   4.9527   4.9966   5.0127   5.0450   5.0614
     5.1161   5.1178   5.1600   5.2075   5.2646   5.3265   5.3276   5.4507
     5.4664   5.5065   5.5839   5.6724   5.6779   5.6901   5.7157   5.7643
     5.8683   5.9109   5.9239   5.9565   5.9975   6.0104   6.0256   6.1345
     6.1375   6.1627   6.2412   6.3023   6.3494   6.3917   6.4323   6.4483
     6.5305   6.5995   6.6135   6.6359   6.6531   6.7546   6.7821   6.7850
     6.8395   6.8523   6.9106   6.9411   6.9492   6.9997   7.0118   7.0520
     7.1026   7.2153   7.2273   7.2584   7.3196   7.4137   7.4281   7.4748
     7.5190   7.5781   7.6522   7.6569   7.7124   7.7146   7.7701   7.8105
     7.8970   7.9882   7.9953   8.0342   8.0631   8.1201   8.1374   8.1472
     8.1920   8.2357   8.2515   8.2846   8.3146   8.3242   8.3623   8.3893
     8.4215   8.4417   8.5224   8.5292   8.5380   8.5865   8.6145   8.6242
     8.6662   8.6887   8.7213   8.7433   8.7881   8.8036   8.8235   8.8564
     8.8793   8.9100   8.9114   8.9690   9.0284   9.0299   9.0409   9.0796
     9.1151   9.1595   9.1911   9.2061   9.2091   9.2150   9.2564   9.3087
     9.3473   9.3842   9.4754   9.4945   9.5127   9.5236   9.5506   9.5853
     9.5926   9.6280   9.6688   9.6813   9.7156   9.7291   9.7968   9.8307
     9.8394   9.8528   9.9014   9.9151   9.9509   9.9784   9.9887  10.0244
    10.0798  10.0970  10.1384  10.1471  10.1622  10.1625  10.1889  10.2137
    10.2495  10.2554  10.2970  10.3070  10.3541  10.3694  10.4168  10.4188
    10.4860  10.5077  10.5091  10.5390  10.5491  10.5740  10.5964  10.6136
    10.6183  10.6426  10.6961  10.7023  10.7192  10.7352  10.7715  10.7785
    10.8327  10.8579  10.8772  10.9009  10.9477  10.9606  10.9749  11.0273
    11.0461  11.0854  11.1109  11.1482  11.1634  11.1764  11.1970  11.2187
    11.2249  11.2697  11.3229  11.3605  11.3938  11.4254  11.4552  11.4647
    11.5046  11.5100  11.5255  11.6153  11.6333  11.6670  11.7007  11.7010
    11.7386  11.7846  11.8051  11.8101  11.8711  11.8875  11.8945  11.9745
    12.0771  12.1164  12.1528  12.1737  12.1843  12.2111  12.2727  12.2796
    12.2960  12.3228  12.3616  12.3946  12.4110  12.4302  12.4964  12.5277
    12.5319  12.5677  12.6321  12.6406  12.6519  12.6813  12.7123  12.8075
    12.8286  12.8641  12.8848  12.9105  13.0199  13.0225  13.0626  13.0977
    13.1235  13.1704  13.2195  13.2403  13.2789  13.3395  13.3549  13.3718
    13.4729  13.4917  13.5184  13.5511  13.6238  13.6281  13.6470  13.6865
    13.6909  13.7252  13.7582  13.7662  13.8038  13.8516  13.8650  13.8791
    13.8966  13.9915  13.9953  14.0263  14.0396  14.0863  14.0899  14.1152
    14.1249  14.1930  14.2191  14.2477  14.2682  14.2958  14.3649  14.3915
    14.4027  14.4058  14.4533  14.4796  14.5227  14.5417  14.5675  14.6069
    14.6511  14.6672  14.6876  14.6984  14.7084  14.7581  14.7601  14.7995
    14.8684  14.8709  14.9579  14.9643  14.9715  14.9818  15.0371  15.0502
    15.0639  15.1951  15.2156  15.2529  15.2694  15.2865  15.2899  15.3489
    15.3581  15.3840  15.4229  15.4348  15.4544  15.4553  15.5416  15.5512
    15.5560  15.5948  15.6080  15.6409  15.6774  15.6872  15.7118  15.7281
    15.7426  15.7948  15.8190  15.8382  15.8406  15.8683  15.8698  15.9213
    15.9419  15.9555  15.9806  16.0566  16.0677  16.0786  16.0989  16.1001
    16.1260  16.1418  16.1457  16.1950

          k = 0.0000 0.0000 0.0090 ( 76727 PWs)   bands (ev):

   -21.7594 -21.1595 -20.6248 -20.2954 -20.1802 -19.9801 -19.5876 -19.2776
   -18.8615 -18.5849 -18.0908 -17.5334 -17.2208 -16.9779 -16.8627 -16.5666
   -16.2693 -15.7732 -15.4504 -15.1239 -14.7631 -14.6964 -14.4963 -14.3166
   -13.9521 -13.3060 -12.8053 -12.5956 -12.0426 -11.7469 -11.4901 -11.2128
   -10.9188 -10.7803 -10.5962 -10.4217 -10.2542 -10.2276  -9.9795  -9.9453
    -9.8333  -9.6534  -9.4045  -9.2552  -9.2224  -9.1551  -9.1549  -8.7644
    -8.6235  -8.4860  -8.3699  -8.3573  -8.2625  -8.1673  -7.9772  -7.8820
    -7.7829  -7.7654  -7.6686  -7.4776  -7.3205  -7.0177  -6.9049  -6.7082
    -6.6233  -6.2731  -5.9228  -5.8359  -5.7784  -5.2982  -5.0072  -4.7396
    -4.6595  -4.3169  -3.9807  -2.7117  -2.3859  -1.0933  -0.8156  -0.6054
    -0.5462  -0.2263   0.1042   0.6076   0.6631   0.6719   0.9122   1.2689
     1.2760   1.4086   1.6928   1.7899   2.0438   2.0949   2.1022   2.1277
     2.2446   2.3642   2.3860   2.4555   2.5591   2.5605   2.6026   2.6107
     2.7626   2.8211   2.8339   2.9706   2.9836   3.0263   3.1162   3.2711
     3.3556   3.3891   3.4020   3.4420   3.4705   3.5520   3.6294   3.6370
     3.6863   3.6870   3.7975   3.8406   3.9150   3.9367   4.1031   4.1272
     4.1408   4.1718   4.1755   4.2210   4.2664   4.2925   4.3248   4.4404
     4.4667   4.5729   4.5916   4.6084   4.7289   4.7310   4.7397   4.7909
     4.8091   4.8806   4.9197   4.9555   4.9896   5.0112   5.0390   5.0981
     5.1126   5.1405   5.1948   5.1970   5.2226   5.3010   5.3619   5.3911
     5.5169   5.5377   5.6004   5.6577   5.6768   5.7384   5.7513   5.7849
     5.9027   5.9302   5.9350   5.9488   5.9923   6.0122   6.0332   6.1377
     6.1578   6.1682   6.2119   6.2882   6.3057   6.4022   6.4031   6.4300
     6.5454   6.5951   6.5981   6.6356   6.6636   6.7553   6.7966   6.8103
     6.8394   6.8693   6.9115   6.9439   6.9742   7.0101   7.0541   7.0569
     7.1181   7.2132   7.2604   7.2685   7.3394   7.4136   7.4433   7.5053
     7.5387   7.5642   7.6152   7.6223   7.6278   7.6626   7.7368   7.7761
     7.8816   7.9921   8.0141   8.0220   8.0831   8.1156   8.1179   8.1340
     8.1389   8.2149   8.2464   8.2561   8.2831   8.2917   8.3423   8.3631
     8.4123   8.4268   8.4984   8.5018   8.5596   8.5670   8.5783   8.6114
     8.6564   8.6625   8.7171   8.7560   8.7630   8.8113   8.8358   8.8494
     8.8893   8.8989   8.9160   8.9501   9.0025   9.0216   9.0728   9.0945
     9.1362   9.1465   9.1661   9.1807   9.1951   9.2403   9.3048   9.3386
     9.3673   9.4202   9.4647   9.4695   9.5056   9.5114   9.5564   9.5713
     9.6071   9.6298   9.6513   9.6727   9.7125   9.7450   9.7652   9.7795
     9.8024   9.8434   9.8761   9.8906   9.9297   9.9721  10.0021  10.0374
    10.0504  10.0912  10.1001  10.1514  10.1620  10.1889  10.2073  10.2289
    10.2293  10.2500  10.2932  10.3297  10.3421  10.3433  10.3649  10.3687
    10.4379  10.4797  10.4841  10.5015  10.5448  10.5708  10.6008  10.6364
    10.6423  10.6599  10.7221  10.7422  10.7673  10.7721  10.7960  10.8448
    10.8509  10.8838  10.9288  10.9385  10.9513  10.9705  10.9980  11.0287
    11.0741  11.1034  11.1043  11.1572  11.1604  11.1830  11.2203  11.2511
    11.2856  11.3130  11.3243  11.3368  11.4112  11.4123  11.4515  11.4842
    11.5419  11.5497  11.6004  11.6043  11.6438  11.6798  11.6902  11.7177
    11.7244  11.7632  11.7839  11.8227  11.8849  11.9073  11.9175  11.9671
    12.0748  12.1442  12.1656  12.1922  12.1998  12.2718  12.2907  12.3236
    12.3326  12.3397  12.3434  12.3592  12.4087  12.4153  12.4917  12.4992
    12.5682  12.5768  12.6008  12.6403  12.6493  12.6538  12.7611  12.8091
    12.8324  12.8563  12.9183  12.9400  13.0023  13.0256  13.0616  13.1210
    13.1500  13.1696  13.2209  13.2430  13.3157  13.3288  13.3586  13.3745
    13.4514  13.4740  13.5310  13.5631  13.5639  13.6268  13.6304  13.6563
    13.6717  13.7391  13.7394  13.7643  13.7953  13.8239  13.8794  13.9170
    13.9196  13.9560  13.9958  14.0311  14.0457  14.0573  14.0758  14.0774
    14.1081  14.1727  14.2300  14.2368  14.2609  14.2938  14.3183  14.3788
    14.4126  14.4153  14.4628  14.4934  14.4945  14.5357  14.5818  14.5980
    14.6189  14.6734  14.6912  14.6997  14.7016  14.7232  14.7650  14.8365
    14.8479  14.8603  14.8954  14.9849  15.0092  15.0309  15.0670  15.0694
    15.0792  15.1968  15.2043  15.2509  15.3044  15.3242  15.3264  15.3572
    15.3588  15.3995  15.4213  15.4261  15.4518  15.4908  15.5540  15.5596
    15.5791  15.6018  15.6421  15.6427  15.6550  15.6768  15.7124  15.7419
    15.7761  15.7833  15.8251  15.8361  15.8507  15.8721  15.9167  15.9187
    15.9379  15.9679  15.9683  16.0002  16.0605  16.0754  16.0779  16.0966
    16.1321  16.1450  16.1713  16.1830

          k = 0.0000 0.0000 0.0113 ( 76719 PWs)   bands (ev):

   -21.7545 -21.1549 -20.6728 -20.2923 -20.1319 -20.0162 -19.5333 -19.2971
   -18.8736 -18.5410 -18.1076 -17.5299 -17.1998 -17.0613 -16.8751 -16.6055
   -16.2467 -15.7590 -15.4084 -15.1237 -14.7957 -14.7000 -14.4512 -14.2780
   -13.9555 -13.2758 -12.7938 -12.6232 -12.0968 -11.7257 -11.4236 -11.2860
   -10.9217 -10.8530 -10.6366 -10.4836 -10.2731 -10.1655 -10.0149  -9.8933
    -9.8274  -9.5947  -9.4075  -9.2347  -9.1849  -9.1494  -9.1182  -8.7622
    -8.6177  -8.5424  -8.3991  -8.3702  -8.2886  -8.1653  -7.9167  -7.9139
    -7.8286  -7.7229  -7.6735  -7.4277  -7.2574  -7.0371  -6.9090  -6.7205
    -6.6447  -6.2195  -5.9388  -5.8448  -5.7948  -5.3119  -4.9757  -4.7850
    -4.6571  -4.3597  -3.9722  -2.7266  -2.3647  -1.1123  -0.7901  -0.5918
    -0.4747  -0.2480   0.0875   0.6140   0.6694   0.7035   0.9188   1.2413
     1.2755   1.4153   1.6802   1.7910   1.9950   2.0512   2.0838   2.1310
     2.2491   2.3567   2.4037   2.4331   2.5667   2.5812   2.6424   2.6520
     2.7696   2.7896   2.8090   2.9048   2.9730   3.0692   3.1015   3.2412
     3.3451   3.3951   3.4210   3.4323   3.5208   3.5954   3.6103   3.6246
     3.6491   3.6724   3.8000   3.8424   3.9405   3.9536   4.0381   4.0891
     4.1010   4.1488   4.1609   4.2094   4.2329   4.3232   4.3620   4.4150
     4.5058   4.5260   4.6180   4.6342   4.6989   4.7742   4.8005   4.8220
     4.8327   4.8720   4.8974   4.9573   4.9998   5.0204   5.0735   5.0936
     5.1199   5.1344   5.1455   5.2333   5.2671   5.2998   5.3670   5.4035
     5.4907   5.5872   5.6249   5.6596   5.6791   5.7340   5.8066   5.8512
     5.8735   5.9365   5.9458   5.9869   6.0003   6.0193   6.0532   6.1416
     6.1526   6.1719   6.1978   6.2672   6.2799   6.3557   6.4213   6.4336
     6.5603   6.5764   6.5868   6.6314   6.6793   6.7389   6.8034   6.8183
     6.8407   6.8860   6.9085   6.9981   7.0015   7.0138   7.0722   7.1192
     7.1486   7.2078   7.2635   7.2762   7.3570   7.4260   7.4485   7.4689
     7.5255   7.5391   7.5923   7.6051   7.6104   7.6235   7.7021   7.7503
     7.8868   7.9361   8.0073   8.0306   8.0475   8.0598   8.0885   8.1233
     8.1536   8.1664   8.2281   8.2494   8.2856   8.2905   8.3220   8.3344
     8.4031   8.4217   8.4677   8.4735   8.4999   8.5466   8.5669   8.5753
     8.6178   8.6333   8.7165   8.7239   8.7852   8.8207   8.8375   8.8559
     8.8858   8.9021   8.9466   8.9769   8.9872   9.0310   9.0598   9.0618
     9.0696   9.1270   9.1531   9.1707   9.2424   9.2760   9.3332   9.3753
     9.3872   9.3890   9.4349   9.4581   9.4887   9.5188   9.5549   9.5633
     9.5952   9.6195   9.6403   9.6830   9.7123   9.7318   9.7370   9.7748
     9.8145   9.8401   9.8538   9.8848   9.9207   9.9860   9.9947  10.0164
    10.0551  10.0699  10.0808  10.0990  10.1392  10.1509  10.1947  10.2080
    10.2337  10.2779  10.2920  10.3153  10.3218  10.3315  10.3502  10.3929
    10.4136  10.4451  10.4690  10.4962  10.5044  10.5589  10.5940  10.6582
    10.6784  10.7142  10.7523  10.7956  10.8050  10.8052  10.8352  10.8575
    10.8650  10.9369  10.9497  10.9593  11.0165  11.0303  11.0388  11.0469
    11.0583  11.1019  11.1253  11.1642  11.1664  11.1784  11.2233  11.2331
    11.2428  11.3609  11.3707  11.3774  11.4210  11.4441  11.4503  11.4836
    11.5461  11.6149  11.6348  11.6412  11.6580  11.6654  11.7064  11.7266
    11.7529  11.7673  11.8053  11.8751  11.8953  11.9188  11.9273  11.9766
    12.0427  12.1168  12.1848  12.1922  12.2560  12.2731  12.2931  12.2993
    12.3261  12.3503  12.3940  12.4114  12.4272  12.4661  12.4808  12.4970
    12.5603  12.6053  12.6109  12.6406  12.6591  12.6731  12.7965  12.7996
    12.8130  12.8488  12.9055  12.9672  12.9956  13.0180  13.0671  13.0820
    13.1528  13.1656  13.2363  13.2478  13.3004  13.3683  13.3730  13.4049
    13.4698  13.4930  13.5010  13.5089  13.5835  13.5948  13.6078  13.6319
    13.6958  13.7078  13.7374  13.7639  13.8082  13.8196  13.8648  13.8968
    13.9388  13.9588  13.9856  13.9868  14.0310  14.0319  14.0497  14.0812
    14.0955  14.1791  14.1932  14.2133  14.2584  14.2881  14.3441  14.3506
    14.4332  14.4338  14.4718  14.4823  14.5012  14.5356  14.5775  14.5895
    14.6028  14.6778  14.6886  14.7005  14.7075  14.7147  14.7860  14.8128
    14.8235  14.8498  14.8689  15.0123  15.0123  15.0680  15.0726  15.1046
    15.1407  15.1898  15.1994  15.2405  15.2562  15.3369  15.3475  15.3598
    15.3760  15.4223  15.4417  15.4441  15.4724  15.4956  15.5474  15.5527
    15.5824  15.5995  15.6248  15.6560  15.6948  15.7077  15.7189  15.7428
    15.7600  15.8142  15.8223  15.8623  15.8640  15.8906  15.9153  15.9311
    15.9490  15.9693  15.9895  16.0153  16.0358  16.0614  16.0787  16.1111
    16.1308  16.1552  16.1595  16.1793

          k = 0.0000 0.0000 0.0135 ( 76701 PWs)   bands (ev):

   -21.7486 -21.1494 -20.7198 -20.2942 -20.0929 -20.0353 -19.4780 -19.3198
   -18.8823 -18.4949 -18.1266 -17.5259 -17.1787 -17.1441 -16.8907 -16.6516
   -16.2369 -15.7297 -15.3833 -15.1006 -14.8331 -14.6976 -14.4081 -14.2431
   -13.9485 -13.2433 -12.7806 -12.6544 -12.1491 -11.7021 -11.3724 -11.3499
   -10.9373 -10.9214 -10.6715 -10.5535 -10.2954 -10.1173 -10.0464  -9.8203
    -9.8134  -9.5615  -9.3875  -9.2520  -9.1487  -9.1427  -9.0431  -8.7595
    -8.6141  -8.5978  -8.4477  -8.3858  -8.2920  -8.1652  -7.9517  -7.8940
    -7.8314  -7.6819  -7.6730  -7.3769  -7.1935  -7.0607  -6.9141  -6.7354
    -6.6607  -6.1643  -5.9583  -5.8556  -5.8137  -5.3241  -4.9461  -4.8353
    -4.6537  -4.4058  -3.9689  -2.7459  -2.3384  -1.1257  -0.7595  -0.5766
    -0.3974  -0.2729   0.0707   0.6219   0.6772   0.7383   0.9269   1.1996
     1.2834   1.4234   1.6676   1.7898   1.9433   2.0039   2.0764   2.1374
     2.2537   2.3122   2.3911   2.4785   2.5774   2.5925   2.6639   2.7027
     2.7200   2.7829   2.8254   2.8418   2.9515   3.0493   3.1658   3.2063
     3.3494   3.4032   3.4139   3.4222   3.5547   3.5561   3.6125   3.6147
     3.6443   3.7245   3.7956   3.8024   3.9464   3.9890   3.9990   4.0261
     4.0270   4.1337   4.1766   4.1999   4.2209   4.3193   4.3862   4.4617
     4.4844   4.5186   4.6511   4.6794   4.6823   4.7920   4.8115   4.8226
     4.8350   4.8896   4.9114   4.9879   5.0019   5.0327   5.0504   5.0888
     5.1102   5.1406   5.1695   5.2459   5.2469   5.3561   5.4271   5.4447
     5.4616   5.5891   5.6048   5.6677   5.7354   5.7606   5.8351   5.8478
     5.9067   5.9273   5.9632   6.0177   6.0207   6.0281   6.0756   6.1263
     6.1483   6.1611   6.2318   6.2448   6.2784   6.3104   6.4131   6.4556
     6.5559   6.5778   6.5806   6.6210   6.6912   6.7325   6.8029   6.8186
     6.8211   6.9001   6.9366   7.0008   7.0498   7.0635   7.1083   7.1738
     7.1802   7.2055   7.2652   7.2705   7.3490   7.3718   7.4238   7.4799
     7.4815   7.5141   7.5582   7.6060   7.6066   7.6569   7.6800   7.7385
     7.8549   7.8745   7.9483   7.9962   8.0239   8.0478   8.0877   8.0963
     8.1190   8.1560   8.2370   8.2409   8.2632   8.2784   8.3226   8.3236
     8.3570   8.3982   8.4280   8.4675   8.4798   8.5097   8.5425   8.5452
     8.5823   8.6273   8.6708   8.7048   8.7778   8.8052   8.8249   8.8457
     8.8887   8.9200   8.9534   8.9589   8.9761   9.0094   9.0341   9.0566
     9.1020   9.1333   9.1655   9.1871   9.2328   9.2904   9.3175   9.3415
     9.3613   9.3779   9.4219   9.4648   9.4699   9.4736   9.5156   9.6106
     9.6147   9.6276   9.6796   9.6829   9.7013   9.7169   9.7405   9.7748
     9.8071   9.8370   9.8639   9.8885   9.9148   9.9549   9.9770   9.9981
    10.0302  10.0355  10.0537  10.1062  10.1147  10.1285  10.1466  10.1999
    10.2092  10.2135  10.2733  10.3117  10.3493  10.3499  10.3935  10.3965
    10.4316  10.4403  10.4567  10.4943  10.5016  10.5412  10.6235  10.6750
    10.7256  10.7346  10.7617  10.8314  10.8333  10.8492  10.8729  10.8898
    10.8907  10.9366  10.9590  10.9651  11.0361  11.0401  11.0470  11.0733
    11.1332  11.1412  11.1537  11.1701  11.1812  11.2081  11.2182  11.2427
    11.2618  11.3014  11.3400  11.3911  11.4704  11.5053  11.5163  11.5391
    11.5552  11.5709  11.5887  11.6490  11.6858  11.7149  11.7495  11.7615
    11.7809  11.8491  11.8675  11.8890  11.8994  11.9432  11.9437  12.0015
    12.0332  12.0842  12.1711  12.1833  12.2376  12.2571  12.2954  12.3397
    12.3527  12.3996  12.4114  12.4226  12.4411  12.4682  12.5001  12.5453
    12.5951  12.6258  12.6368  12.6697  12.6819  12.7214  12.7699  12.8084
    12.8232  12.8270  12.8677  12.9532  12.9976  13.0122  13.0594  13.0689
    13.1408  13.1570  13.2121  13.2864  13.2881  13.3557  13.4010  13.4237
    13.4457  13.4640  13.5053  13.5271  13.5661  13.5791  13.6317  13.6733
    13.6799  13.6978  13.7445  13.7642  13.7702  13.8230  13.8441  13.8937
    13.9008  13.9167  13.9560  13.9967  14.0024  14.0431  14.0681  14.0833
    14.0929  14.1498  14.1642  14.2304  14.2701  14.2914  14.2954  14.3842
    14.4025  14.4454  14.4473  14.4851  14.5182  14.5455  14.5579  14.6209
    14.6266  14.6794  14.6922  14.7109  14.7169  14.7309  14.7591  14.8035
    14.8138  14.8269  14.8860  14.9909  15.0114  15.0469  15.1106  15.1241
    15.1683  15.1759  15.1846  15.2227  15.2678  15.3405  15.3661  15.3666
    15.4066  15.4270  15.4373  15.4456  15.4722  15.4822  15.5258  15.5440
    15.5921  15.5989  15.6136  15.6978  15.7010  15.7155  15.7374  15.7435
    15.7870  15.8246  15.8316  15.8755  15.8890  15.8964  15.9481  15.9496
    15.9658  15.9760  15.9947  16.0315  16.0693  16.0874  16.0974  16.1035
    16.1251  16.1376  16.1575  16.1632

          k = 0.0000 0.0000 0.0158 ( 76676 PWs)   bands (ev):

   -21.7416 -21.1429 -20.7658 -20.3008 -20.0987 -20.0022 -19.4217 -19.3450
   -18.8874 -18.4475 -18.1469 -17.5215 -17.2363 -17.1475 -16.9112 -16.6996
   -16.2411 -15.6904 -15.3718 -15.0582 -14.8674 -14.6928 -14.3733 -14.2108
   -13.9269 -13.2098 -12.7678 -12.6864 -12.1987 -11.6781 -11.4502 -11.2898
   -11.0111 -10.9379 -10.7091 -10.6160 -10.3361 -10.1097 -10.0119  -9.8118
    -9.7384  -9.5523  -9.3466  -9.2713  -9.1348  -9.1177  -8.9585  -8.7562
    -8.6522  -8.6154  -8.5012  -8.4041  -8.2843  -8.1680  -7.9900  -7.9283
    -7.7711  -7.6876  -7.6266  -7.3258  -7.1297  -7.0874  -6.9198  -6.7529
    -6.6714  -6.1083  -5.9814  -5.8682  -5.8344  -5.3346  -4.9352  -4.8737
    -4.6496  -4.4536  -3.9712  -2.7697  -2.3070  -1.1327  -0.7254  -0.5580
    -0.3280  -0.2892   0.0546   0.6312   0.6864   0.7750   0.9364   1.1518
     1.2929   1.4330   1.6553   1.7835   1.8912   1.9632   2.0717   2.1457
     2.2531   2.2586   2.3956   2.5165   2.5944   2.6020   2.6321   2.7093
     2.7393   2.7558   2.7863   2.8735   2.9340   3.0480   3.1371   3.2595
     3.3598   3.3846   3.4082   3.4130   3.5074   3.5400   3.5875   3.6558
     3.6783   3.7446   3.7934   3.8007   3.8707   3.9338   3.9631   4.0326
     4.0481   4.0928   4.1850   4.2187   4.2188   4.2924   4.4096   4.4460
     4.5127   4.5578   4.6436   4.7175   4.7336   4.7538   4.7768   4.8179
     4.8362   4.9641   4.9707   4.9710   4.9840   4.9993   5.0721   5.0907
     5.1079   5.1517   5.1894   5.2547   5.2612   5.4281   5.4376   5.4927
     5.5124   5.5499   5.5868   5.6857   5.7673   5.7920   5.8270   5.8759
     5.9260   5.9397   5.9857   6.0072   6.0254   6.0668   6.0930   6.1024
     6.1398   6.2048   6.2483   6.2699   6.2714   6.2793   6.3996   6.4568
     6.5509   6.5698   6.5986   6.6134   6.6953   6.7399   6.7725   6.8166
     6.8388   6.9133   6.9530   7.0070   7.0900   7.1332   7.1395   7.1665
     7.2110   7.2206   7.2561   7.2737   7.2975   7.3563   7.3964   7.4380
     7.4703   7.5077   7.5597   7.5963   7.6105   7.6594   7.6863   7.7352
     7.7546   7.8439   7.9479   7.9575   7.9700   8.0248   8.0465   8.0947
     8.1106   8.1533   8.2053   8.2224   8.2405   8.2489   8.2973   8.3303
     8.3342   8.3682   8.3891   8.4289   8.5013   8.5031   8.5116   8.5293
     8.5647   8.6211   8.6374   8.6800   8.7338   8.7516   8.7978   8.8276
     8.8438   8.9253   8.9494   8.9533   8.9688   8.9693   9.0406   9.0686
     9.1186   9.1244   9.1894   9.2307   9.2433   9.2478   9.2854   9.2982
     9.3176   9.3898   9.3913   9.4441   9.4546   9.4891   9.5400   9.5783
     9.6120   9.6442   9.6458   9.6849   9.7308   9.7333   9.7500   9.8042
     9.8218   9.8399   9.8505   9.8661   9.8741   9.9361   9.9657   9.9783
     9.9786  10.0142  10.0220  10.0516  10.0997  10.1293  10.1492  10.1951
    10.2163  10.2270  10.2336  10.3071  10.3620  10.3743  10.3823  10.4089
    10.4268  10.4670  10.5006  10.5056  10.5351  10.5530  10.6336  10.6810
    10.7495  10.7498  10.7786  10.8198  10.8547  10.8860  10.8880  10.9126
    10.9145  10.9604  10.9857  10.9926  11.0289  11.0356  11.0601  11.0922
    11.1392  11.1598  11.1648  11.1742  11.2114  11.2310  11.2352  11.2889
    11.3112  11.3512  11.3820  11.3890  11.4698  11.4924  11.5031  11.5271
    11.5812  11.6216  11.6303  11.6639  11.6904  11.7435  11.7810  11.7993
    11.8594  11.8706  11.9056  11.9117  11.9452  11.9669  11.9705  12.0240
    12.0507  12.1337  12.1498  12.1706  12.2028  12.2211  12.3405  12.3438
    12.3676  12.3966  12.4097  12.4384  12.4962  12.5090  12.5107  12.5863
    12.6353  12.6400  12.6500  12.7202  12.7204  12.7523  12.7799  12.8083
    12.8119  12.8335  12.8516  12.9211  12.9964  12.9983  13.0396  13.0840
    13.1347  13.1566  13.2014  13.2586  13.2693  13.3513  13.3761  13.3847
    13.4461  13.4490  13.5241  13.5395  13.5796  13.6069  13.6235  13.6643
    13.6679  13.6980  13.7512  13.7646  13.8049  13.8070  13.8275  13.8295
    13.8493  13.9098  13.9669  13.9812  14.0177  14.0615  14.0848  14.0852
    14.0952  14.1531  14.1778  14.2321  14.2483  14.2513  14.3204  14.3581
    14.4078  14.4236  14.4317  14.4634  14.5471  14.5657  14.5728  14.6083
    14.6346  14.6970  14.7114  14.7224  14.7353  14.7568  14.7570  14.7938
    14.8174  14.8221  14.8961  14.9879  14.9880  15.0105  15.1068  15.1148
    15.1215  15.1650  15.2080  15.2516  15.2719  15.3017  15.3683  15.3739
    15.4094  15.4276  15.4364  15.4409  15.4746  15.5220  15.5263  15.5515
    15.5697  15.5798  15.6032  15.6233  15.6956  15.7307  15.7651  15.7851
    15.8389  15.8599  15.8755  15.8862  15.8997  15.9149  15.9533  15.9720
    15.9831  15.9948  16.0307  16.0364  16.0649  16.0665  16.1031  16.1147
    16.1173  16.1494  16.1612  16.1652

          k = 0.0000 0.0000 0.0180 ( 76658 PWs)   bands (ev):

   -21.7335 -21.1354 -20.8108 -20.3129 -20.1179 -19.9475 -19.3722 -19.3646
   -18.8895 -18.3997 -18.1672 -17.5167 -17.3227 -17.1229 -16.9383 -16.7438
   -16.2577 -15.6491 -15.3622 -15.0150 -14.8856 -14.6870 -14.3520 -14.1774
   -13.8899 -13.1762 -12.7667 -12.7079 -12.2452 -11.6595 -11.5300 -11.2291
   -11.0927 -10.9493 -10.7635 -10.6552 -10.3943 -10.1038  -9.9546  -9.8021
    -9.6784  -9.5439  -9.3247  -9.2634  -9.1257  -9.0856  -8.8753  -8.7523
    -8.7054  -8.6283  -8.5461  -8.4236  -8.2721  -8.1753  -8.0268  -7.9623
    -7.7035  -7.6961  -7.5796  -7.2746  -7.1196  -7.0628  -6.9262  -6.7729
    -6.6773  -6.0524  -6.0080  -5.8825  -5.8555  -5.3434  -4.9798  -4.8638
    -4.6465  -4.5003  -3.9794  -2.7982  -2.2707  -1.1331  -0.6897  -0.5352
    -0.3406  -0.2229   0.0402   0.6419   0.6970   0.8127   0.9474   1.0993
     1.3037   1.4441   1.6433   1.7676   1.8397   1.9335   2.0685   2.1552
     2.1933   2.2636   2.4032   2.5363   2.5725   2.6167   2.6221   2.6885
     2.7106   2.7270   2.8225   2.9259   2.9279   3.0545   3.0906   3.3208
     3.3449   3.3675   3.3937   3.4245   3.4552   3.5347   3.5743   3.6682
     3.6790   3.7289   3.7701   3.8421   3.8689   3.8768   3.9028   4.0128
     4.0590   4.0984   4.1950   4.1973   4.2576   4.2850   4.3803   4.4605
     4.5348   4.6364   4.6375   4.6939   4.7236   4.7583   4.7792   4.8529
     4.8560   4.9273   4.9361   4.9626   5.0318   5.0496   5.0619   5.0921
     5.1428   5.1610   5.1802   5.2804   5.3387   5.4063   5.5051   5.5214
     5.5349   5.5656   5.6008   5.6969   5.7466   5.7901   5.8735   5.9106
     5.9423   5.9520   5.9744   5.9922   6.0218   6.0645   6.1155   6.1437
     6.1681   6.2281   6.2316   6.2718   6.3090   6.3095   6.3869   6.4430
     6.5497   6.5618   6.5904   6.6278   6.7082   6.7400   6.7634   6.8139
     6.8614   6.9268   6.9566   7.0177   7.0651   7.1336   7.1757   7.1969
     7.2028   7.2251   7.2470   7.2890   7.3213   7.3549   7.3798   7.4049
     7.4610   7.4646   7.5673   7.5948   7.6153   7.6199   7.6537   7.7039
     7.7697   7.8465   7.8942   7.8985   7.9616   8.0080   8.0088   8.0819
     8.1189   8.1234   8.1394   8.1955   8.2158   8.2166   8.2824   8.3066
     8.3148   8.3580   8.3634   8.4185   8.4548   8.4858   8.5290   8.5391
     8.5732   8.6028   8.6140   8.6550   8.6677   8.7022   8.7507   8.7843
     8.8345   8.8759   8.9243   8.9546   8.9624   8.9645   9.0222   9.0427
     9.0778   9.1403   9.1723   9.1883   9.2124   9.2664   9.3121   9.3161
     9.3427   9.3482   9.4101   9.4152   9.4706   9.5181   9.5303   9.5394
     9.5830   9.6278   9.6317   9.6895   9.7108   9.7173   9.7683   9.7792
     9.8119   9.8123   9.8436   9.8549   9.8842   9.9076   9.9214   9.9717
     9.9811   9.9981  10.0390  10.0456  10.0741  10.1192  10.1771  10.2063
    10.2219  10.2279  10.2345  10.3049  10.3569  10.3699  10.3746  10.4474
    10.4717  10.5091  10.5129  10.5497  10.5727  10.5904  10.6175  10.6686
    10.7260  10.7496  10.7724  10.8429  10.8433  10.9242  10.9269  10.9417
    10.9467  10.9664  10.9739  11.0263  11.0289  11.0564  11.0634  11.0909
    11.1534  11.1704  11.1749  11.2045  11.2216  11.2387  11.2671  11.3212
    11.3601  11.3942  11.4483  11.4576  11.4598  11.4752  11.5042  11.5340
    11.5672  11.6109  11.6695  11.7023  11.7325  11.7978  11.7987  11.8235
    11.8911  11.9000  11.9171  11.9695  11.9736  11.9997  12.0194  12.0561
    12.1136  12.1214  12.1448  12.1911  12.2024  12.2546  12.3073  12.3543
    12.3811  12.3893  12.4216  12.4880  12.4917  12.5316  12.5745  12.5992
    12.6365  12.6473  12.6896  12.7373  12.7399  12.7689  12.7724  12.8061
    12.8188  12.8716  12.8984  12.9413  12.9896  12.9910  13.0478  13.0701
    13.1298  13.1660  13.1797  13.2058  13.2779  13.2888  13.3545  13.3789
    13.3980  13.4864  13.5057  13.5155  13.5617  13.6187  13.6235  13.6754
    13.6957  13.7050  13.7167  13.7299  13.7658  13.7828  13.7971  13.8292
    13.9305  13.9317  13.9692  13.9923  14.0143  14.0709  14.0892  14.0946
    14.1393  14.1701  14.1709  14.2211  14.2310  14.2794  14.3233  14.3448
    14.3738  14.3904  14.4146  14.4868  14.5562  14.5749  14.5861  14.5976
    14.6426  14.7026  14.7215  14.7260  14.7318  14.7600  14.7700  14.8104
    14.8366  14.8445  14.9110  14.9416  15.0017  15.0309  15.0541  15.0931
    15.0994  15.1432  15.2103  15.2562  15.2611  15.2724  15.3321  15.3653
    15.4186  15.4267  15.4370  15.4526  15.4545  15.4726  15.5138  15.5716
    15.5843  15.6014  15.6164  15.6178  15.6743  15.7364  15.7810  15.8163
    15.8471  15.8593  15.8705  15.8993  15.9137  15.9522  15.9731  15.9976
    16.0015  16.0118  16.0344  16.0357  16.0670  16.0808  16.0904  16.1048
    16.1217  16.1455  16.1592  16.1619

          k = 0.0000 0.0000 0.0203 ( 76664 PWs)   bands (ev):

   -21.7243 -21.1270 -20.8548 -20.3310 -20.1323 -19.8889 -19.4004 -19.3070
   -18.8887 -18.3536 -18.1854 -17.5119 -17.4094 -17.1026 -16.9713 -16.7792
   -16.2843 -15.6157 -15.3430 -15.0036 -14.8609 -14.6801 -14.3448 -14.1401
   -13.8395 -13.1433 -12.7940 -12.7019 -12.2882 -11.6763 -11.5770 -11.1787
   -11.1759 -10.9544 -10.8329 -10.6729 -10.4608 -10.0886  -9.8975  -9.7910
    -9.6509  -9.5097  -9.3419  -9.2165  -9.1154  -9.0504  -8.8018  -8.7573
    -8.7493  -8.6569  -8.5701  -8.4425  -8.2588  -8.1893  -8.0604  -7.9884
    -7.7059  -7.6341  -7.5340  -7.2240  -7.1516  -6.9983  -6.9326  -6.7952
    -6.6784  -6.0381  -5.9998  -5.8986  -5.8736  -5.3507  -5.0455  -4.8406
    -4.6517  -4.5374  -3.9931  -2.8314  -2.2297  -1.1270  -0.6551  -0.5087
    -0.3696  -0.1393   0.0297   0.6541   0.7089   0.8496   0.9599   1.0440
     1.3159   1.4566   1.6312   1.7389   1.7893   1.9178   2.0654   2.1324
     2.1680   2.2683   2.4105   2.5178   2.5269   2.6277   2.6421   2.6538
     2.6682   2.7422   2.8685   2.9299   2.9780   3.0544   3.0647   3.2973
     3.3137   3.3772   3.4011   3.4324   3.4395   3.5408   3.5629   3.6355
     3.6416   3.6816   3.8030   3.8389   3.8494   3.8495   3.9557   3.9616
     4.0393   4.1304   4.1828   4.2069   4.2486   4.3039   4.4051   4.4347
     4.5781   4.6238   4.6521   4.6864   4.7168   4.7800   4.8058   4.8549
     4.8716   4.9124   4.9314   4.9389   5.0316   5.0410   5.1132   5.1201
     5.1415   5.1909   5.2235   5.3177   5.3923   5.4252   5.4702   5.5462
     5.5656   5.6064   5.6834   5.6843   5.7312   5.7965   5.8657   5.9284
     5.9429   5.9591   5.9633   5.9979   6.0411   6.0773   6.1290   6.1698
     6.2311   6.2432   6.2452   6.2556   6.3321   6.3835   6.3865   6.4337
     6.5401   6.5535   6.5755   6.6331   6.7255   6.7488   6.7754   6.8112
     6.8724   6.9410   6.9454   6.9828   7.0279   7.1234   7.1713   7.2108
     7.2111   7.2527   7.2645   7.2888   7.3130   7.3822   7.3908   7.4085
     7.4398   7.4613   7.4879   7.5086   7.6203   7.6357   7.6917   7.6938
     7.7738   7.8352   7.8494   7.8825   7.9348   7.9433   8.0047   8.0535
     8.0730   8.1040   8.1311   8.1400   8.1745   8.2140   8.2680   8.2830
     8.2950   8.3321   8.3393   8.4031   8.4573   8.4650   8.5155   8.5192
     8.5253   8.6038   8.6125   8.6386   8.6529   8.6818   8.6961   8.7555
     8.7934   8.8360   8.8756   8.9112   8.9428   8.9588   8.9710   9.0033
     9.0810   9.0981   9.1490   9.1909   9.2106   9.2176   9.3230   9.3363
     9.3401   9.4092   9.4292   9.4386   9.4546   9.4818   9.4896   9.5377
     9.5677   9.6024   9.6321   9.6495   9.6905   9.6966   9.7450   9.7463
     9.7693   9.7917   9.8180   9.8318   9.8821   9.8866   9.9497   9.9693
     9.9971  10.0104  10.0409  10.0857  10.0895  10.1389  10.1848  10.2053
    10.2189  10.2390  10.2523  10.3059  10.3425  10.3847  10.4062  10.4889
    10.4951  10.5271  10.5535  10.5573  10.5958  10.6082  10.6492  10.6880
    10.7069  10.7363  10.7574  10.8262  10.8593  10.9135  10.9368  10.9473
    10.9583  11.0064  11.0088  11.0302  11.0311  11.0401  11.0980  11.1055
    11.1485  11.2172  11.2280  11.2305  11.2582  11.2628  11.2956  11.3614
    11.3624  11.3893  11.4365  11.4504  11.4800  11.4966  11.5492  11.5606
    11.5953  11.6545  11.6847  11.7559  11.7651  11.7841  11.8286  11.8936
    11.8983  11.9055  11.9762  11.9873  11.9981  12.0234  12.0749  12.0881
    12.1340  12.1453  12.1669  12.2129  12.2425  12.2688  12.3262  12.3478
    12.4087  12.4248  12.4305  12.4890  12.5235  12.5500  12.5636  12.6133
    12.6398  12.6620  12.6916  12.7320  12.7417  12.7794  12.7932  12.8015
    12.8542  12.8937  12.9620  12.9884  13.0045  13.0180  13.0633  13.0763
    13.1145  13.1405  13.1633  13.2030  13.2424  13.2726  13.3154  13.3590
    13.4089  13.4461  13.4840  13.4968  13.5311  13.5970  13.6049  13.6459
    13.6678  13.6793  13.7207  13.7665  13.7745  13.7964  13.8074  13.8205
    13.9087  13.9725  13.9959  14.0066  14.0539  14.0643  14.1120  14.1318
    14.1500  14.1720  14.1975  14.2414  14.2485  14.2711  14.3163  14.3217
    14.3484  14.4055  14.4246  14.5079  14.5360  14.5730  14.5842  14.6006
    14.6484  14.6715  14.7013  14.7211  14.7395  14.7672  14.7983  14.8393
    14.8573  14.8602  14.9269  14.9325  14.9619  15.0380  15.0537  15.0826
    15.1068  15.1218  15.1794  15.2352  15.2477  15.2857  15.2917  15.3550
    15.3590  15.3841  15.4204  15.4319  15.4661  15.4681  15.4956  15.5746
    15.5871  15.6079  15.6318  15.6766  15.6996  15.7496  15.7827  15.7894
    15.8374  15.8445  15.8568  15.8849  15.9136  15.9404  15.9468  15.9883
    15.9995  16.0084  16.0612  16.0712  16.0800  16.0902  16.1071  16.1153
    16.1263  16.1565  16.1589  16.1801

          k = 0.0000 0.0000 0.0225 ( 76654 PWs)   bands (ev):

   -21.7140 -21.1179 -20.8975 -20.3548 -20.1403 -19.8288 -19.4291 -19.2490
   -18.8852 -18.3153 -18.1949 -17.5132 -17.4896 -17.1002 -16.9997 -16.8028
   -16.3185 -15.5974 -15.3082 -15.0192 -14.8027 -14.6701 -14.3472 -14.0999
   -13.7790 -13.1116 -12.8353 -12.6831 -12.3269 -11.7497 -11.5699 -11.2606
   -11.1478 -10.9437 -10.9058 -10.6804 -10.5291 -10.0682  -9.8467  -9.7787
    -9.6475  -9.4556  -9.3610  -9.1686  -9.1041  -9.0108  -8.8080  -8.7663
    -8.7552  -8.6615  -8.5804  -8.4563  -8.2477  -8.2113  -8.0877  -8.0046
    -7.7167  -7.5637  -7.4897  -7.1851  -7.1753  -6.9384  -6.9342  -6.8198
    -6.6749  -6.0714  -5.9637  -5.9163  -5.8752  -5.3566  -5.1171  -4.8196
    -4.6798  -4.5495  -4.0116  -2.8690  -2.1845  -1.1148  -0.6239  -0.4860
    -0.3882  -0.0668   0.0344   0.6676   0.7223   0.8804   0.9738   0.9917
     1.3295   1.4705   1.6185   1.6998   1.7401   1.9145   2.0605   2.0747
     2.1801   2.2717   2.4095   2.4730   2.4871   2.5937   2.6364   2.6439
     2.7041   2.7586   2.8921   2.9369   3.0098   3.0632   3.0772   3.2428
     3.2680   3.3466   3.3955   3.4511   3.4896   3.5137   3.5428   3.5978
     3.6186   3.6946   3.7432   3.7820   3.8591   3.8951   3.9383   3.9988
     4.0367   4.1611   4.1757   4.1978   4.2203   4.3332   4.4273   4.4584
     4.5577   4.5852   4.6530   4.6988   4.7916   4.7924   4.7995   4.8219
     4.8513   4.9010   4.9758   4.9770   5.0002   5.0323   5.1091   5.1396
     5.2135   5.2277   5.2640   5.3667   5.3899   5.4477   5.5133   5.5375
     5.5852   5.6467   5.6913   5.7420   5.7533   5.8029   5.8349   5.8937
     5.8994   5.9671   5.9929   6.0144   6.0866   6.1248   6.1506   6.1523
     6.2278   6.2636   6.3058   6.3139   6.3237   6.4076   6.4376   6.4610
     6.5266   6.5460   6.5540   6.6398   6.7227   6.7697   6.8069   6.8087
     6.8116   6.9242   6.9565   6.9670   7.0345   7.1057   7.1476   7.1862
     7.2113   7.2250   7.2880   7.2911   7.3544   7.3807   7.3856   7.4026
     7.4041   7.4479   7.4805   7.5001   7.6263   7.6269   7.6712   7.7413
     7.7740   7.8022   7.8028   7.8691   7.9059   7.9151   7.9781   8.0343
     8.0359   8.0401   8.1082   8.1181   8.1727   8.2187   8.2257   8.2547
     8.2731   8.3183   8.3231   8.3608   8.4079   8.4460   8.4713   8.4956
     8.5280   8.5821   8.6237   8.6336   8.6403   8.6686   8.6749   8.7194
     8.7647   8.7821   8.8231   8.8773   8.8885   8.9119   8.9597   8.9920
     9.0204   9.1054   9.1359   9.1459   9.2058   9.2379   9.2943   9.3462
     9.3538   9.3736   9.4241   9.4314   9.4364   9.4726   9.4919   9.4926
     9.5513   9.5645   9.6057   9.6401   9.6906   9.6916   9.7184   9.7346
     9.7486   9.7593   9.7666   9.8044   9.9192   9.9526   9.9698   9.9822
    10.0030  10.0052  10.0254  10.0501  10.1280  10.1721  10.1869  10.2520
    10.2537  10.2557  10.2702  10.3093  10.3494  10.3879  10.4086  10.4704
    10.5013  10.5412  10.5830  10.5981  10.6249  10.6597  10.6780  10.6979
    10.7253  10.7343  10.7582  10.8175  10.8303  10.9222  10.9253  10.9520
    10.9604  10.9845  11.0000  11.0311  11.0709  11.0895  11.1250  11.1450
    11.1513  11.2168  11.2734  11.2874  11.2980  11.3230  11.3361  11.3396
    11.3795  11.4059  11.4293  11.4474  11.4920  11.5020  11.5195  11.5664
    11.6501  11.7079  11.7704  11.7770  11.8084  11.8175  11.8712  11.8903
    11.9129  11.9403  11.9442  11.9860  12.0417  12.0700  12.0978  12.1477
    12.1586  12.1823  12.2137  12.2397  12.2443  12.3217  12.3228  12.3745
    12.4291  12.4620  12.4761  12.4851  12.5444  12.5755  12.5799  12.5944
    12.6215  12.6414  12.7255  12.7285  12.7453  12.7868  12.8080  12.8091
    12.8979  12.8998  12.9743  13.0204  13.0281  13.0457  13.0927  13.0950
    13.1338  13.1404  13.1737  13.2093  13.2280  13.2503  13.2791  13.3752
    13.3968  13.4245  13.4536  13.4572  13.4813  13.5402  13.5884  13.6327
    13.6541  13.7012  13.7168  13.7507  13.7683  13.7771  13.8528  13.8586
    13.9458  13.9476  14.0082  14.0088  14.0737  14.0752  14.1282  14.1612
    14.1638  14.1908  14.2176  14.2500  14.2610  14.2994  14.3131  14.3350
    14.3848  14.4399  14.4459  14.4776  14.5212  14.5687  14.5838  14.5884
    14.6313  14.6687  14.6846  14.7205  14.7500  14.7688  14.8119  14.8449
    14.8507  14.8781  14.9253  14.9472  14.9477  15.0337  15.0400  15.0644
    15.1105  15.1306  15.1747  15.1950  15.2454  15.2696  15.2816  15.3179
    15.3227  15.3666  15.4116  15.4121  15.4601  15.4607  15.5150  15.5516
    15.5791  15.5946  15.6342  15.6686  15.7327  15.7455  15.7723  15.7895
    15.8069  15.8263  15.8334  15.8693  15.8812  15.9189  15.9320  15.9791
    15.9865  16.0129  16.0223  16.0341  16.0847  16.1089  16.1092  16.1164
    16.1550  16.1654  16.1707  16.2185

          k = 0.0000 0.0000 0.0248 ( 76650 PWs)   bands (ev):

   -21.7027 -21.1080 -20.9389 -20.3828 -20.1425 -19.7681 -19.4575 -19.1908
   -18.8792 -18.2985 -18.1821 -17.5864 -17.4973 -17.1337 -17.0059 -16.8138
   -16.3584 -15.5948 -15.2624 -15.0346 -14.7463 -14.6471 -14.3539 -14.0588
   -13.7113 -13.0815 -12.8812 -12.6619 -12.3608 -11.8382 -11.5522 -11.3435
   -11.1437 -10.9795 -10.9089 -10.6830 -10.5946 -10.0457  -9.8104  -9.7651
    -9.6419  -9.4261  -9.3482  -9.1288  -9.0919  -8.9673  -8.8573  -8.8102
    -8.7425  -8.6266  -8.5874  -8.4546  -8.2436  -8.2406  -8.1034  -8.0117
    -7.7285  -7.4931  -7.4467  -7.2189  -7.1305  -6.9417  -6.8719  -6.8464
    -6.6660  -6.1079  -5.9642  -5.9357  -5.8401  -5.3616  -5.1919  -4.8030
    -4.7295  -4.5379  -4.0341  -2.9107  -2.1356  -1.0973  -0.5988  -0.4875
    -0.3725  -0.0401   0.0879   0.6826   0.7370   0.8780   0.9702   0.9892
     1.3443   1.4859   1.6043   1.6549   1.6917   1.9189   2.0181   2.0505
     2.1935   2.2721   2.3788   2.4394   2.4599   2.5385   2.6435   2.6589
     2.7406   2.7750   2.8764   2.9472   3.0387   3.0913   3.1141   3.1806
     3.2191   3.2926   3.4098   3.4346   3.4667   3.4967   3.5525   3.5960
     3.6572   3.6855   3.6999   3.7353   3.8430   3.8715   3.9503   4.0188
     4.1100   4.1378   4.1765   4.1933   4.2341   4.3180   4.4689   4.5076
     4.5214   4.5355   4.6646   4.7172   4.7523   4.7740   4.8221   4.8619
     4.8771   4.8775   4.9463   5.0141   5.0440   5.0460   5.1230   5.1451
     5.2155   5.3065   5.3158   5.3809   5.4148   5.4543   5.5538   5.5878
     5.6023   5.6174   5.7539   5.7667   5.7941   5.8005   5.8144   5.8439
     5.8737   5.9937   5.9959   6.0328   6.1319   6.1375   6.1574   6.1877
     6.2372   6.2862   6.3058   6.3647   6.3947   6.4256   6.4594   6.5094
     6.5183   6.5426   6.5596   6.6496   6.6796   6.7459   6.7738   6.8063
     6.8520   6.9247   6.9477   6.9735   7.0355   7.0844   7.1373   7.1565
     7.1890   7.2005   7.2434   7.2620   7.3216   7.3717   7.3806   7.4254
     7.4463   7.4577   7.4960   7.5495   7.5734   7.6441   7.6898   7.7223
     7.7466   7.7625   7.7912   7.8308   7.8736   7.9404   7.9500   7.9783
     7.9897   8.0405   8.0868   8.1216   8.1664   8.1727   8.1961   8.2371
     8.2424   8.2806   8.2983   8.3493   8.3651   8.4122   8.4250   8.4790
     8.5253   8.5428   8.5753   8.6212   8.6425   8.6533   8.6721   8.6731
     8.7549   8.7660   8.7739   8.8033   8.8850   8.9119   8.9280   8.9600
     9.0246   9.0643   9.0853   9.1573   9.1866   9.2209   9.2495   9.3305
     9.3383   9.3459   9.3762   9.3943   9.4104   9.4445   9.4766   9.5015
     9.5091   9.5570   9.5621   9.6252   9.6406   9.7038   9.7067   9.7266
     9.7526   9.7643   9.8162   9.8495   9.9117   9.9570   9.9653   9.9964
     9.9971  10.0067  10.0516  10.0782  10.1592  10.1974  10.2011  10.2119
    10.2682  10.2810  10.2857  10.3229  10.3748  10.3755  10.4325  10.4601
    10.4989  10.5876  10.6153  10.6189  10.6306  10.6502  10.7026  10.7318
    10.7483  10.7595  10.8028  10.8162  10.8267  10.8912  10.9120  10.9569
    10.9871  10.9928  11.0001  11.0607  11.0695  11.0872  11.1381  11.1925
    11.1952  11.2087  11.2753  11.2954  11.3182  11.3399  11.3898  11.4102
    11.4151  11.4288  11.4354  11.4703  11.4831  11.5151  11.5188  11.5773
    11.6555  11.7542  11.8018  11.8020  11.8287  11.8458  11.8868  11.9192
    11.9247  11.9632  11.9768  12.0015  12.0667  12.0795  12.1524  12.1605
    12.2028  12.2265  12.2292  12.2672  12.2844  12.3417  12.3587  12.3859
    12.4649  12.4836  12.4847  12.5201  12.5536  12.5682  12.5928  12.6036
    12.6291  12.6808  12.7255  12.7287  12.7541  12.7944  12.8259  12.8391
    12.9039  12.9336  12.9719  12.9926  13.0107  13.0396  13.0775  13.1601
    13.1603  13.1892  13.2004  13.2217  13.2566  13.2721  13.2806  13.3424
    13.3628  13.4170  13.4184  13.4466  13.4922  13.5277  13.5524  13.6118
    13.6402  13.7047  13.7179  13.7337  13.7666  13.7694  13.8781  13.8932
    13.9310  13.9761  14.0149  14.0220  14.0735  14.0941  14.1199  14.1228
    14.1687  14.1761  14.2446  14.2673  14.3293  14.3505  14.3733  14.3910
    14.4045  14.4321  14.4674  14.4675  14.5093  14.5469  14.5667  14.5972
    14.6549  14.6601  14.6934  14.7251  14.7429  14.7512  14.7860  14.8248
    14.8771  14.8877  14.9444  14.9560  14.9583  15.0098  15.0134  15.0530
    15.0826  15.1075  15.1410  15.1877  15.2131  15.2827  15.2836  15.3316
    15.3366  15.3510  15.3933  15.4038  15.4451  15.4677  15.5131  15.5264
    15.5756  15.5910  15.5964  15.6284  15.6886  15.7337  15.7597  15.7637
    15.7802  15.7906  15.8237  15.8366  15.8655  15.8671  15.9306  15.9491
    15.9612  15.9696  15.9983  16.0278  16.0827  16.0997  16.1099  16.1383
    16.1718  16.1795  16.1813  16.1967

          k = 0.0000 0.0000 0.0271 ( 76658 PWs)   bands (ev):

   -21.6903 -21.0980 -20.9785 -20.4135 -20.1405 -19.7082 -19.4842 -19.1330
   -18.8705 -18.3058 -18.1441 -17.6723 -17.4917 -17.1915 -17.0014 -16.8125
   -16.4020 -15.6042 -15.2195 -15.0332 -14.7189 -14.5932 -14.3605 -14.0186
   -13.6384 -13.0533 -12.9290 -12.6421 -12.3888 -11.9284 -11.5446 -11.4181
   -11.1608 -11.0453 -10.8649 -10.6834 -10.6510 -10.0232  -9.7965  -9.7502
    -9.6182  -9.4398  -9.2909  -9.0993  -9.0791  -8.9234  -8.9048  -8.8638
    -8.7323  -8.6068  -8.5961  -8.4244  -8.2749  -8.2491  -8.1033  -8.0116
    -7.7410  -7.4241  -7.4050  -7.2505  -7.0940  -6.9391  -6.8742  -6.8143
    -6.6497  -6.1474  -5.9834  -5.9568  -5.7858  -5.3663  -5.2682  -4.7931
    -4.7874  -4.5152  -4.0588  -2.9562  -2.0836  -1.0755  -0.5857  -0.5035
    -0.3256  -0.0449   0.1753   0.6990   0.7531   0.8276   0.9944   1.0060
     1.3601   1.5027   1.5880   1.6079   1.6442   1.9265   1.9647   2.0310
     2.2074   2.2674   2.3300   2.4032   2.4620   2.4909   2.6567   2.6753
     2.7709   2.7896   2.8422   2.9595   3.0813   3.0973   3.1180   3.1525
     3.1884   3.2397   3.3656   3.4084   3.4752   3.4880   3.5800   3.5978
     3.6338   3.6608   3.7191   3.7431   3.7913   3.8841   3.9007   4.0829
     4.0995   4.1704   4.1715   4.2295   4.2427   4.3029   4.4514   4.4771
     4.5431   4.5874   4.6711   4.6841   4.7058   4.7608   4.8570   4.8642
     4.8738   4.8959   4.9774   5.0015   5.0890   5.0944   5.1441   5.1619
     5.2122   5.3219   5.4029   5.4052   5.4249   5.4836   5.5721   5.6046
     5.6098   5.6908   5.7524   5.7593   5.7824   5.7930   5.8309   5.8544
     5.8762   5.9857   6.0445   6.0574   6.1227   6.1389   6.1525   6.2485
     6.2928   6.3089   6.3136   6.3849   6.4355   6.4789   6.4820   6.5134
     6.5168   6.5565   6.5727   6.6315   6.6574   6.7415   6.7790   6.8036
     6.8824   6.9008   6.9196   6.9924   7.0164   7.0819   7.1204   7.1262
     7.1566   7.1831   7.2001   7.2206   7.2783   7.3762   7.3805   7.4263
     7.4837   7.5188   7.5201   7.5522   7.5534   7.6371   7.6907   7.7079
     7.7132   7.7412   7.7439   7.8354   7.8623   7.8655   7.9391   7.9697
     7.9778   8.0483   8.0991   8.1095   8.1222   8.1332   8.1432   8.1883
     8.2286   8.2614   8.2977   8.3213   8.3475   8.3824   8.3915   8.4650
     8.4679   8.4699   8.5270   8.5927   8.6094   8.6290   8.6508   8.6820
     8.7188   8.7675   8.7733   8.7997   8.8604   8.8862   8.9291   8.9680
     9.0302   9.0361   9.0480   9.0979   9.1466   9.1970   9.2036   9.2609
     9.3050   9.3058   9.3248   9.3560   9.3658   9.4151   9.4583   9.5084
     9.5106   9.5219   9.5661   9.6141   9.6461   9.6674   9.6808   9.7538
     9.7701   9.7789   9.8575   9.9112   9.9173   9.9326   9.9619  10.0052
    10.0186  10.0344  10.0638  10.1195  10.1524  10.1799  10.2117  10.2455
    10.2783  10.2865  10.2910  10.3184  10.3523  10.3759  10.4554  10.4932
    10.5382  10.5610  10.5937  10.6457  10.6466  10.6859  10.7134  10.7525
    10.7865  10.8004  10.8055  10.8444  10.8561  10.9048  10.9131  10.9712
    10.9980  11.0083  11.0248  11.0664  11.0706  11.0950  11.1318  11.1963
    11.2176  11.2252  11.2502  11.3045  11.3338  11.3809  11.3953  11.4191
    11.4250  11.4851  11.4917  11.5011  11.5297  11.5525  11.5573  11.5881
    11.6699  11.7661  11.7704  11.8027  11.8287  11.8347  11.8706  11.9330
    11.9608  12.0137  12.0432  12.0585  12.0758  12.1044  12.1548  12.1850
    12.2433  12.2613  12.2681  12.2868  12.3103  12.3614  12.3954  12.4166
    12.4426  12.4810  12.4917  12.5351  12.5677  12.5828  12.6437  12.6569
    12.6659  12.6888  12.7343  12.7437  12.7916  12.8171  12.8368  12.8939
    12.9004  12.9083  12.9284  12.9735  13.0205  13.0613  13.0930  13.1241
    13.1381  13.1715  13.2338  13.2723  13.3001  13.3082  13.3175  13.3564
    13.3749  13.4085  13.4172  13.4699  13.4937  13.5268  13.5827  13.5937
    13.6075  13.6685  13.7399  13.7421  13.7603  13.7703  13.8823  13.9063
    13.9538  13.9541  14.0228  14.0343  14.0594  14.0772  14.0811  14.1177
    14.1963  14.2064  14.2730  14.2999  14.3403  14.3694  14.3701  14.4234
    14.4444  14.4719  14.4869  14.4929  14.5002  14.5459  14.6096  14.6124
    14.6374  14.6698  14.6909  14.7115  14.7346  14.7459  14.7918  14.8474
    14.8946  14.8956  14.9334  14.9520  14.9558  14.9773  14.9873  15.0135
    15.0415  15.1081  15.1131  15.1580  15.2303  15.2794  15.2993  15.3115
    15.3311  15.3483  15.3782  15.4228  15.4276  15.4708  15.4842  15.5482
    15.5482  15.5711  15.5837  15.6089  15.6333  15.6831  15.7075  15.7217
    15.7531  15.7540  15.7664  15.7811  15.8199  15.8833  15.9008  15.9296
    15.9326  15.9577  15.9703  15.9890  16.0788  16.0952  16.1020  16.1339
    16.1572  16.1674  16.1868  16.1949

          k = 0.0000 0.0000 0.0293 ( 76678 PWs)   bands (ev):

   -21.6769 -21.0892 -21.0149 -20.4456 -20.1352 -19.6527 -19.5052 -19.0764
   -18.8587 -18.3236 -18.0942 -17.7582 -17.4854 -17.2588 -16.9999 -16.8008
   -16.4468 -15.6224 -15.1957 -15.0017 -14.7141 -14.5186 -14.3637 -13.9802
   -13.5623 -13.0279 -12.9768 -12.6272 -12.4096 -12.0165 -11.5747 -11.4615
   -11.1932 -11.0983 -10.8337 -10.6873 -10.6774 -10.0027  -9.8010  -9.7340
    -9.5773  -9.4614  -9.2262  -9.0838  -9.0664  -8.9497  -8.9152  -8.8806
    -8.7191  -8.6110  -8.6049  -8.3787  -8.3121  -8.2553  -8.0890  -8.0064
    -7.7538  -7.3657  -7.3645  -7.2706  -7.0718  -6.9299  -6.8977  -6.7657
    -6.6220  -6.1897  -6.0072  -5.9796  -5.7264  -5.3771  -5.3393  -4.8549
    -4.7822  -4.4891  -4.0837  -3.0048  -2.0289  -1.0507  -0.5959  -0.5051
    -0.2648  -0.0567   0.2715   0.7168   0.7637   0.7706   1.0243   1.0305
     1.3767   1.5206   1.5608   1.5684   1.5978   1.9037   1.9465   1.9976
     2.2199   2.2593   2.2796   2.3860   2.4272   2.4884   2.6730   2.6923
     2.7829   2.7909   2.8255   2.9693   3.0270   3.1084   3.1249   3.1313
     3.1903   3.2346   3.3155   3.3812   3.4844   3.5056   3.5657   3.5938
     3.6202   3.6215   3.7323   3.7527   3.8171   3.8470   3.9018   4.0282
     4.1557   4.1660   4.2273   4.2282   4.2621   4.3352   4.4029   4.4294
     4.6084   4.6375   4.6477   4.6647   4.6651   4.7539   4.8273   4.8494
     4.9045   4.9286   4.9921   5.0603   5.0995   5.1155   5.1584   5.2195
     5.2249   5.3283   5.4110   5.4480   5.4923   5.4956   5.5888   5.6029
     5.6650   5.7291   5.7319   5.7511   5.7649   5.7944   5.8437   5.8547
     5.9606   5.9733   6.0767   6.0797   6.1204   6.1422   6.1475   6.2795
     6.3172   6.3472   6.3786   6.3911   6.4370   6.4601   6.4705   6.5081
     6.5650   6.5796   6.5844   6.6607   6.7082   6.7375   6.7903   6.8012
     6.8376   6.8838   6.9002   6.9858   7.0133   7.0613   7.0984   7.1046
     7.1329   7.1765   7.1798   7.1976   7.2658   7.3477   7.3791   7.4190
     7.5046   7.5083   7.5347   7.5726   7.5884   7.5915   7.6295   7.6827
     7.7290   7.7706   7.7795   7.7829   7.7983   7.8566   7.8915   7.9522
     7.9919   8.0289   8.0420   8.0683   8.1130   8.1346   8.1421   8.1801
     8.1938   8.2617   8.2756   8.2858   8.2921   8.3665   8.3706   8.3964
     8.4265   8.4492   8.5003   8.5093   8.5629   8.5749   8.6508   8.6915
     8.7470   8.7615   8.7738   8.7857   8.8340   8.9107   8.9240   8.9678
     8.9868   9.0009   9.0494   9.0743   9.0890   9.1489   9.1589   9.1787
     9.2382   9.2567   9.2851   9.2869   9.3457   9.3996   9.4188   9.4803
     9.5398   9.5444   9.5544   9.6167   9.6343   9.6727   9.6767   9.7594
     9.7938   9.8057   9.8728   9.8802   9.9088   9.9734   9.9813  10.0175
    10.0456  10.0598  10.0757  10.1067  10.1514  10.2024  10.2229  10.2662
    10.2710  10.2959  10.3128  10.3177  10.3511  10.3726  10.4936  10.5055
    10.5169  10.5724  10.5862  10.6355  10.6590  10.7176  10.7360  10.7816
    10.7970  10.8110  10.8437  10.8863  10.8999  10.9298  10.9501  10.9865
    11.0031  11.0188  11.0493  11.0721  11.0890  11.1287  11.1290  11.1712
    11.1815  11.2340  11.2597  11.3347  11.3408  11.3747  11.3845  11.4532
    11.4663  11.4991  11.5399  11.5485  11.5701  11.5953  11.6215  11.6286
    11.7005  11.7236  11.7715  11.7902  11.8016  11.8219  11.9072  11.9444
    11.9559  12.0175  12.0497  12.0989  12.1122  12.1435  12.1846  12.2116
    12.2657  12.2703  12.3089  12.3147  12.3363  12.3614  12.4185  12.4197
    12.4369  12.4790  12.5263  12.5384  12.6036  12.6105  12.6897  12.6995
    12.7245  12.7378  12.7556  12.7712  12.7938  12.8127  12.8407  12.8909
    12.8909  12.9203  12.9517  13.0101  13.0261  13.0382  13.0721  13.1090
    13.1244  13.1869  13.2421  13.2606  13.3084  13.3425  13.3454  13.3744
    13.4205  13.4622  13.4804  13.4819  13.5125  13.5564  13.5818  13.6001
    13.6358  13.6566  13.7229  13.7481  13.7682  13.8020  13.8717  13.8957
    13.9133  13.9761  14.0020  14.0153  14.0448  14.0910  14.0951  14.1218
    14.2223  14.2375  14.2557  14.2963  14.3518  14.3733  14.3805  14.4093
    14.4582  14.4786  14.5229  14.5241  14.5627  14.5714  14.6203  14.6209
    14.6339  14.6794  14.6948  14.7340  14.7435  14.7859  14.8082  14.8511
    14.8641  14.8837  14.9142  14.9341  14.9485  14.9494  14.9884  14.9920
    15.0333  15.0988  15.1108  15.1277  15.2349  15.2615  15.2648  15.2948
    15.2965  15.3279  15.3731  15.4165  15.4398  15.4460  15.4867  15.4982
    15.5016  15.5785  15.5897  15.5920  15.6154  15.6387  15.6735  15.6766
    15.7010  15.7261  15.7466  15.7467  15.7791  15.8438  15.8763  15.8904
    15.9152  15.9274  15.9350  15.9984  16.0131  16.0541  16.0802  16.1067
    16.1375  16.1469  16.1655  16.1964

          k = 0.0000 0.0000 0.0316 ( 76680 PWs)   bands (ev):

   -21.6624 -21.0891 -21.0406 -20.4783 -20.1276 -19.6154 -19.5067 -19.0224
   -18.8426 -18.3447 -18.0395 -17.8434 -17.4790 -17.3304 -17.0041 -16.7835
   -16.4895 -15.6475 -15.1900 -14.9438 -14.7180 -14.4425 -14.3576 -13.9441
   -13.4844 -13.0319 -12.9973 -12.6203 -12.4233 -12.0987 -11.6457 -11.4761
   -11.2367 -11.1322 -10.8470 -10.6773 -10.6648  -9.9866  -9.8124  -9.7165
    -9.5296  -9.4810  -9.1653  -9.0898  -9.0578  -8.9883  -8.9427  -8.8541
    -8.6997  -8.6274  -8.6100  -8.3554  -8.3507  -8.2357  -8.0652  -7.9978
    -7.7660  -7.3547  -7.3251  -7.2422  -7.0661  -6.9456  -6.8835  -6.7301
    -6.5796  -6.2346  -6.0318  -6.0041  -5.6655  -5.4356  -5.3626  -4.9231
    -4.7767  -4.4653  -4.1052  -3.0562  -1.9721  -1.0249  -0.6235  -0.4905
    -0.1967  -0.0699   0.3707   0.6966   0.7360   0.7894   1.0440   1.0691
     1.3929   1.5141   1.5379   1.5443   1.5557   1.8529   1.9504   1.9602
     2.2149   2.2451   2.2543   2.3822   2.3842   2.5028   2.6914   2.7065
     2.7496   2.7927   2.8399   2.9276   2.9982   3.0622   3.1217   3.1630
     3.1739   3.2742   3.2854   3.3586   3.5048   3.5146   3.5250   3.5521
     3.6284   3.6289   3.7013   3.7700   3.7970   3.9016   3.9178   3.9745
     4.1495   4.1599   4.2351   4.2797   4.3047   4.3417   4.3659   4.4344
     4.5823   4.6098   4.6403   4.6805   4.7206   4.7637   4.7810   4.8346
     4.9225   4.9722   5.0006   5.0732   5.1357   5.1498   5.1641   5.2510
     5.2960   5.3416   5.4096   5.4638   5.4943   5.5722   5.5863   5.6578
     5.6770   5.6899   5.7177   5.7363   5.7888   5.8425   5.8819   5.8821
     5.9520   6.0358   6.0749   6.0937   6.1102   6.1543   6.1939   6.2643
     6.3073   6.3832   6.3881   6.3991   6.4381   6.4675   6.4799   6.5016
     6.6038   6.6146   6.6524   6.6929   6.7307   6.7422   6.7668   6.8113
     6.8410   6.8416   6.8740   6.9541   7.0321   7.0354   7.0759   7.0885
     7.1351   7.1523   7.1698   7.2043   7.2594   7.3376   7.3600   7.4017
     7.4703   7.4856   7.5330   7.5483   7.5569   7.6344   7.6504   7.6804
     7.6985   7.7470   7.7488   7.8125   7.8176   7.8538   7.8726   7.8809
     7.9551   7.9707   7.9866   8.0717   8.1306   8.1310   8.1545   8.1574
     8.1609   8.2083   8.2530   8.2730   8.2901   8.2996   8.3187   8.3802
     8.4057   8.4305   8.4435   8.4991   8.5190   8.5424   8.6521   8.6585
     8.7304   8.7355   8.7948   8.8100   8.8406   8.8904   8.9086   8.9210
     8.9429   8.9786   9.0312   9.0768   9.0868   9.0871   9.1143   9.1198
     9.1572   9.2108   9.2333   9.2699   9.3175   9.3576   9.3863   9.4774
     9.5281   9.5356   9.5677   9.6282   9.6337   9.6869   9.6943   9.7546
     9.8126   9.8458   9.8498   9.8831   9.9099   9.9535   9.9796  10.0034
    10.0234  10.0843  10.1241  10.1457  10.1511  10.2138  10.2217  10.2590
    10.2726  10.3147  10.3331  10.3531  10.3599  10.3967  10.4789  10.5055
    10.5509  10.5792  10.5995  10.6243  10.6768  10.7503  10.7539  10.7658
    10.7899  10.8151  10.9007  10.9286  10.9393  10.9534  10.9747  10.9885
    11.0194  11.0445  11.0808  11.1054  11.1162  11.1317  11.1495  11.1626
    11.1689  11.2246  11.2659  11.3205  11.3462  11.3717  11.4224  11.4817
[...]
     5.1091   5.1599   5.1649   5.2072   5.2671   5.2928   5.3024   5.3317
     5.3683   5.3745   5.4781   5.4942   5.5225   5.5651   5.6451   5.7018
     5.7105   5.8290   5.8393   5.8421   5.8645   5.8869   5.9183   6.0047
     6.0353   6.0598   6.1195   6.1620   6.2120   6.3174   6.3487   6.3492
     6.3765   6.4137   6.4452   6.4672   6.4724   6.5441   6.5745   6.6091
     6.6121   6.6147   6.6763   6.6801   6.6970   6.7585   6.8700   6.9032
     6.9136   6.9244   6.9985   7.0055   7.0435   7.0926   7.1192   7.1663
     7.1777   7.2020   7.2138   7.2440   7.2714   7.2808   7.3055   7.3273
     7.3431   7.3635   7.3681   7.4300   7.4379   7.4479   7.4915   7.4935
     7.5436   7.5477   7.6129   7.6278   7.6386   7.6696   7.6792   7.7245
     7.7917   7.8126   7.8461   7.8951   7.9326   7.9391   7.9555   7.9893
     7.9999   8.0390   8.0695   8.1459   8.1872   8.2116   8.2469   8.2821
     8.2874   8.3354   8.3508   8.3787   8.4740   8.4797   8.5336   8.5558
     8.5688   8.5959   8.6561   8.6903   8.6961   8.7564   8.7691   8.8378
     8.8576   8.8780   8.9121   8.9624   8.9870   8.9942   9.0820   9.0921
     9.1251   9.1306   9.1589   9.1828   9.2247   9.2696   9.3153   9.3250
     9.3864   9.4216   9.4560   9.4670   9.5114   9.5899   9.5944   9.6648
     9.7032   9.7396   9.8342   9.8630   9.9415   9.9509  10.0278  10.0850
    10.1025  10.1330  10.1576  10.2372  10.2566  10.2955  10.3771  10.4070
    10.4197  10.4286  10.4679  10.5229  10.5255  10.5365  10.5528  10.5743
    10.5784  10.6029  10.6974  10.7244  10.7425  10.7512  10.7833  10.7881
    10.7982  10.8967  10.9468  10.9530  10.9535  10.9945  11.0612  11.1132
    11.1164  11.1264  11.1597  11.2052  11.2325  11.2723  11.2939  11.3349
    11.3385  11.3431  11.3667  11.3771  11.4589  11.4655  11.5055  11.5082
    11.5452  11.5746  11.5993  11.6175  11.6215  11.6576  11.6823  11.6823
    11.7341  11.7375  11.7660  11.7748  11.8244  11.8706  11.9042  11.9354
    11.9605  12.0023  12.0292  12.0467  12.1948  12.2175  12.2981  12.3188
    12.3487  12.3575  12.3718  12.3939  12.4239  12.4766  12.5247  12.5416
    12.6063  12.6458  12.6707  12.6724  12.7169  12.7821  12.7957  12.8223
    12.8848  12.9071  12.9165  12.9277  12.9295  12.9745  12.9948  13.0845
    13.0850  13.1279  13.1707  13.1801  13.2184  13.2412  13.3511  13.3546
    13.3850  13.4085  13.4413  13.4700  13.5126  13.5750  13.5861  13.6297
    13.6302  13.6531  13.6863  13.7276  13.7388  13.7803  13.7867  13.8087
    13.8473  13.8849  13.9328  13.9523  13.9612  13.9761  13.9826  14.0215
    14.0397  14.0415  14.0519  14.0740  14.1070  14.1340  14.2151  14.2243
    14.2514  14.2552  14.2658  14.2961  14.3433  14.3593  14.3838  14.3852
    14.4232  14.4544  14.4733  14.5016  14.5111  14.5317  14.5614  14.5885
    14.5969  14.6323  14.7124  14.7291  14.7391  14.8016  14.8122  14.8450
    14.8534  14.8687  14.8852  14.9175  14.9443  14.9874  14.9881  15.0165
    15.0357  15.0517  15.0590  15.0839  15.1074  15.1254  15.1305  15.1523
    15.1640  15.1664  15.1914  15.1931  15.2587  15.2595  15.2671  15.2838
    15.3376  15.3438  15.3552  15.3637  15.3828  15.4350  15.4521  15.4639
    15.5090  15.5263  15.5674  15.5704  15.6551  15.6880  15.6965  15.7553
    15.7582  15.8209  15.8349  15.8485  15.9114  15.9135  15.9199  15.9256
    15.9288  15.9371  15.9454  15.9634

          k = 0.0000 0.0000 0.0519 ( 76618 PWs)   bands (ev):

   -21.4895 -21.3625 -20.9223 -20.7296 -20.0269 -19.7764 -18.9297 -18.8124
   -18.6370 -18.5265 -18.3011 -17.9917 -17.5203 -17.4165 -17.2074 -16.9881
   -16.2728 -16.0547 -15.1349 -14.9061 -14.3248 -14.2140 -13.8859 -13.6156
   -13.4280 -13.1508 -12.8375 -12.6675 -12.4592 -12.3702 -12.2346 -11.9615
   -11.4429 -11.1948 -10.9704 -10.7218 -10.1189  -9.9897  -9.8371  -9.7348
    -9.5061  -9.3958  -9.3640  -9.0748  -9.0328  -8.9179  -8.8587  -8.7690
    -8.7552  -8.6694  -8.6600  -8.5199  -8.3618  -8.0333  -7.8724  -7.8001
    -7.5943  -7.4874  -7.3038  -7.2584  -6.9477  -6.7038  -6.6323  -6.5329
    -6.4636  -6.2947  -6.2701  -6.1678  -5.9020  -5.6060  -5.3737  -5.1046
    -4.7700  -4.7129  -3.8242  -3.5799  -1.4321  -1.2050  -0.5161  -0.3836
    -0.1038   0.0874   0.5809   0.9558   0.9661   1.0099   1.1228   1.1747
     1.2819   1.2908   1.4140   1.4354   1.5799   1.6533   1.7877   1.8055
     1.8865   1.9399   2.1766   2.3535   2.3918   2.5019   2.5569   2.6381
     2.6430   2.7424   2.7597   2.9163   2.9399   2.9775   3.0849   3.0987
     3.1217   3.2091   3.2493   3.3425   3.4050   3.5018   3.5225   3.5606
     3.6527   3.7364   3.7727   3.8041   3.8859   3.9127   3.9429   4.0211
     4.0620   4.1054   4.1643   4.1824   4.2082   4.2683   4.3621   4.4429
     4.5297   4.5902   4.6795   4.7338   4.7989   4.9951   5.1031   5.1105
     5.1835   5.1864   5.1903   5.2160   5.2575   5.2627   5.2790   5.2970
     5.3466   5.3807   5.5002   5.5149   5.5322   5.5771   5.6228   5.6766
     5.7084   5.7757   5.7890   5.8247   5.9070   5.9374   5.9723   5.9785
     6.0027   6.1012   6.1423   6.1795   6.2152   6.2889   6.3319   6.3395
     6.4121   6.4335   6.4674   6.4769   6.4843   6.5485   6.5712   6.6090
     6.6185   6.6268   6.6374   6.7030   6.7669   6.7814   6.8427   6.8861
     6.9235   6.9364   6.9661   7.0055   7.0440   7.0854   7.1262   7.1443
     7.1577   7.1897   7.1981   7.2332   7.2715   7.2742   7.2917   7.3278
     7.3502   7.3687   7.3974   7.4242   7.4466   7.4547   7.4938   7.5255
     7.5423   7.5926   7.6013   7.6102   7.6345   7.6631   7.7311   7.7490
     7.7655   7.7995   7.8143   7.8488   7.8940   7.9051   7.9127   7.9407
     7.9643   8.0275   8.0609   8.1018   8.1503   8.1903   8.2067   8.2647
     8.2941   8.3635   8.3699   8.3841   8.4576   8.4876   8.5253   8.5629
     8.5889   8.6093   8.6506   8.6857   8.7188   8.7735   8.7757   8.8242
     8.8335   8.8972   8.9141   8.9697   8.9881   9.0172   9.0652   9.1026
     9.1161   9.1599   9.1666   9.1878   9.2070   9.2417   9.2945   9.3131
     9.3349   9.4171   9.4259   9.4421   9.4554   9.5551   9.5802   9.6816
     9.7322   9.7649   9.8030   9.9128   9.9717   9.9926  10.0303  10.0794
    10.1190  10.1561  10.1633  10.2077  10.2750  10.2930  10.3612  10.3914
    10.4196  10.4234  10.4608  10.4954  10.5156  10.5637  10.5724  10.5949
    10.6063  10.6231  10.6824  10.6935  10.7138  10.7557  10.7670  10.7711
    10.8411  10.8917  10.9280  10.9462  10.9837  11.0328  11.0661  11.1183
    11.1301  11.1551  11.1952  11.2018  11.2668  11.2847  11.3134  11.3215
    11.3337  11.3887  11.3910  11.4022  11.4206  11.4492  11.5101  11.5144
    11.5293  11.5661  11.5987  11.6144  11.6289  11.6359  11.6633  11.6758
    11.7014  11.7063  11.7711  11.7970  11.8203  11.8544  11.8834  11.9058
    11.9450  11.9660  12.0230  12.0400  12.1617  12.1917  12.3101  12.3410
    12.3523  12.4029  12.4395  12.4447  12.4917  12.4948  12.5248  12.5902
    12.6238  12.6752  12.6755  12.7346  12.7446  12.7610  12.7840  12.8225
    12.8501  12.8775  12.9226  12.9233  12.9651  13.0009  13.0064  13.0555
    13.0979  13.1118  13.1886  13.1964  13.2582  13.2635  13.3265  13.3841
    13.3972  13.4265  13.4352  13.4793  13.5092  13.5745  13.5877  13.6045
    13.6145  13.6434  13.6786  13.7305  13.7546  13.7935  13.8083  13.8270
    13.8515  13.9219  13.9220  13.9458  13.9657  13.9681  13.9986  14.0211
    14.0338  14.0491  14.0716  14.1407  14.1801  14.1877  14.2157  14.2268
    14.2446  14.2640  14.2941  14.3133  14.3190  14.3445  14.3754  14.3947
    14.4318  14.4488  14.5056  14.5310  14.5561  14.5564  14.5711  14.5932
    14.6248  14.6472  14.6842  14.7257  14.7312  14.7716  14.7793  14.8031
    14.8612  14.8677  14.8890  14.9310  14.9313  14.9360  14.9621  15.0059
    15.0236  15.0443  15.0578  15.0791  15.1173  15.1197  15.1308  15.1406
    15.1525  15.1696  15.1897  15.2064  15.2154  15.2204  15.2572  15.2611
    15.2909  15.3369  15.3499  15.3567  15.3910  15.4238  15.4436  15.4830
    15.4941  15.5330  15.5446  15.5740  15.6658  15.6700  15.6782  15.7060
    15.7714  15.7930  15.8142  15.8172  15.8420  15.8590  15.8787  15.9060
    15.9103  15.9243  15.9311  15.9561

          k = 0.0000 0.0000 0.0541 ( 76632 PWs)   bands (ev):

   -21.4706 -21.3846 -20.9126 -20.7423 -20.0211 -19.7849 -18.8646 -18.8084
   -18.6859 -18.5433 -18.2547 -18.0487 -17.4863 -17.4037 -17.2453 -16.9982
   -16.2211 -16.1071 -15.1284 -14.9157 -14.3185 -14.1757 -13.8916 -13.5844
   -13.4184 -13.2081 -12.8267 -12.6110 -12.4895 -12.3609 -12.2732 -11.9838
   -11.4478 -11.2051 -10.9567 -10.7297 -10.1054  -9.9477  -9.8381  -9.7899
    -9.4809  -9.3929  -9.3914  -9.0533  -9.0301  -8.9427  -8.8447  -8.7685
    -8.7438  -8.6776  -8.6724  -8.5258  -8.3474  -8.0415  -7.8649  -7.7834
    -7.6051  -7.4357  -7.3344  -7.2842  -6.9141  -6.7425  -6.6227  -6.4627
    -6.4221  -6.3332  -6.3081  -6.2097  -5.8302  -5.6811  -5.3741  -5.0689
    -4.7696  -4.7464  -3.7694  -3.6370  -1.3737  -1.2597  -0.4833  -0.4010
    -0.0727   0.0361   0.6747   0.8632   0.9934   1.0316   1.0941   1.1472
     1.3246   1.3335   1.3970   1.4452   1.5935   1.6850   1.7680   1.7896
     1.8212   1.9034   2.1974   2.3290   2.4044   2.5337   2.5744   2.6052
     2.6271   2.7204   2.7803   2.8914   2.9738   3.0101   3.0465   3.0829
     3.1289   3.2132   3.2341   3.3211   3.4372   3.5060   3.5166   3.5507
     3.6432   3.7508   3.7996   3.8274   3.8681   3.8930   3.9267   4.0537
     4.0722   4.1168   4.1350   4.1899   4.2123   4.2518   4.3140   4.4274
     4.5584   4.6169   4.6474   4.7064   4.8930   5.0274   5.0752   5.1179
     5.1406   5.2039   5.2077   5.2467   5.2472   5.2738   5.3118   5.3207
     5.3253   5.3848   5.4704   5.5171   5.5350   5.5720   5.6238   5.6995
     5.7049   5.7342   5.7542   5.8094   5.9108   5.9172   5.9677   6.0171
     6.0454   6.1554   6.1639   6.1853   6.2137   6.2459   6.2943   6.3500
     6.3960   6.4222   6.4756   6.4990   6.5047   6.5761   6.5762   6.5956
     6.6000   6.6179   6.6838   6.7582   6.7759   6.7950   6.8322   6.8772
     6.9062   6.9089   6.9806   7.0349   7.0486   7.0634   7.0917   7.1360
     7.1446   7.1603   7.1966   7.2331   7.2498   7.2548   7.2771   7.3366
     7.3591   7.3696   7.4045   7.4355   7.4536   7.4721   7.5315   7.5377
     7.5788   7.5886   7.6044   7.6103   7.6779   7.6929   7.6991   7.7480
     7.7631   7.7772   7.8308   7.8413   7.8524   7.8549   7.8779   7.9226
     7.9342   7.9398   8.0721   8.0773   8.1409   8.1625   8.2179   8.2707
     8.3214   8.3365   8.3639   8.3776   8.4632   8.4660   8.5493   8.5738
     8.5961   8.6538   8.6617   8.6796   8.7116   8.7571   8.7801   8.7809
     8.8752   8.8845   8.9180   9.0015   9.0209   9.0355   9.0438   9.0675
     9.1105   9.1459   9.1646   9.2016   9.2180   9.2387   9.2704   9.3202
     9.3503   9.3702   9.3991   9.4027   9.4480   9.5314   9.5442   9.6828
     9.7354   9.7893   9.8493   9.9428   9.9857  10.0276  10.0453  10.0624
    10.0942  10.1503  10.1839  10.2139  10.2872  10.3022  10.3188  10.3525
    10.4065  10.4236  10.4649  10.4788  10.5267  10.5701  10.6070  10.6090
    10.6354  10.6568  10.6667  10.6801  10.6876  10.7408  10.7504  10.7807
    10.8300  10.8767  10.9246  10.9896  11.0128  11.0306  11.0498  11.1157
    11.1236  11.1829  11.2303  11.2399  11.2719  11.2749  11.3116  11.3318
    11.3451  11.3822  11.3960  11.4075  11.4348  11.4611  11.4970  11.5232
    11.5382  11.5398  11.5985  11.6139  11.6140  11.6194  11.6606  11.6712
    11.6824  11.7105  11.7473  11.8000  11.8059  11.8477  11.8600  11.8918
    11.9284  11.9835  11.9842  12.0843  12.1510  12.1771  12.2561  12.3364
    12.3630  12.4619  12.4681  12.4901  12.5037  12.5285  12.5710  12.5918
    12.6689  12.6748  12.7047  12.7149  12.7448  12.7525  12.7900  12.8270
    12.8612  12.8856  12.9238  12.9260  12.9674  12.9994  13.0258  13.0275
    13.1041  13.1378  13.1529  13.2160  13.2452  13.3008  13.3306  13.3606
    13.4006  13.4392  13.4685  13.4712  13.5242  13.5416  13.5826  13.6162
    13.6187  13.6634  13.6657  13.7106  13.7507  13.7533  13.8031  13.8198
    13.8452  13.9085  13.9283  13.9614  13.9881  14.0001  14.0183  14.0455
    14.0464  14.0526  14.0671  14.1644  14.1887  14.1922  14.2401  14.2455
    14.2470  14.2822  14.2848  14.3064  14.3452  14.3848  14.3960  14.4053
    14.4566  14.4679  14.4992  14.5703  14.5785  14.5852  14.5957  14.6230
    14.6376  14.6625  14.6913  14.7064  14.7097  14.7335  14.7856  14.7864
    14.8012  14.8308  14.8664  14.8688  14.8973  14.9060  14.9322  14.9411
    14.9910  15.0438  15.0513  15.0879  15.1101  15.1143  15.1272  15.1494
    15.1631  15.1819  15.1877  15.1980  15.2332  15.2474  15.2691  15.2849
    15.3144  15.3404  15.3569  15.3957  15.4115  15.4151  15.4275  15.4708
    15.5103  15.5310  15.5459  15.5693  15.5933  15.6324  15.6726  15.6819
    15.7366  15.7513  15.7949  15.7969  15.8307  15.8352  15.8529  15.8765
    15.8863  15.8997  15.9131  15.9178

          k = 0.0000 0.0000-0.0564 ( 76670 PWs)   bands (ev):

   -21.4616 -21.3947 -20.9090 -20.7469 -20.0191 -19.7878 -18.8249 -18.8112
   -18.7175 -18.5477 -18.2309 -18.0757 -17.4748 -17.3945 -17.2631 -17.0015
   -16.1828 -16.1457 -15.1261 -14.9191 -14.3165 -14.1613 -13.8951 -13.5753
   -13.4067 -13.2344 -12.8237 -12.5586 -12.5391 -12.3196 -12.3180 -11.9907
   -11.4494 -11.2086 -10.9518 -10.7326 -10.1022  -9.9207  -9.8317  -9.8269
    -9.4675  -9.4075  -9.3895  -9.0556  -9.0121  -8.9590  -8.8393  -8.7681
    -8.7397  -8.6841  -8.6736  -8.5278  -8.3424  -8.0445  -7.8622  -7.7775
    -7.6089  -7.4038  -7.3589  -7.2935  -6.8986  -6.7597  -6.6201  -6.4131
    -6.3928  -6.3613  -6.3494  -6.2207  -5.7600  -5.7522  -5.3743  -5.0551
    -4.7683  -4.7607  -3.7326  -3.6746  -1.3196  -1.3126  -0.4668  -0.4125
    -0.0503   0.0071   0.7615   0.7767   1.0082   1.0392   1.0818   1.1348
     1.3513   1.3596   1.3605   1.4542   1.6209   1.7059   1.7353   1.7458
     1.8425   1.8805   2.2063   2.3188   2.4091   2.5583   2.5799   2.5816
     2.6214   2.7117   2.7904   2.8798   3.0092   3.0095   3.0447   3.0465
     3.1487   3.1915   3.2470   3.3088   3.4706   3.4733   3.5219   3.5537
     3.6389   3.7529   3.8245   3.8405   3.8581   3.8626   3.9320   4.0761
     4.0810   4.0966   4.1247   4.1925   4.2382   4.2460   4.2795   4.4220
     4.5749   4.6294   4.6336   4.6886   4.9776   5.0070   5.0586   5.0732
     5.1594   5.1937   5.2322   5.2346   5.2537   5.2626   5.3058   5.3647
     5.3668   5.4067   5.4345   5.4465   5.5430   5.5934   5.6518   5.6766
     5.7087   5.7128   5.7664   5.8030   5.8748   5.9217   5.9570   6.0654
     6.0799   6.1284   6.1905   6.1938   6.2185   6.2270   6.2733   6.3638
     6.3657   6.4118   6.4869   6.5177   6.5184   6.5540   6.5738   6.5756
     6.6124   6.6609   6.7161   6.7414   6.7417   6.8249   6.8360   6.8707
     6.9100   6.9260   6.9598   7.0279   7.0413   7.0533   7.1199   7.1211
     7.1364   7.1382   7.2147   7.2276   7.2351   7.2642   7.2782   7.3130
     7.3369   7.3548   7.4331   7.4560   7.4666   7.4911   7.5368   7.5575
     7.5587   7.5716   7.6348   7.6502   7.6599   7.6701   7.7138   7.7406
     7.7799   7.7877   7.8123   7.8180   7.8372   7.8583   7.8602   7.9119
     7.9180   7.9410   8.0126   8.0863   8.1445   8.1565   8.2631   8.2740
     8.3168   8.3228   8.3392   8.3663   8.4634   8.4976   8.5123   8.5985
     8.6157   8.6595   8.6814   8.6905   8.7263   8.7318   8.7385   8.7577
     8.8845   8.9191   8.9600   8.9686   9.0014   9.0257   9.0762   9.0814
     9.1099   9.1170   9.1624   9.1776   9.2057   9.2667   9.3182   9.3260
     9.3285   9.3445   9.3780   9.3968   9.4444   9.5236   9.5253   9.6844
     9.7318   9.7953   9.8912   9.9544   9.9863  10.0279  10.0477  10.0601
    10.0766  10.1548  10.1951  10.2260  10.2789  10.3046  10.3109  10.3313
    10.3886  10.4334  10.4581  10.4744  10.5531  10.5803  10.5963  10.6194
    10.6366  10.6484  10.6626  10.6882  10.7091  10.7384  10.7419  10.7860
    10.7888  10.8786  10.9536  10.9975  11.0205  11.0271  11.0303  11.1095
    11.1237  11.2271  11.2310  11.2335  11.2721  11.2909  11.3120  11.3461
    11.3469  11.3484  11.3896  11.3958  11.4520  11.4828  11.5064  11.5327
    11.5487  11.5530  11.5531  11.5961  11.5991  11.6230  11.6619  11.6715
    11.6885  11.7218  11.7296  11.7807  11.8214  11.8290  11.8628  11.8845
    11.9297  11.9611  11.9914  12.1235  12.1499  12.1779  12.2069  12.3339
    12.3746  12.4450  12.4987  12.5080  12.5092  12.5750  12.5906  12.6222
    12.6245  12.6602  12.6813  12.7296  12.7389  12.7485  12.8287  12.8418
    12.8536  12.8905  12.9194  12.9276  12.9825  13.0221  13.0268  13.0357
    13.0662  13.1056  13.1810  13.2164  13.2227  13.2918  13.3516  13.3561
    13.4049  13.4512  13.4883  13.5095  13.5152  13.5307  13.5426  13.6096
    13.6511  13.6629  13.6744  13.7105  13.7117  13.7339  13.7818  13.8260
    13.8390  13.9104  13.9354  13.9571  14.0099  14.0100  14.0383  14.0480
    14.0609  14.0634  14.1182  14.1422  14.1437  14.1852  14.2174  14.2432
    14.2506  14.2722  14.2813  14.3216  14.3681  14.3955  14.4458  14.4612
    14.4818  14.4825  14.5459  14.5471  14.5509  14.5608  14.6271  14.6291
    14.6454  14.6456  14.6804  14.6847  14.6927  14.7501  14.7755  14.8028
    14.8123  14.8295  14.8352  14.8533  14.8565  14.8779  14.9403  14.9500
    14.9519  14.9664  15.0617  15.0637  15.1141  15.1198  15.1345  15.1535
    15.1690  15.1705  15.1865  15.2181  15.2261  15.2880  15.2962  15.3035
    15.3591  15.3697  15.3713  15.3794  15.4246  15.4284  15.4314  15.4519
    15.5092  15.5133  15.5312  15.5340  15.5559  15.5998  15.6556  15.7113
    15.7400  15.7523  15.7901  15.7992  15.8040  15.8223  15.8372  15.8511
    15.8696  15.8792  15.9179  15.9232

     the Fermi energy is    -2.5972 ev

     Writing output data file C_2Z_1A_W9.save/

     init_run     :     11.52s CPU     11.82s WALL (       1 calls)
     electrons    :   4875.84s CPU   4911.57s WALL (       1 calls)

     Called by init_run:
     wfcinit      :      0.00s CPU      0.00s WALL (       1 calls)
     potinit      :      0.99s CPU      1.09s WALL (       1 calls)
     hinit0       :      7.80s CPU      7.87s WALL (       1 calls)

     Called by electrons:
     c_bands      :   4875.82s CPU   4911.40s WALL (       1 calls)
     v_of_rho     :      0.71s CPU      0.74s WALL (       1 calls)
     newd         :      0.49s CPU      0.57s WALL (       1 calls)

     Called by c_bands:
     init_us_2    :      0.32s CPU      0.34s WALL (      26 calls)
     cegterg      :   4760.09s CPU   4791.13s WALL (      26 calls)

     Called by sum_band:

     Called by *egterg:
     h_psi        :    945.38s CPU    959.86s WALL (     530 calls)
     s_psi        :     60.88s CPU     60.96s WALL (     530 calls)
     g_psi        :      6.22s CPU      6.24s WALL (     478 calls)
     cdiaghg      :   2563.06s CPU   2566.18s WALL (     504 calls)

     Called by h_psi:
     h_psi:pot    :    941.34s CPU    954.50s WALL (     530 calls)
     h_psi:calbec :     65.35s CPU     66.10s WALL (     530 calls)
     vloc_psi     :    815.24s CPU    827.51s WALL (     530 calls)
     add_vuspsi   :     60.74s CPU     60.84s WALL (     530 calls)

     General routines
     calbec       :     65.34s CPU     66.08s WALL (     530 calls)
     fft          :      0.81s CPU      0.86s WALL (      14 calls)
     ffts         :      0.01s CPU      0.01s WALL (       1 calls)
     fftw         :    716.11s CPU    727.65s WALL (  352394 calls)
     interpolate  :      0.06s CPU      0.07s WALL (       1 calls)
     davcio       :      0.00s CPU      2.76s WALL (      52 calls)

     Parallel routines
     fft_scatt_xy :    107.58s CPU    108.43s WALL (  352409 calls)
     fft_scatt_yz :    308.20s CPU    316.54s WALL (  352409 calls)

     PWSCF        :     1h22m CPU       22h 1m WALL

      26h

   This run was terminated on:  23:50: 5  28Apr2021            

=------------------------------------------------------------------------------=
   JOB DONE.
=------------------------------------------------------------------------------=
