
     Program PWSCF v.6.3 starts on 28Apr2021 at 21:56: 6 

     This program is part of the open-source Quantum ESPRESSO suite
     for quantum simulation of materials; please cite
         "P. Giannozzi et al., J. Phys.:Condens. Matter 21 395502 (2009);
         "P. Giannozzi et al., J. Phys.:Condens. Matter 29 465901 (2017);
          URL http://www.quantum-espresso.org", 
     in publications or presentations arising from this work. More details at
     http://www.quantum-espresso.org/quote

     Parallel version (MPI), running on    16 processors
     R & G space division:  proc/nbgrp/npool/nimage =      16
     Waiting for input...
     Reading input from standard input
     Message from routine read_cards :
     DEPRECATED: no units specified in CELL_PARAMETERS card

     Current dimensions of program PWSCF are:
     Max number of different atomic species (ntypx) = 10
     Max number of k-points (npk) =  40000
     Max angular momentum in pseudopotentials (lmaxx) =  3

     Atomic positions and unit cell read from directory:
     /home/zfwang/scratch/GNRDATASET/AGNR/C_2Z_1A_W7/C_2Z_1A_W7.save/


     Subspace diagonalization in iterative solution of the eigenvalue problem:
     a serial algorithm will be used


     Parallelization info
     --------------------
     sticks:   dense  smooth     PW     G-vecs:    dense   smooth      PW
     Min        2556     852    225               199304    38350    5232
     Max        2557     853    226               199305    38353    5233
     Sum       40909   13645   3615              3188877   613615   83713



     bravais-lattice index     =            0
     lattice parameter (alat)  =       1.8897  a.u.
     unit-cell volume          =   17957.3181 (a.u.)^3
     number of atoms/cell      =           36
     number of atomic types    =            2
     number of electrons       =       120.00
     number of Kohn-Sham states=          500
     kinetic-energy cutoff     =      40.0000  Ry
     charge density cutoff     =     480.0000  Ry
     Exchange-correlation      = PBE ( 1  4  3  4 0 0)

     celldm(1)=  18.897261  celldm(2)=   3.000000  celldm(3)=   0.887000
     celldm(4)=   0.000000  celldm(5)=   0.000000  celldm(6)=   0.000000

     crystal axes: (cart. coord. in units of alat)
               a(1) = (  10.000000   0.000000   0.000000 )  
               a(2) = (   0.000000  30.000000   0.000000 )  
               a(3) = (   0.000000   0.000000   8.870000 )  

     reciprocal axes: (cart. coord. in units 2 pi/alat)
               b(1) = (  0.100000  0.000000  0.000000 )  
               b(2) = (  0.000000  0.033333  0.000000 )  
               b(3) = (  0.000000  0.000000  0.112740 )  


     PseudoPot. # 1 for C  read from file:
     /home/zfwang/hp_home/MySoftware/qe-6.3/pseudo/C.pbe-n-rrkjus_psl.0.1.UPF
     MD5 check sum: fff530ed632a789b3b184014e67dd7f1
     Pseudo is Ultrasoft + core correction, Zval =  4.0
     Generated using "atomic" code by A. Dal Corso v.5.0.2 svn rev. 9415
     Using radial grid of 1073 points,  4 beta functions with: 
                l(1) =   0
                l(2) =   0
                l(3) =   1
                l(4) =   1
     Q(r) pseudized with 0 coefficients 


     PseudoPot. # 2 for H  read from file:
     /home/zfwang/hp_home/MySoftware/qe-6.3/pseudo/H.pbe-rrkjus_psl.0.1.UPF
     MD5 check sum: e164a6907b691c6980f16942be34de84
     Pseudo is Ultrasoft, Zval =  1.0
     Generated using "atomic" code by A. Dal Corso v.5.0.2 svn rev. 9415
     Using radial grid of  929 points,  2 beta functions with: 
                l(1) =   0
                l(2) =   0
     Q(r) pseudized with 0 coefficients 


     atomic species   valence    mass     pseudopotential
        C              4.00    12.01070     C ( 1.00)
        H              1.00     1.00794     H ( 1.00)

     No symmetry found



   Cartesian axes

     site n.     atom                  positions (alat units)
         1           C   tau(   1) = (   4.9999998  10.9585277   4.2491431  )
         2           C   tau(   2) = (   5.0000016  12.1662316   8.3628786  )
         3           C   tau(   3) = (   4.9999991  11.9308101   3.2094980  )
         4           C   tau(   4) = (   5.0000013  13.1047612   7.3367252  )
         5           C   tau(   5) = (   4.9999993  13.3215614   3.5710485  )
         6           C   tau(   6) = (   5.0000010  14.5066007   7.6738207  )
         7           C   tau(   7) = (   5.0000012  11.3357151   5.5608841  )
         8           C   tau(   8) = (   4.9999999  11.5692750   1.8662872  )
         9           C   tau(   9) = (   5.0000010  12.7077715   5.9495049  )
        10           C   tau(  10) = (   4.9999993  14.3068009   2.5565990  )
        11           C   tau(  11) = (   5.0000004  15.4932864   6.6545009  )
        12           C   tau(  12) = (   4.9999987  15.6930592   2.9017507  )
        13           C   tau(  13) = (   5.0000003  16.8951102   6.9915185  )
        14           C   tau(  14) = (   5.0000008  12.5342573   0.8456622  )
        15           C   tau(  15) = (   4.9999998  13.6999990   4.9454241  )
        16           C   tau(  16) = (   5.0000004  13.9275769   1.1906068  )
        17           C   tau(  17) = (   4.9999996  15.0952387   5.2911159  )
        18           C   tau(  18) = (   4.9999992  16.6783313   1.8872854  )
        19           C   tau(  19) = (   4.9999995  17.8336007   5.9654683  )
        20           C   tau(  20) = (   4.9999989  18.0690596   2.2488758  )
        21           C   tau(  21) = (   5.0000006  14.9046387   0.1671586  )
        22           C   tau(  22) = (   4.9999987  16.0723203   4.2677688  )
        23           C   tau(  23) = (   5.0000004  17.2921143   8.3787544  )
        24           C   tau(  24) = (   5.0000001  16.2998771   0.5129301  )
        25           C   tau(  25) = (   4.9999986  17.4656282   4.6125925  )
        26           C   tau(  26) = (   5.0000005  18.6641766   8.7675797  )
        27           C   tau(  27) = (   4.9999995  19.0412662   1.2090387  )
        28           C   tau(  28) = (   4.9999986  18.4305717   3.5920660  )
        29           H   tau(  29) = (   4.9999996   9.9015526   3.9771246  )
        30           H   tau(  30) = (   5.0000017  11.1012034   8.1395742  )
        31           H   tau(  31) = (   5.0000027  10.5592084   6.3225426  )
        32           H   tau(  32) = (   4.9999999  10.5113272   1.5954498  )
        33           H   tau(  33) = (   4.9999997  18.8986196   6.1888403  )
        34           H   tau(  34) = (   5.0000011  19.4407064   8.0057589  )
        35           H   tau(  35) = (   4.9999995  20.0983422   1.4812129  )
        36           H   tau(  36) = (   4.9999985  19.4885915   3.8627963  )

     number of k points=    26  Marzari-Vanderbilt smearing, width (Ry)=  0.0100
                       cart. coord. in units 2pi/alat
        k(    1) = (   0.0000000   0.0000000   0.0000000), wk =   0.0400000
        k(    2) = (   0.0000000   0.0000000   0.0022548), wk =   0.0800000
        k(    3) = (   0.0000000   0.0000000   0.0045096), wk =   0.0800000
        k(    4) = (   0.0000000   0.0000000   0.0067644), wk =   0.0800000
        k(    5) = (   0.0000000   0.0000000   0.0090192), wk =   0.0800000
        k(    6) = (   0.0000000   0.0000000   0.0112740), wk =   0.0800000
        k(    7) = (   0.0000000   0.0000000   0.0135287), wk =   0.0800000
        k(    8) = (   0.0000000   0.0000000   0.0157835), wk =   0.0800000
        k(    9) = (   0.0000000   0.0000000   0.0180383), wk =   0.0800000
        k(   10) = (   0.0000000   0.0000000   0.0202931), wk =   0.0800000
        k(   11) = (   0.0000000   0.0000000   0.0225479), wk =   0.0800000
        k(   12) = (   0.0000000   0.0000000   0.0248027), wk =   0.0800000
        k(   13) = (   0.0000000   0.0000000   0.0270575), wk =   0.0800000
        k(   14) = (   0.0000000   0.0000000   0.0293123), wk =   0.0800000
        k(   15) = (   0.0000000   0.0000000   0.0315671), wk =   0.0800000
        k(   16) = (   0.0000000   0.0000000   0.0338219), wk =   0.0800000
        k(   17) = (   0.0000000   0.0000000   0.0360767), wk =   0.0800000
        k(   18) = (   0.0000000   0.0000000   0.0383315), wk =   0.0800000
        k(   19) = (   0.0000000   0.0000000   0.0405862), wk =   0.0800000
        k(   20) = (   0.0000000   0.0000000   0.0428410), wk =   0.0800000
        k(   21) = (   0.0000000   0.0000000   0.0450958), wk =   0.0800000
        k(   22) = (   0.0000000   0.0000000   0.0473506), wk =   0.0800000
        k(   23) = (   0.0000000   0.0000000   0.0496054), wk =   0.0800000
        k(   24) = (   0.0000000   0.0000000   0.0518602), wk =   0.0800000
        k(   25) = (   0.0000000   0.0000000   0.0541150), wk =   0.0800000
        k(   26) = (   0.0000000   0.0000000  -0.0563698), wk =   0.0400000

     Dense  grid:  3188877 G-vectors     FFT dimensions: ( 135, 400, 120)

     Smooth grid:   613615 G-vectors     FFT dimensions: (  80, 240,  72)

     Estimated max dynamical RAM per process >     740.67 MB

     Estimated total dynamical RAM >      11.57 GB

     The potential is recalculated from file :
     /home/zfwang/scratch/GNRDATASET/AGNR/C_2Z_1A_W7/C_2Z_1A_W7.save/charge-density.dat


     negative rho (up, down):  2.130E-04 0.000E+00
     Starting wfcs are  120 randomized atomic wfcs +  380 random wfcs

     Band Structure Calculation
     Davidson diagonalization with overlap

     ethr =  8.33E-09,  avg # of iterations = 18.3

     total cpu time spent up to now is     3563.7 secs

     End of band structure calculation

          k = 0.0000 0.0000 0.0000 ( 76717 PWs)   bands (ev):

   -21.8859 -20.9914 -20.5561 -20.5096 -19.8668 -19.5149 -19.4354 -18.5539
   -18.0098 -17.7051 -17.0936 -16.8817 -16.6933 -16.0046 -15.7472 -15.1556
   -14.8462 -14.6965 -14.6280 -13.9876 -13.2520 -12.4573 -12.1268 -11.8621
   -11.7986 -11.3112 -10.6989 -10.6283 -10.3885 -10.3270 -10.1361 -10.1137
    -9.9523  -9.8983  -9.7058  -9.5787  -9.1335  -9.1170  -8.9520  -8.4987
    -8.4007  -8.3656  -8.3358  -8.2614  -7.9997  -7.9658  -7.6694  -7.6427
    -7.3280  -7.2781  -7.2292  -6.2941  -6.2359  -6.1836  -5.7607  -5.5638
    -4.8913  -4.7753  -4.3190  -2.9670  -2.6525  -1.1925  -1.0176  -0.8881
    -0.2337   0.2207   0.3428   0.4082   0.6433   0.7307   0.9677   1.2587
     1.4733   1.5229   1.8120   1.8170   1.9957   2.0852   2.1020   2.1353
     2.1864   2.2932   2.3519   2.3567   2.3884   2.4527   2.5534   2.5809
     2.5886   2.6262   2.7712   2.8165   2.8213   2.8663   3.1455   3.1538
     3.1786   3.2231   3.2858   3.3078   3.3802   3.4323   3.4909   3.4979
     3.6394   3.6709   3.7217   3.7233   3.8155   3.9544   3.9958   4.0493
     4.0562   4.1767   4.1767   4.1837   4.1944   4.2205   4.2453   4.3183
     4.3380   4.3602   4.4395   4.4704   4.4775   4.5649   4.5683   4.5782
     4.6218   4.6724   4.6915   4.6962   4.7832   4.8482   5.0726   5.0797
     5.1057   5.1205   5.1569   5.1768   5.1832   5.2339   5.2440   5.2981
     5.3197   5.3227   5.3850   5.4125   5.4390   5.5241   5.6488   5.6883
     5.7808   5.8174   5.9171   6.0280   6.0644   6.0679   6.1117   6.1456
     6.1904   6.2712   6.3279   6.3332   6.3403   6.3676   6.3879   6.4927
     6.5290   6.5447   6.5575   6.6094   6.6186   6.6312   6.6657   6.6930
     6.8284   6.8612   6.9132   6.9600   6.9647   7.0017   7.0429   7.2076
     7.2230   7.2863   7.3348   7.3399   7.3643   7.5046   7.5140   7.5676
     7.6448   7.7157   7.7191   7.7574   7.7829   7.8024   7.8632   7.8730
     7.9562   7.9963   7.9997   8.0212   8.0327   8.0517   8.0881   8.1194
     8.1728   8.2377   8.3049   8.3577   8.3662   8.3684   8.3771   8.4313
     8.4389   8.4472   8.4990   8.5121   8.5299   8.5425   8.5794   8.6371
     8.6475   8.6681   8.6700   8.7378   8.7535   8.7934   8.8040   8.8640
     8.8657   8.8664   8.8937   8.9598   8.9600   8.9916   9.0302   9.0721
     9.0727   9.0794   9.1541   9.2011   9.2263   9.2333   9.3148   9.3625
     9.3710   9.4593   9.4604   9.4783   9.5350   9.5693   9.5868   9.6065
     9.6282   9.6558   9.6685   9.6863   9.7124   9.7323   9.7549   9.8132
     9.8361   9.8533   9.8907   9.9199   9.9395   9.9734   9.9792   9.9956
     9.9967  10.0465  10.0839  10.0847  10.0883  10.1116  10.1215  10.1692
    10.1907  10.2271  10.2321  10.2398  10.2759  10.2974  10.3265  10.3812
    10.3945  10.3998  10.4446  10.4562  10.4911  10.5720  10.6059  10.6215
    10.6218  10.6662  10.6762  10.6938  10.6970  10.7163  10.7464  10.7517
    10.7610  10.7660  10.7669  10.7972  10.7982  10.8701  10.9126  10.9870
    11.0202  11.0720  11.1389  11.1452  11.1746  11.1978  11.2673  11.3002
    11.3128  11.3541  11.4297  11.4703  11.4709  11.4831  11.5372  11.5747
    11.5831  11.6756  11.7210  11.7462  11.7514  11.7869  11.7961  11.8252
    11.8884  11.9074  11.9543  11.9953  12.0065  12.0295  12.0302  12.0728
    12.0773  12.1434  12.1603  12.1610  12.2136  12.3121  12.3633  12.3776
    12.4017  12.4245  12.4346  12.4883  12.4907  12.4981  12.6263  12.6297
    12.6769  12.7099  12.7371  12.7678  12.8024  12.8121  12.8287  13.0301
    13.0602  13.0965  13.0997  13.1210  13.2352  13.2375  13.2655  13.2682
    13.3002  13.3676  13.4065  13.4310  13.4987  13.5465  13.5549  13.5804
    13.6471  13.6590  13.6706  13.7047  13.7290  13.7732  13.7967  13.8488
    13.8824  13.8990  13.9145  13.9432  13.9674  13.9715  14.0265  14.0554
    14.0605  14.1289  14.1500  14.1850  14.1928  14.2039  14.2341  14.2394
    14.2793  14.3158  14.3275  14.3414  14.4218  14.4226  14.4473  14.4619
    14.4976  14.5387  14.5588  14.5752  14.5792  14.6487  14.6520  14.6621
    14.6666  14.7209  14.7499  14.7851  14.8307  14.8363  14.8645  14.8819
    14.9274  14.9427  14.9865  15.0025  15.0568  15.0731  15.0775  15.1154
    15.1687  15.1727  15.1975  15.2930  15.3487  15.3938  15.3989  15.4455
    15.4543  15.4917  15.4961  15.5092  15.5282  15.5859  15.6009  15.6047
    15.6565  15.7053  15.7208  15.7379  15.7460  15.7603  15.7921  15.8078
    15.8250  15.8870  15.8877  15.9096  15.9559  15.9672  15.9967  16.0290
    16.0464  16.0673  16.0699  16.0892  16.1206  16.1231  16.1258  16.1654
    16.1722  16.2078  16.2383  16.2477  16.2628  16.2734  16.3316  16.3409
    16.3522  16.3634  16.3759  16.4624  16.4669  16.4904  16.5118  16.5293
    16.5347  16.5580  16.5758  16.6035

          k = 0.0000 0.0000 0.0023 ( 76709 PWs)   bands (ev):

   -21.8854 -20.9910 -20.5896 -20.4750 -19.8709 -19.5210 -19.4238 -18.5565
   -18.0079 -17.7034 -17.0956 -16.9037 -16.6790 -16.0029 -15.7452 -15.1521
   -14.8591 -14.6923 -14.6160 -13.9900 -13.2480 -12.4570 -12.1301 -11.9054
   -11.7545 -11.3094 -10.7538 -10.5847 -10.3975 -10.3107 -10.2204 -10.0316
    -9.9516  -9.8950  -9.7181  -9.5648  -9.1472  -9.1031  -8.9515  -8.5071
    -8.4134  -8.4029  -8.2870  -8.2545  -8.0301  -7.9347  -7.6682  -7.6466
    -7.3290  -7.2996  -7.2023  -6.2959  -6.2391  -6.1844  -5.7617  -5.5589
    -4.8913  -4.7816  -4.3202  -2.9693  -2.6494  -1.1986  -1.0041  -0.8871
    -0.2351   0.2136   0.3435   0.4089   0.6508   0.7314   0.9684   1.2594
     1.4729   1.5235   1.8096   1.8175   1.9758   2.0481   2.1360   2.1437
     2.2037   2.2817   2.3490   2.3543   2.3923   2.4535   2.4962   2.5870
     2.6386   2.6407   2.7382   2.8123   2.8197   2.9117   3.0804   3.1615
     3.2203   3.2294   3.2600   3.3353   3.3805   3.4434   3.4885   3.4955
     3.6094   3.6377   3.7402   3.7603   3.8115   3.9502   3.9671   4.0386
     4.0990   4.1035   4.1442   4.1465   4.2332   4.2605   4.2779   4.3056
     4.3593   4.4057   4.4069   4.4406   4.5147   4.5221   4.5618   4.6137
     4.6214   4.6838   4.7069   4.7242   4.7777   4.8491   5.0190   5.0356
     5.1154   5.1463   5.1654   5.1825   5.1877   5.2027   5.2709   5.2722
     5.3135   5.3272   5.4228   5.4278   5.4677   5.5262   5.6513   5.6872
     5.7769   5.8126   5.9166   5.9899   6.0689   6.0986   6.1039   6.1351
     6.1919   6.2727   6.2954   6.3336   6.3503   6.3547   6.4380   6.4821
     6.4955   6.5565   6.5663   6.5822   6.6309   6.6581   6.6812   6.7035
     6.8275   6.8572   6.9236   6.9585   6.9654   7.0069   7.0357   7.1902
     7.2425   7.2869   7.3202   7.3234   7.3876   7.4974   7.5211   7.5578
     7.6528   7.6907   7.7210   7.7609   7.7800   7.7923   7.8782   7.8817
     7.8859   7.9618   7.9962   8.0202   8.0633   8.0672   8.1037   8.1670
     8.1731   8.2408   8.2919   8.3251   8.3377   8.3621   8.3756   8.4102
     8.4238   8.4255   8.5000   8.5239   8.5487   8.5788   8.5899   8.6269
     8.6448   8.6669   8.6850   8.6897   8.7190   8.7900   8.8123   8.8312
     8.8623   8.9062   8.9103   8.9468   9.0015   9.0126   9.0455   9.0688
     9.0782   9.0886   9.1485   9.1742   9.2470   9.2732   9.3161   9.3278
     9.4010   9.4469   9.4654   9.4762   9.4842   9.5370   9.5850   9.6030
     9.6319   9.6466   9.6615   9.6683   9.6970   9.7616   9.8017   9.8149
     9.8297   9.8601   9.8667   9.8870   9.9108   9.9637   9.9645   9.9961
    10.0148  10.0211  10.0431  10.0827  10.1103  10.1280  10.1730  10.1852
    10.1974  10.2118  10.2343  10.2400  10.2974  10.2997  10.3339  10.3907
    10.4111  10.4307  10.4385  10.4732  10.5079  10.5503  10.5848  10.5916
    10.6013  10.6483  10.6502  10.6681  10.6822  10.6936  10.7171  10.7524
    10.7555  10.7689  10.8334  10.8633  10.8761  10.9128  10.9278  10.9757
    11.0210  11.0732  11.1105  11.1486  11.1635  11.2314  11.2844  11.2859
    11.3126  11.3657  11.4168  11.4280  11.4551  11.4702  11.5435  11.5712
    11.6362  11.6846  11.7271  11.7343  11.7509  11.7899  11.8089  11.8230
    11.8897  11.8998  11.9323  11.9772  12.0000  12.0329  12.0550  12.0824
    12.1173  12.1283  12.1489  12.1929  12.2140  12.3047  12.3269  12.3742
    12.3929  12.4034  12.4397  12.4573  12.5417  12.5428  12.5518  12.6428
    12.6952  12.7369  12.7399  12.7943  12.8060  12.8180  12.8577  13.0277
    13.0392  13.0831  13.1215  13.1286  13.1671  13.1951  13.2620  13.2953
    13.3378  13.3887  13.4091  13.4416  13.4973  13.5418  13.5450  13.5822
    13.6227  13.6408  13.6842  13.7051  13.7397  13.7887  13.7955  13.8202
    13.8512  13.8804  13.9050  13.9512  13.9751  13.9819  14.0267  14.0456
    14.0883  14.1091  14.1394  14.1448  14.1905  14.2080  14.2650  14.2767
    14.2863  14.2978  14.3252  14.3481  14.3730  14.3783  14.4505  14.4580
    14.5028  14.5169  14.5599  14.6319  14.6365  14.6498  14.6648  14.6766
    14.6877  14.7092  14.7594  14.7700  14.8055  14.8294  14.8429  14.8667
    14.9412  14.9458  14.9747  14.9910  15.0640  15.0756  15.1074  15.1371
    15.1488  15.1997  15.2420  15.2955  15.3329  15.3858  15.4111  15.4276
    15.4436  15.4663  15.5018  15.5341  15.5609  15.5808  15.6026  15.6198
    15.6482  15.6694  15.7130  15.7219  15.7678  15.7720  15.7816  15.8145
    15.8267  15.8822  15.8905  15.9055  15.9165  15.9685  15.9908  16.0087
    16.0390  16.0446  16.0738  16.0901  16.1034  16.1323  16.1333  16.1741
    16.1760  16.2007  16.2318  16.2565  16.2671  16.2967  16.3161  16.3375
    16.3698  16.3725  16.4324  16.4543  16.4621  16.4677  16.5010  16.5141
    16.5505  16.5564  16.5700  16.6179

          k = 0.0000 0.0000 0.0045 ( 76729 PWs)   bands (ev):

   -21.8838 -20.9899 -20.6380 -20.4235 -19.8828 -19.5328 -19.3959 -18.5642
   -18.0024 -17.6981 -17.1024 -16.9542 -16.6516 -15.9965 -15.7399 -15.1428
   -14.8874 -14.6853 -14.5833 -13.9969 -13.2364 -12.4562 -12.1397 -11.9691
   -11.6885 -11.3042 -10.8369 -10.5479 -10.3958 -10.3186 -10.2741  -9.9502
    -9.9497  -9.8792  -9.7444  -9.5333  -9.1660  -9.0836  -8.9499  -8.5301
    -8.4722  -8.4084  -8.2370  -8.2248  -8.0705  -7.8920  -7.6643  -7.6582
    -7.3320  -7.3295  -7.1562  -6.3012  -6.2482  -6.1870  -5.7642  -5.5449
    -4.8914  -4.8001  -4.3239  -2.9764  -2.6404  -1.2117  -0.9688  -0.8841
    -0.2392   0.1938   0.3456   0.4110   0.6716   0.7336   0.9706   1.2616
     1.4715   1.5252   1.8014   1.8191   1.9328   2.0062   2.1429   2.1884
     2.2452   2.2453   2.3419   2.3620   2.3959   2.4273   2.4575   2.5867
     2.6722   2.6726   2.7102   2.8157   2.8304   2.9818   3.0104   3.1297
     3.2219   3.2430   3.2969   3.3602   3.3809   3.4728   3.4773   3.4886
     3.5650   3.6001   3.7182   3.8174   3.8475   3.8841   3.9479   4.0057
     4.0716   4.0813   4.1113   4.1619   4.1983   4.2749   4.3292   4.3621
     4.3806   4.3921   4.4414   4.4607   4.4723   4.4879   4.6135   4.6214
     4.6439   4.7077   4.7413   4.7639   4.7900   4.8503   4.9539   4.9680
     5.0935   5.1152   5.1204   5.1860   5.2060   5.2240   5.2606   5.2923
     5.3027   5.3794   5.4527   5.4956   5.5260   5.5326   5.6588   5.6839
     5.7650   5.7981   5.9151   5.9445   6.0695   6.0715   6.1059   6.1500
     6.1967   6.2343   6.2815   6.3256   6.3581   6.3760   6.4562   6.4632
     6.5093   6.5232   6.5607   6.6097   6.6470   6.6827   6.7171   6.7389
     6.8257   6.8534   6.9415   6.9568   6.9675   7.0069   7.0341   7.1715
     7.2641   7.2873   7.2952   7.2989   7.4130   7.4892   7.5303   7.5370
     7.6583   7.6663   7.6943   7.7109   7.7745   7.8141   7.8211   7.8859
     7.8969   7.9547   7.9751   8.0143   8.0426   8.0962   8.1337   8.1552
     8.1960   8.2455   8.2681   8.2963   8.2996   8.3609   8.3763   8.3784
     8.4066   8.4409   8.4898   8.5091   8.5487   8.5609   8.5622   8.5904
     8.6232   8.6244   8.7118   8.7373   8.7499   8.7582   8.7940   8.8236
     8.8840   8.9106   8.9231   8.9667   9.0229   9.0324   9.0379   9.0806
     9.1158   9.1412   9.1442   9.1972   9.2646   9.2811   9.3406   9.3457
     9.3664   9.4110   9.4441   9.4589   9.4592   9.4980   9.5711   9.5860
     9.6103   9.6321   9.6419   9.6641   9.6751   9.7672   9.7760   9.7921
     9.8111   9.8399   9.8549   9.8957   9.9320   9.9581   9.9804   9.9874
     9.9915  10.0113  10.0243  10.0514  10.0963  10.1134  10.1567  10.1845
    10.2322  10.2378  10.3004  10.3215  10.3247  10.3376  10.3411  10.3997
    10.4186  10.4316  10.4574  10.4674  10.4893  10.5302  10.5358  10.5440
    10.5754  10.6212  10.6434  10.6722  10.6874  10.7216  10.7339  10.7671
    10.7778  10.7822  10.8744  10.8887  10.9322  10.9519  11.0118  11.0138
    11.0552  11.0807  11.0822  11.1401  11.1645  11.2385  11.2451  11.2931
    11.3427  11.3630  11.3797  11.4064  11.4692  11.4765  11.5597  11.5763
    11.5902  11.6995  11.7125  11.7393  11.7662  11.7910  11.8265  11.8614
    11.8881  11.9024  11.9374  11.9374  11.9894  12.0666  12.0687  12.0873
    12.1182  12.1526  12.1841  12.2111  12.2356  12.2574  12.2747  12.3471
    12.3914  12.4047  12.4202  12.4568  12.5218  12.5324  12.6100  12.6759
    12.6793  12.7385  12.7971  12.8175  12.8546  12.8732  12.9018  13.0085
    13.0305  13.0357  13.0708  13.1198  13.1533  13.1712  13.2851  13.3047
    13.3463  13.3667  13.4610  13.4668  13.4818  13.5255  13.5377  13.5735
    13.6219  13.6257  13.6737  13.6762  13.7047  13.7833  13.8192  13.8238
    13.8256  13.8341  13.9092  13.9284  13.9478  13.9961  14.0275  14.0690
    14.0732  14.0881  14.0988  14.1410  14.1899  14.2265  14.2431  14.2501
    14.2759  14.2975  14.3120  14.3398  14.3837  14.4210  14.4271  14.4513
    14.4893  14.5617  14.5787  14.6182  14.6435  14.6491  14.6578  14.6887
    14.7224  14.7533  14.7696  14.7770  14.8009  14.8158  14.8468  14.8669
    14.9260  14.9397  14.9523  15.0082  15.0606  15.0935  15.1533  15.1546
    15.1906  15.2500  15.2872  15.3004  15.3055  15.3788  15.3969  15.4023
    15.4538  15.4569  15.5376  15.5440  15.5568  15.5896  15.6028  15.6294
    15.6332  15.6672  15.6986  15.7141  15.7272  15.7802  15.7926  15.8179
    15.8338  15.8500  15.8870  15.9059  15.9061  15.9282  15.9786  16.0018
    16.0086  16.0353  16.0451  16.0682  16.0887  16.1044  16.1245  16.1554
    16.1849  16.1933  16.2673  16.2904  16.2916  16.2961  16.3656  16.3761
    16.3786  16.3928  16.4030  16.4472  16.4488  16.4681  16.4879  16.5393
    16.5444  16.6180  16.6219  16.6270

          k = 0.0000 0.0000 0.0068 ( 76763 PWs)   bands (ev):

   -21.8811 -20.9880 -20.6867 -20.3695 -19.9015 -19.5435 -19.3595 -18.5766
   -17.9939 -17.6892 -17.1184 -17.0115 -16.6300 -15.9819 -15.7325 -15.1324
   -14.9156 -14.6787 -14.5388 -14.0074 -13.2178 -12.4548 -12.1556 -12.0339
   -11.6202 -11.2963 -10.9233 -10.5570 -10.4164 -10.3513 -10.2396  -9.9465
    -9.9085  -9.8272  -9.7683  -9.4954  -9.1835  -9.0640  -8.9474  -8.5637
    -8.5304  -8.4161  -8.2173  -8.1611  -8.1060  -7.8509  -7.6774  -7.6566
    -7.3544  -7.3370  -7.1047  -6.3100  -6.2629  -6.1913  -5.7676  -5.5231
    -4.8916  -4.8295  -4.3310  -2.9883  -2.6254  -1.2244  -0.9200  -0.8785
    -0.2462   0.1648   0.3491   0.4146   0.7026   0.7373   0.9743   1.2653
     1.4690   1.5278   1.7845   1.8217   1.8832   1.9709   2.1473   2.1913
     2.2319   2.2961   2.3417   2.3602   2.3787   2.3965   2.4623   2.5894
     2.6075   2.7058   2.7685   2.8335   2.8510   2.9424   3.0545   3.0837
     3.2230   3.2406   3.3452   3.3802   3.3914   3.4481   3.4597   3.5230
     3.5378   3.5875   3.6697   3.8132   3.8535   3.8770   3.9241   3.9588
     4.0031   4.0933   4.1204   4.1318   4.2215   4.2675   4.3059   4.3930
     4.4045   4.4397   4.4416   4.4644   4.4695   4.5543   4.6194   4.6617
     4.6725   4.7356   4.7505   4.8005   4.8465   4.8628   4.8922   4.9025
     5.0439   5.0689   5.0798   5.1402   5.1728   5.2644   5.2808   5.3187
     5.3613   5.4245   5.4997   5.5452   5.5675   5.5931   5.6702   5.6782
     5.7444   5.7759   5.9086   5.9124   6.0351   6.0690   6.0746   6.1769
     6.1784   6.2007   6.2806   6.3108   6.3821   6.3916   6.4196   6.4562
     6.4944   6.5729   6.5801   6.6326   6.6557   6.7079   6.7544   6.7927
     6.8272   6.8553   6.9356   6.9537   6.9717   7.0137   7.0543   7.1583
     7.2539   7.2680   7.2924   7.2936   7.4053   7.4944   7.5100   7.5520
     7.5951   7.6232   7.6602   7.6808   7.7628   7.8413   7.8513   7.8563
     7.9060   7.9394   7.9478   8.0182   8.0354   8.0490   8.1339   8.1361
     8.1617   8.2374   8.2596   8.2808   8.3189   8.3506   8.3594   8.3867
     8.3988   8.4007   8.4659   8.5027   8.5077   8.5288   8.5370   8.5548
     8.6118   8.6606   8.7028   8.7160   8.7278   8.7496   8.8332   8.8906
     8.9014   8.9302   8.9512   8.9678   8.9735   9.0554   9.0620   9.0687
     9.1056   9.1880   9.2109   9.2234   9.2685   9.2892   9.3044   9.3773
     9.3799   9.4006   9.4094   9.4370   9.4739   9.4851   9.5138   9.5395
     9.5512   9.5888   9.6362   9.6676   9.6839   9.7296   9.7320   9.7574
     9.7852   9.8464   9.8508   9.8725   9.9154   9.9441   9.9653   9.9815
    10.0025  10.0231  10.0334  10.0611  10.0991  10.1269  10.1496  10.1801
    10.2225  10.2800  10.2825  10.3025  10.3473  10.3494  10.3688  10.3989
    10.4254  10.4472  10.4752  10.4776  10.4809  10.4899  10.5346  10.5679
    10.6333  10.6355  10.6658  10.6971  10.7111  10.7363  10.7529  10.7753
    10.8163  10.8284  10.8833  10.9106  10.9691  10.9696  10.9898  11.0553
    11.0761  11.1278  11.1316  11.1469  11.1990  11.2181  11.2353  11.2479
    11.3434  11.3714  11.4154  11.4556  11.4656  11.5033  11.5380  11.5455
    11.5805  11.6724  11.6738  11.7145  11.7635  11.8259  11.8415  11.8787
    11.9100  11.9149  11.9623  11.9909  11.9951  12.0262  12.0930  12.0980
    12.1422  12.1477  12.1919  12.2125  12.2428  12.2532  12.2904  12.3075
    12.3670  12.3781  12.4281  12.4488  12.5055  12.6070  12.6488  12.6541
    12.7100  12.7449  12.8366  12.8386  12.9144  12.9337  12.9515  12.9693
    13.0051  13.0060  13.0296  13.0748  13.1818  13.2061  13.2934  13.3143
    13.3213  13.3575  13.4374  13.4681  13.4843  13.5200  13.5558  13.5610
    13.5858  13.6059  13.6464  13.6524  13.6838  13.7537  13.7692  13.8335
    13.8336  13.8806  13.8990  13.9011  13.9265  13.9532  14.0053  14.0314
    14.0383  14.1033  14.1221  14.1339  14.1590  14.1860  14.2326  14.2412
    14.2598  14.3088  14.3184  14.3679  14.3940  14.4347  14.4493  14.4801
    14.5097  14.5385  14.5663  14.5701  14.6372  14.6569  14.6633  14.6833
    14.7223  14.7603  14.7788  14.7999  14.8070  14.8374  14.8394  14.8868
    14.9597  14.9732  15.0143  15.0206  15.0734  15.1239  15.1615  15.1644
    15.2320  15.2354  15.2678  15.3199  15.3389  15.3810  15.3901  15.4004
    15.4568  15.4591  15.5247  15.5414  15.5830  15.5874  15.6090  15.6326
    15.6502  15.6538  15.6733  15.7242  15.7353  15.7379  15.7778  15.8175
    15.8390  15.8565  15.8877  15.8893  15.9136  15.9296  15.9547  15.9709
    15.9780  16.0022  16.0283  16.0387  16.0469  16.0708  16.1081  16.1882
    16.1901  16.2414  16.2530  16.2641  16.3055  16.3184  16.3666  16.3718
    16.3739  16.3905  16.4401  16.4493  16.4555  16.5009  16.5365  16.5793
    16.5926  16.6039  16.6383  16.6719

          k = 0.0000 0.0000 0.0090 ( 76727 PWs)   bands (ev):

   -21.8774 -20.9856 -20.7346 -20.3142 -19.9256 -19.5511 -19.3179 -18.5928
   -17.9832 -17.6767 -17.1553 -17.0564 -16.6225 -15.9559 -15.7246 -15.1287
   -14.9306 -14.6714 -14.4898 -14.0200 -13.1930 -12.4528 -12.1771 -12.0980
   -11.5518 -11.2869 -11.0087 -10.5985 -10.4989 -10.3030 -10.2016  -9.9420
    -9.8924  -9.8070  -9.7299  -9.4564  -9.1977  -9.0450  -8.9440  -8.6043
    -8.5874  -8.4254  -8.2101  -8.1243  -8.0962  -7.8146  -7.7033  -7.6431
    -7.3727  -7.3439  -7.0498  -6.3222  -6.2821  -6.1973  -5.7711  -5.4951
    -4.8937  -4.8668  -4.3422  -3.0052  -2.6045  -1.2324  -0.8782  -0.8545
    -0.2565   0.1301   0.3541   0.4196   0.7405   0.7424   0.9794   1.2703
     1.4647   1.5314   1.7564   1.8251   1.8324   1.9462   2.1297   2.1518
     2.2631   2.2983   2.3452   2.3519   2.3950   2.4031   2.4706   2.5415
     2.5945   2.7328   2.7968   2.8733   2.8823   2.8892   3.0277   3.1334
     3.2263   3.2439   3.3452   3.3698   3.4122   3.4277   3.4594   3.5273
     3.5542   3.6161   3.6179   3.7468   3.7644   3.8847   3.9332   3.9523
     3.9903   4.0396   4.1252   4.1584   4.2226   4.2305   4.3356   4.3414
     4.3953   4.4489   4.5080   4.5122   4.5420   4.6188   4.6217   4.6827
     4.7064   4.7288   4.8092   4.8096   4.8287   4.8630   4.8745   4.9356
     4.9826   5.0167   5.0510   5.0759   5.1557   5.2783   5.2904   5.3730
     5.4334   5.4626   5.5515   5.5691   5.6409   5.6629   5.6683   5.6846
     5.7142   5.7556   5.8811   5.9086   6.0015   6.0330   6.0728   6.1313
     6.1899   6.1971   6.2272   6.3547   6.3674   6.3882   6.4131   6.4557
     6.4979   6.5921   6.6518   6.6590   6.6626   6.7185   6.7971   6.8349
     6.8522   6.8617   6.9027   6.9474   6.9798   7.0449   7.0801   7.1551
     7.2105   7.2561   7.2965   7.2965   7.3706   7.4512   7.4892   7.5456
     7.5632   7.6015   7.6283   7.6534   7.7855   7.8304   7.8528   7.8589
     7.8910   7.8930   7.9359   7.9557   8.0258   8.0606   8.1133   8.1555
     8.1714   8.1955   8.2438   8.2482   8.2600   8.2744   8.3280   8.3689
     8.3980   8.4246   8.4494   8.4628   8.4759   8.5104   8.5239   8.6060
     8.6186   8.6453   8.6884   8.7248   8.7331   8.7666   8.8411   8.8642
     8.8795   8.9143   8.9856   9.0078   9.0253   9.0499   9.0773   9.0908
     9.1005   9.1285   9.1768   9.2621   9.2710   9.3256   9.3470   9.3631
     9.3824   9.3999   9.4029   9.4126   9.4443   9.4630   9.5071   9.5212
     9.5504   9.5702   9.6176   9.6353   9.6448   9.6919   9.7308   9.7503
     9.7535   9.7980   9.8434   9.8620   9.9271   9.9309   9.9550   9.9575
     9.9954  10.0096  10.0421  10.0434  10.1320  10.1523  10.1591  10.1825
    10.2082  10.2223  10.2716  10.2861  10.3108  10.3566  10.3597  10.3606
    10.3901  10.4902  10.5076  10.5431  10.5464  10.5788  10.5810  10.6008
    10.6532  10.6615  10.7031  10.7124  10.7495  10.7563  10.7876  10.7989
    10.8665  10.8691  10.9030  10.9099  10.9641  10.9815  11.0102  11.0531
    11.0826  11.0908  11.1274  11.1748  11.2346  11.2359  11.2993  11.3408
    11.3429  11.3714  11.4228  11.4269  11.4756  11.5124  11.5353  11.5696
    11.5994  11.6429  11.6588  11.6777  11.7601  11.8291  11.8357  11.9013
    11.9170  11.9313  11.9667  11.9864  12.0447  12.0946  12.1076  12.1123
    12.1264  12.1666  12.1823  12.2044  12.2295  12.2611  12.2822  12.3417
    12.3498  12.3624  12.4474  12.4749  12.5396  12.6110  12.6417  12.7103
    12.7356  12.7487  12.8415  12.8624  12.8705  12.9055  12.9397  12.9998
    13.0331  13.0413  13.0519  13.0940  13.2048  13.2410  13.2706  13.2742
    13.3316  13.3887  13.3923  13.4209  13.4847  13.4981  13.5331  13.5397
    13.5651  13.5675  13.6270  13.6691  13.6914  13.7102  13.7518  13.7930
    13.8268  13.8548  13.8704  13.8810  13.9465  13.9582  13.9590  13.9822
    14.0386  14.0682  14.1031  14.1573  14.1688  14.2133  14.2138  14.2411
    14.2844  14.2938  14.3148  14.3349  14.3910  14.4463  14.4575  14.4706
    14.5274  14.5318  14.5703  14.5751  14.6104  14.6435  14.6702  14.6932
    14.7167  14.7654  14.7817  14.7912  14.8185  14.8571  14.8618  14.9327
    14.9828  15.0006  15.0683  15.1004  15.1429  15.1515  15.1527  15.1679
    15.2181  15.2372  15.2653  15.2947  15.3150  15.3464  15.3854  15.4210
    15.4736  15.4931  15.5285  15.5543  15.5764  15.5981  15.5991  15.6319
    15.6498  15.6675  15.7011  15.7107  15.7152  15.7481  15.7848  15.8171
    15.8344  15.8429  15.8683  15.8849  15.9012  15.9273  15.9450  15.9614
    15.9693  15.9838  15.9955  16.0181  16.0441  16.0741  16.1132  16.1870
    16.2118  16.2312  16.2335  16.2737  16.2772  16.2950  16.3320  16.3625
    16.3659  16.4083  16.4538  16.4753  16.5023  16.5458  16.5733  16.5853
    16.5964  16.6536  16.6768  16.7012

          k = 0.0000 0.0000 0.0113 ( 76719 PWs)   bands (ev):

   -21.8726 -20.9828 -20.7810 -20.2579 -19.9536 -19.5557 -19.2726 -18.6123
   -17.9711 -17.6604 -17.2176 -17.0813 -16.6312 -15.9179 -15.7176 -15.1386
   -14.9243 -14.6621 -14.4408 -14.0325 -13.1631 -12.4504 -12.2042 -12.1607
   -11.4858 -11.2784 -11.0883 -10.6671 -10.5631 -10.2626 -10.1618  -9.9362
    -9.8829  -9.8120  -9.6505  -9.4195  -9.2054  -9.0266  -8.9398  -8.6498
    -8.6431  -8.4364  -8.2294  -8.1130  -8.0305  -7.7863  -7.7349  -7.6214
    -7.3849  -7.3526  -6.9924  -6.3380  -6.3052  -6.2050  -5.7742  -5.4624
    -4.9217  -4.8863  -4.3583  -3.0271  -2.5778  -1.2337  -0.8669  -0.7909
    -0.2704   0.0927   0.3605   0.4260   0.7491   0.7827   0.9859   1.2768
     1.4580   1.5354   1.7175   1.7823   1.8289   1.9329   2.0662   2.1552
     2.2278   2.2986   2.3510   2.3922   2.4013   2.4382   2.4778   2.4862
     2.6015   2.7519   2.7851   2.8387   2.9198   2.9550   2.9747   3.2077
     3.2322   3.2501   3.3185   3.3326   3.3986   3.4199   3.5104   3.5182
     3.5696   3.5859   3.6663   3.6752   3.6855   3.8345   3.8649   3.9681
     4.0076   4.0609   4.1211   4.1350   4.2097   4.2432   4.2967   4.3432
     4.4330   4.4676   4.5552   4.5714   4.6180   4.6291   4.6496   4.6783
     4.7323   4.7483   4.7695   4.7933   4.8660   4.8732   4.9193   4.9338
     4.9495   5.0021   5.0264   5.0355   5.1392   5.2834   5.3096   5.4111
     5.5026   5.5080   5.5869   5.6083   5.6597   5.6719   5.7047   5.7140
     5.7313   5.7522   5.8547   5.9045   5.9717   6.0056   6.0505   6.1153
     6.1711   6.1819   6.1959   6.3155   6.3705   6.4206   6.4272   6.4595
     6.5210   6.6098   6.6659   6.6919   6.7197   6.7273   6.8326   6.8482
     6.8612   6.8785   6.9048   6.9425   6.9987   7.0703   7.1086   7.1664
     7.1709   7.2336   7.2931   7.3014   7.3124   7.3827   7.4602   7.5056
     7.5958   7.5984   7.6063   7.6404   7.7323   7.7680   7.8262   7.8480
     7.8630   7.8861   7.9319   7.9851   8.0356   8.0688   8.0834   8.1055
     8.1457   8.1799   8.1813   8.2005   8.2447   8.2461   8.2967   8.3425
     8.3656   8.3992   8.4002   8.4409   8.4852   8.5013   8.5353   8.5938
     8.6181   8.6590   8.7239   8.7370   8.7641   8.7678   8.8391   8.8558
     8.8696   8.8947   8.9588   8.9663   8.9846   9.0559   9.0725   9.1002
     9.1591   9.1673   9.2043   9.2365   9.2551   9.2792   9.2797   9.3303
     9.3637   9.3742   9.4181   9.4346   9.4630   9.4867   9.5339   9.5408
     9.5467   9.5838   9.6096   9.6199   9.6379   9.6489   9.6953   9.7098
     9.7698   9.7698   9.8306   9.8820   9.9043   9.9257   9.9258   9.9757
     9.9788   9.9807  10.0084  10.0325  10.0593  10.0759  10.1711  10.2059
    10.2069  10.2484  10.2557  10.2917  10.3148  10.3352  10.3829  10.3947
    10.3961  10.5145  10.5445  10.5748  10.5803  10.6039  10.6383  10.6462
    10.6903  10.7219  10.7356  10.7634  10.7766  10.7932  10.8283  10.8415
    10.8434  10.8925  10.9213  10.9352  10.9583  10.9966  11.0134  11.0780
    11.0854  11.1252  11.1654  11.1861  11.2029  11.2559  11.3054  11.3742
    11.3841  11.4030  11.4283  11.4465  11.4818  11.5201  11.5333  11.5902
    11.6256  11.6552  11.6638  11.7169  11.7503  11.8198  11.8281  11.8384
    11.9132  11.9646  11.9872  12.0220  12.0427  12.0986  12.1193  12.1295
    12.1627  12.1801  12.1921  12.2011  12.2360  12.2455  12.3065  12.3604
    12.3755  12.4260  12.4810  12.4855  12.5867  12.5885  12.6254  12.7270
    12.7474  12.7604  12.8048  12.8556  12.8805  12.8998  12.9135  12.9693
    13.0523  13.0885  13.1179  13.1839  13.1932  13.2335  13.2385  13.2876
    13.3414  13.3498  13.3913  13.4056  13.4277  13.4849  13.5012  13.5209
    13.5550  13.5699  13.6045  13.6757  13.6773  13.6843  13.7310  13.7376
    13.7554  13.7968  13.8604  13.8906  13.9288  13.9359  13.9700  14.0100
    14.0251  14.0586  14.1167  14.1694  14.1820  14.2070  14.2183  14.2257
    14.2527  14.2839  14.3193  14.3234  14.3685  14.4384  14.4795  14.4895
    14.5151  14.5239  14.5392  14.5823  14.6060  14.6522  14.6891  14.7068
    14.7148  14.7689  14.7838  14.8015  14.8437  14.8732  14.8929  14.9374
    15.0229  15.0549  15.0738  15.0983  15.1183  15.1751  15.1967  15.1989
    15.2202  15.2582  15.2711  15.3063  15.3117  15.3237  15.3475  15.4139
    15.4822  15.5056  15.5206  15.5640  15.5939  15.6162  15.6332  15.6371
    15.6636  15.6850  15.7007  15.7020  15.7228  15.7331  15.7784  15.7966
    15.8283  15.8374  15.8447  15.8761  15.9110  15.9304  15.9428  15.9684
    15.9712  15.9883  16.0170  16.0280  16.0550  16.0910  16.1001  16.1681
    16.1785  16.2228  16.2406  16.2542  16.2645  16.2700  16.3141  16.3666
    16.3822  16.3990  16.4478  16.4743  16.4765  16.5645  16.5926  16.6109
    16.6413  16.6758  16.7080  16.7339

          k = 0.0000 0.0000 0.0135 ( 76701 PWs)   bands (ev):

   -21.8668 -20.9801 -20.8255 -20.2009 -19.9842 -19.5576 -19.2243 -18.6341
   -17.9586 -17.6407 -17.2924 -17.0974 -16.6546 -15.8703 -15.7123 -15.1586
   -14.8997 -14.6496 -14.3953 -14.0419 -13.1290 -12.4476 -12.2380 -12.2201
   -11.4290 -11.2744 -11.1522 -10.7555 -10.6086 -10.2400 -10.1230  -9.9291
    -9.8795  -9.7952  -9.5746  -9.3879  -9.2017  -9.0088  -8.9350  -8.6987
    -8.6970  -8.4486  -8.2617  -8.0864  -7.9642  -7.7703  -7.7673  -7.5909
    -7.3919  -7.3627  -6.9330  -6.3571  -6.3311  -6.2143  -5.7768  -5.4262
    -4.9748  -4.8872  -4.3796  -3.0541  -2.5455  -1.2279  -0.8562  -0.7192
    -0.2884   0.0550   0.3683   0.4338   0.7572   0.8275   0.9939   1.2846
     1.4477   1.5391   1.6714   1.7340   1.8322   1.9282   2.0050   2.1422
     2.1864   2.3152   2.3584   2.3885   2.4047   2.4521   2.4794   2.5158
     2.6101   2.7315   2.7659   2.8386   2.9260   2.9544   3.0303   3.2307
     3.2521   3.2660   3.2867   3.3091   3.3930   3.4226   3.4896   3.5322
     3.5377   3.6076   3.6152   3.6433   3.7210   3.7954   3.7981   3.9067
     4.0428   4.0529   4.1401   4.1447   4.1930   4.2040   4.3404   4.3471
     4.4493   4.5238   4.5820   4.6126   4.6314   4.6412   4.6833   4.6910
     4.6999   4.7244   4.7934   4.8578   4.8602   4.8727   4.8912   4.9411
     4.9559   4.9757   5.0270   5.1049   5.1254   5.2971   5.3241   5.4283
     5.5398   5.5731   5.6024   5.6320   5.6422   5.6772   5.7189   5.7741
     5.7759   5.7972   5.8271   5.9081   5.9457   5.9938   6.0199   6.1075
     6.1290   6.1569   6.1986   6.2752   6.3564   6.4260   6.4661   6.4929
     6.5453   6.6220   6.6710   6.6929   6.7490   6.8014   6.8316   6.8441
     6.8672   6.8892   6.9339   6.9559   7.0418   7.0744   7.1250   7.1360
     7.1675   7.2088   7.2578   7.2936   7.3066   7.3437   7.4567   7.4598
     7.5689   7.5822   7.6009   7.6141   7.6878   7.6939   7.7838   7.8118
     7.8778   7.8883   7.9639   7.9914   7.9997   8.0356   8.0398   8.1085
     8.1155   8.1263   8.1457   8.1501   8.2226   8.2287   8.2793   8.3145
     8.3304   8.3834   8.4020   8.4268   8.4512   8.4875   8.5545   8.5640
     8.6062   8.6580   8.6999   8.7246   8.7672   8.8124   8.8318   8.8471
     8.8830   8.9044   8.9174   8.9462   8.9523   9.0305   9.0668   9.1220
     9.1334   9.1575   9.1703   9.1998   9.2517   9.2565   9.3016   9.3038
     9.3427   9.3695   9.4258   9.4387   9.4644   9.4929   9.5168   9.5312
     9.5506   9.5888   9.6129   9.6341   9.6767   9.6812   9.6885   9.7330
     9.7345   9.7833   9.8270   9.8462   9.8748   9.8775   9.8866   9.9115
     9.9376   9.9665  10.0102  10.0131  10.0489  10.0836  10.1626  10.2036
    10.2133  10.2256  10.2535  10.2871  10.3321  10.3828  10.4018  10.4344
    10.4635  10.5471  10.5706  10.5890  10.5914  10.6191  10.6550  10.6707
    10.7033  10.7373  10.7786  10.7806  10.8198  10.8369  10.8514  10.8713
    10.9065  10.9341  10.9385  10.9397  10.9793  11.0316  11.0541  11.0929
    11.1021  11.1520  11.1670  11.1977  11.2204  11.2942  11.3337  11.3470
    11.3495  11.3772  11.4159  11.4961  11.5511  11.5555  11.5804  11.6353
    11.6359  11.6774  11.6885  11.7358  11.7846  11.7968  11.8195  11.8482
    11.9198  11.9471  11.9768  12.0463  12.0527  12.0720  12.1225  12.1442
    12.1681  12.1947  12.2015  12.2151  12.2474  12.2931  12.3887  12.4114
    12.4204  12.4454  12.4808  12.5420  12.5706  12.6055  12.6392  12.6944
    12.7059  12.7737  12.7949  12.8614  12.8856  12.9034  12.9362  12.9578
    13.0586  13.1245  13.1444  13.1584  13.1687  13.1775  13.2974  13.3084
    13.3087  13.3691  13.3824  13.4051  13.4127  13.4521  13.5039  13.5161
    13.5532  13.5614  13.5660  13.6152  13.6322  13.6612  13.7055  13.7069
    13.7213  13.8161  13.8485  13.9038  13.9104  13.9138  13.9528  14.0070
    14.0330  14.0910  14.1194  14.1393  14.1577  14.1681  14.2202  14.2393
    14.2727  14.2844  14.2968  14.3283  14.3823  14.4210  14.4840  14.4875
    14.4976  14.5405  14.5413  14.5966  14.5992  14.6615  14.6724  14.7187
    14.7368  14.7591  14.8179  14.8290  14.8425  14.8784  14.9182  14.9335
    15.0277  15.0581  15.0594  15.0803  15.1352  15.1648  15.1877  15.1950
    15.2177  15.2468  15.2764  15.2931  15.3321  15.3633  15.4328  15.4333
    15.4905  15.5161  15.5264  15.5823  15.6018  15.6144  15.6382  15.6634
    15.6637  15.6667  15.6697  15.6996  15.7011  15.7634  15.7845  15.7986
    15.8257  15.8307  15.8526  15.8839  15.9110  15.9381  15.9549  15.9824
    15.9885  16.0053  16.0408  16.0457  16.0680  16.1052  16.1052  16.1485
    16.1619  16.1855  16.2241  16.2392  16.2509  16.2853  16.3320  16.3526
    16.3686  16.3862  16.4186  16.4651  16.4685  16.5432  16.5958  16.6454
    16.6613  16.6867  16.6936  16.7271

          k = 0.0000 0.0000 0.0158 ( 76676 PWs)   bands (ev):

   -21.8599 -20.9789 -20.8667 -20.1442 -20.0154 -19.5573 -19.1737 -18.6577
   -17.9462 -17.6182 -17.3712 -17.1119 -16.6893 -15.8189 -15.7079 -15.1800
   -14.8660 -14.6321 -14.3572 -14.0442 -13.0918 -12.4446 -12.2886 -12.2655
   -11.4085 -11.2649 -11.1843 -10.8513 -10.6447 -10.2358 -10.0906  -9.9208
    -9.8743  -9.7578  -9.5100  -9.3624  -9.1818  -8.9913  -8.9303  -8.7501
    -8.7487  -8.4619  -8.2968  -8.0553  -7.8983  -7.8073  -7.7564  -7.5537
    -7.3947  -7.3737  -6.8719  -6.3796  -6.3591  -6.2254  -5.7788  -5.3877
    -5.0349  -4.8863  -4.4062  -3.0861  -2.5080  -1.2149  -0.8439  -0.6425
    -0.3109   0.0187   0.3775   0.4431   0.7668   0.8737   1.0034   1.2937
     1.4323   1.5405   1.6218   1.6893   1.8322   1.9290   1.9513   2.0913
     2.1847   2.3202   2.3563   2.3668   2.3845   2.4705   2.5233   2.5633
     2.6203   2.6728   2.7776   2.8309   2.8977   2.9747   3.1070   3.2016
     3.2446   3.2552   3.2717   3.3763   3.3787   3.4325   3.4355   3.5041
     3.5429   3.5646   3.5829   3.6807   3.7331   3.7365   3.8240   3.8446
     3.9920   4.0509   4.1333   4.1402   4.2201   4.2263   4.3530   4.4054
     4.4543   4.5651   4.5965   4.5967   4.6229   4.6335   4.6608   4.6848
     4.7602   4.7824   4.7968   4.8284   4.8343   4.8700   4.9014   4.9702
     4.9712   4.9968   5.0853   5.1151   5.1852   5.3226   5.3340   5.4314
     5.5365   5.5913   5.5988   5.6428   5.6879   5.7061   5.7448   5.7730
     5.7864   5.8493   5.8695   5.9261   5.9357   5.9957   6.0024   6.0589
     6.1241   6.1394   6.1967   6.2461   6.3471   6.4307   6.4750   6.5557
     6.5631   6.6261   6.6761   6.6778   6.7740   6.8148   6.8527   6.8736
     6.8787   6.9025   6.9414   6.9815   7.0480   7.0806   7.0903   7.1043
     7.1588   7.2418   7.2570   7.2877   7.3100   7.3437   7.4089   7.4463
     7.4995   7.5387   7.5571   7.6103   7.6146   7.7347   7.7455   7.7730
     7.8328   7.8619   7.9627   7.9663   7.9687   8.0218   8.0444   8.0631
     8.0890   8.0891   8.1232   8.1256   8.1785   8.2119   8.2418   8.3047
     8.3522   8.3867   8.3991   8.4113   8.4192   8.4736   8.5344   8.5546
     8.5808   8.6337   8.6634   8.6875   8.7178   8.7505   8.8012   8.8529
     8.9018   8.9300   8.9362   8.9659   8.9866   8.9967   9.0205   9.0307
     9.1314   9.1366   9.1730   9.1963   9.2075   9.2473   9.2793   9.3118
     9.3641   9.3642   9.4008   9.4344   9.4370   9.4661   9.5362   9.5409
     9.5802   9.6040   9.6349   9.6480   9.6522   9.7026   9.7082   9.7443
     9.7445   9.7530   9.7657   9.7820   9.8324   9.8501   9.8858   9.9204
     9.9288   9.9580   9.9812  10.0347  10.0876  10.1039  10.1680  10.1867
    10.1919  10.2382  10.2761  10.2873  10.3395  10.4266  10.4484  10.4728
    10.4739  10.5497  10.5708  10.5746  10.6266  10.6472  10.6748  10.7033
    10.7126  10.7584  10.7601  10.8066  10.8521  10.8771  10.8886  10.9002
    10.9172  10.9685  10.9767  10.9882  11.0091  11.0526  11.0952  11.0981
    11.1384  11.1554  11.2047  11.2255  11.2825  11.2996  11.3102  11.3139
    11.3843  11.4293  11.4294  11.4643  11.5257  11.6214  11.6524  11.6594
    11.6926  11.7054  11.7137  11.7405  11.8065  11.8156  11.8320  11.9153
    11.9364  11.9466  11.9578  12.0413  12.0470  12.0486  12.1065  12.1393
    12.1751  12.2176  12.2459  12.2649  12.2770  12.3408  12.3926  12.4162
    12.4780  12.4838  12.5563  12.5644  12.5809  12.5938  12.6600  12.6850
    12.6906  12.7764  12.7783  12.8701  12.8895  12.9096  12.9586  12.9640
    13.0636  13.0776  13.0827  13.1168  13.1895  13.2029  13.2437  13.2675
    13.3313  13.3649  13.3958  13.4065  13.4287  13.4603  13.4971  13.4972
    13.5180  13.5215  13.5557  13.5727  13.6396  13.6615  13.7002  13.7147
    13.7271  13.8088  13.8524  13.8792  13.8943  13.9252  13.9499  13.9635
    14.0472  14.0749  14.1000  14.1145  14.1357  14.1548  14.2264  14.2495
    14.2525  14.3196  14.3328  14.3413  14.3794  14.4180  14.4654  14.4787
    14.4962  14.5646  14.5655  14.5946  14.6042  14.6718  14.6910  14.7311
    14.7339  14.7599  14.7927  14.8356  14.8476  14.8926  14.9034  14.9524
    14.9913  14.9919  15.0680  15.0822  15.0918  15.1401  15.1764  15.1941
    15.2123  15.2750  15.2781  15.3245  15.3741  15.3868  15.4363  15.4712
    15.5252  15.5355  15.5522  15.5801  15.6146  15.6225  15.6366  15.6578
    15.6630  15.6902  15.6909  15.7153  15.7210  15.7400  15.7558  15.7856
    15.7929  15.8527  15.8799  15.9020  15.9206  15.9734  15.9781  15.9975
    16.0051  16.0162  16.0387  16.0472  16.0619  16.0924  16.1164  16.1591
    16.1615  16.2153  16.2192  16.2208  16.2454  16.2702  16.3277  16.3512
    16.3621  16.3804  16.3903  16.4566  16.4631  16.4989  16.5625  16.6143
    16.6150  16.6534  16.6801  16.7212

          k = 0.0000 0.0000 0.0180 ( 76658 PWs)   bands (ev):

   -21.8519 -20.9828 -20.9008 -20.0943 -20.0400 -19.5552 -19.1212 -18.6824
   -17.9344 -17.5956 -17.4489 -17.1270 -16.7317 -15.7786 -15.6948 -15.1955
   -14.8313 -14.6074 -14.3308 -14.0347 -13.0524 -12.4415 -12.3473 -12.3047
   -11.4485 -11.2237 -11.1881 -10.9482 -10.6747 -10.2475 -10.0669  -9.9111
    -9.8619  -9.7065  -9.4658  -9.3357  -9.1453  -8.9736  -8.9271  -8.8034
    -8.7966  -8.4758  -8.3317  -8.0227  -7.8603  -7.8177  -7.7510  -7.5144
    -7.3941  -7.3837  -6.8094  -6.4054  -6.3883  -6.2380  -5.7803  -5.3481
    -5.0996  -4.8847  -4.4377  -3.1231  -2.4655  -1.1953  -0.8297  -0.5620
    -0.3381  -0.0151   0.3882   0.4537   0.7778   0.9205   1.0142   1.3040
     1.4097   1.5347   1.5715   1.6528   1.8220   1.9146   1.9329   2.0335
     2.1931   2.2769   2.3528   2.3718   2.3848   2.4850   2.5579   2.6077
     2.6319   2.6333   2.7884   2.7969   2.9045   2.9707   3.1505   3.1853
     3.2035   3.2652   3.2850   3.3337   3.4033   3.4262   3.4648   3.4905
     3.4965   3.5716   3.5818   3.6400   3.6704   3.7794   3.8060   3.8850
     3.9309   4.0294   4.0743   4.1485   4.2685   4.3031   4.3600   4.4515
     4.4696   4.5352   4.5563   4.5818   4.6065   4.6469   4.6843   4.7206
     4.7514   4.7749   4.8132   4.8251   4.8274   4.8689   4.9268   4.9998
     5.0347   5.0538   5.1087   5.1540   5.2674   5.3384   5.3631   5.4249
     5.5042   5.5668   5.6041   5.6767   5.6936   5.7327   5.7613   5.7755
     5.8042   5.9089   5.9206   5.9411   5.9468   6.0025   6.0056   6.0453
     6.0877   6.1590   6.1884   6.2339   6.3416   6.4369   6.4857   6.5627
     6.5924   6.6309   6.6764   6.6811   6.7699   6.8072   6.8709   6.8858
     6.9201   6.9264   6.9430   6.9559   6.9945   7.0708   7.0804   7.1715
     7.1757   7.2376   7.2580   7.3038   7.3185   7.3543   7.3702   7.3721
     7.4827   7.5084   7.5331   7.5491   7.6002   7.6664   7.7197   7.7725
     7.8010   7.8340   7.9020   7.9045   7.9394   8.0309   8.0446   8.0464
     8.0564   8.0604   8.0872   8.1215   8.1432   8.1970   8.2318   8.3110
     8.3346   8.3788   8.3920   8.4114   8.4190   8.4771   8.5043   8.5381
     8.5523   8.5658   8.5901   8.6185   8.6876   8.7440   8.7757   8.8126
     8.8546   8.8734   8.9158   8.9533   8.9602   9.0284   9.0406   9.1022
     9.1050   9.1218   9.1533   9.1555   9.1927   9.2536   9.2800   9.2819
     9.3201   9.3971   9.4160   9.4231   9.4359   9.4668   9.5063   9.5441
     9.5967   9.5992   9.6007   9.6064   9.6408   9.6621   9.6877   9.6969
     9.7376   9.7603   9.7675   9.7923   9.8314   9.8524   9.8812   9.9430
     9.9574   9.9989  10.0222  10.0514  10.1035  10.1169  10.1438  10.2067
    10.2201  10.2427  10.2784  10.3358  10.3461  10.4156  10.4582  10.4718
    10.5078  10.5141  10.5641  10.6039  10.6352  10.6432  10.7148  10.7642
    10.7695  10.7718  10.7981  10.8291  10.8538  10.8707  10.8885  10.9189
    10.9311  10.9635  10.9761  11.0162  11.0201  11.1050  11.1377  11.1557
    11.1762  11.2154  11.2443  11.2547  11.2746  11.2809  11.3529  11.3758
    11.3825  11.4286  11.4345  11.5088  11.5927  11.6060  11.6719  11.6738
    11.6936  11.7365  11.7683  11.7918  11.8393  11.8405  11.8788  11.9078
    11.9486  11.9851  12.0160  12.0239  12.0581  12.0707  12.0735  12.1671
    12.1744  12.2023  12.2626  12.3082  12.3361  12.3678  12.3756  12.4360
    12.4900  12.5298  12.5613  12.5857  12.5932  12.6588  12.6850  12.7006
    12.7110  12.7647  12.8083  12.8646  12.8943  12.9015  12.9677  12.9745
    13.0165  13.0180  13.0633  13.1195  13.1723  13.1800  13.2206  13.2813
    13.2919  13.3105  13.3716  13.3877  13.3980  13.4161  13.4653  13.4741
    13.5315  13.5637  13.5802  13.5953  13.6695  13.6839  13.7182  13.7273
    13.7551  13.7652  13.8649  13.8746  13.8903  13.9115  13.9296  13.9719
    14.0067  14.0258  14.0916  14.1150  14.1364  14.1642  14.2234  14.2316
    14.2678  14.3293  14.3504  14.3703  14.3790  14.4259  14.4739  14.4979
    14.5099  14.5569  14.5664  14.5853  14.6452  14.6830  14.7026  14.7034
    14.7401  14.7492  14.7970  14.8314  14.8321  14.8533  14.8981  14.9370
    14.9769  14.9903  15.0189  15.0543  15.0623  15.1017  15.1366  15.1799
    15.2597  15.2880  15.3149  15.3748  15.4090  15.4139  15.4278  15.4301
    15.5414  15.5509  15.5539  15.5751  15.6268  15.6459  15.6525  15.6695
    15.6777  15.6860  15.6918  15.7097  15.7412  15.7491  15.7848  15.8029
    15.8368  15.8752  15.8931  15.8941  15.9052  15.9584  15.9889  15.9953
    15.9955  16.0299  16.0335  16.0450  16.0565  16.1311  16.1387  16.1580
    16.1608  16.1994  16.2256  16.2259  16.2423  16.2591  16.2928  16.3422
    16.3582  16.4102  16.4110  16.4121  16.4525  16.4579  16.5394  16.5709
    16.5792  16.6221  16.6524  16.6787

          k = 0.0000 0.0000 0.0203 ( 76664 PWs)   bands (ev):

   -21.8429 -20.9995 -20.9203 -20.0964 -20.0123 -19.5515 -19.0671 -18.7077
   -17.9233 -17.5895 -17.5080 -17.1440 -16.7785 -15.7722 -15.6553 -15.1999
   -14.8011 -14.5734 -14.3181 -14.0106 -13.0117 -12.4398 -12.4053 -12.3448
   -11.5163 -11.1989 -11.1537 -11.0400 -10.6988 -10.2712 -10.0508  -9.9002
    -9.8427  -9.6465  -9.4466  -9.3002  -9.0975  -8.9546  -8.9300  -8.8577
    -8.8361  -8.4900  -8.3652  -7.9897  -7.8952  -7.7555  -7.7491  -7.4810
    -7.3907  -7.3869  -6.7459  -6.4343  -6.4182  -6.2524  -5.7812  -5.3091
    -5.1672  -4.8824  -4.4735  -3.1646  -2.4185  -1.1701  -0.8133  -0.4793
    -0.3687  -0.0455   0.4002   0.4658   0.7903   0.9671   1.0265   1.3151
     1.3781   1.5098   1.5265   1.6322   1.7968   1.9020   1.9347   1.9803
     2.2028   2.2208   2.3643   2.3679   2.3947   2.4960   2.5389   2.6160
     2.6449   2.6805   2.7611   2.7987   2.9267   2.9404   3.1022   3.1497
     3.2480   3.2777   3.2787   3.3110   3.4057   3.4148   3.4600   3.4907
     3.5365   3.5780   3.5820   3.6092   3.6161   3.7199   3.8714   3.8734
     3.9337   4.0148   4.0182   4.1666   4.3157   4.3673   4.3822   4.4362
     4.4943   4.5082   4.5258   4.5457   4.6151   4.6490   4.7025   4.7117
     4.7333   4.7615   4.7830   4.8175   4.8995   4.9212   4.9517   5.0658
     5.0667   5.1123   5.1386   5.2205   5.3347   5.3502   5.4118   5.4188
     5.4754   5.5395   5.6025   5.6743   5.6965   5.7157   5.7226   5.8509
     5.8761   5.9093   5.9111   5.9826   5.9887   6.0104   6.0187   6.0574
     6.1090   6.1821   6.1865   6.2323   6.3388   6.4430   6.4982   6.5441
     6.5670   6.6583   6.6855   6.6918   6.7671   6.7901   6.8286   6.8994
     6.9051   6.9095   6.9518   6.9807   7.0022   7.0810   7.1083   7.1741
     7.1958   7.2323   7.2330   7.2767   7.3062   7.3605   7.3865   7.3911
     7.4478   7.4813   7.5147   7.5335   7.5662   7.5691   7.7060   7.7368
     7.7859   7.8110   7.8340   7.8434   7.9011   7.9958   8.0056   8.0367
     8.0450   8.0749   8.0761   8.0904   8.1296   8.1778   8.2259   8.3152
     8.3301   8.3563   8.3714   8.4051   8.4158   8.4380   8.4784   8.5017
     8.5196   8.5259   8.5567   8.6018   8.6619   8.6884   8.6991   8.7574
     8.7579   8.8580   8.9017   8.9357   8.9706   9.0156   9.0527   9.0731
     9.0909   9.1115   9.1425   9.1701   9.2031   9.2459   9.2649   9.3052
     9.3406   9.3611   9.4041   9.4123   9.4729   9.4776   9.4966   9.5041
     9.5264   9.5298   9.5526   9.5950   9.6226   9.6406   9.6675   9.6779
     9.6807   9.7673   9.7883   9.8400   9.8782   9.9066   9.9299   9.9539
     9.9727  10.0311  10.0486  10.0948  10.1211  10.1247  10.1594  10.1976
    10.2556  10.2774  10.3072  10.3206  10.3702  10.4067  10.4092  10.4853
    10.5379  10.5404  10.5896  10.5924  10.6299  10.6784  10.7059  10.7580
    10.7738  10.8224  10.8274  10.8538  10.8692  10.8875  10.9097  10.9169
    10.9459  10.9595  10.9965  11.0294  11.0457  11.1288  11.1653  11.2099
    11.2259  11.2411  11.2474  11.2945  11.2996  11.3082  11.3639  11.3880
    11.4125  11.4462  11.5039  11.5665  11.5996  11.6659  11.6858  11.7140
    11.7211  11.7701  11.7795  11.8216  11.8559  11.8616  11.8726  11.9326
    11.9941  12.0113  12.0243  12.0484  12.0795  12.1080  12.1444  12.1709
    12.1766  12.2055  12.2565  12.3276  12.3303  12.3937  12.4221  12.4442
    12.4773  12.5501  12.5685  12.6078  12.6489  12.6737  12.7043  12.7113
    12.7476  12.7851  12.8435  12.8662  12.9080  12.9123  12.9439  12.9546
    12.9926  13.0280  13.0411  13.1301  13.1419  13.1526  13.1734  13.2345
    13.2436  13.2615  13.3266  13.3828  13.4052  13.4200  13.4543  13.4545
    13.5193  13.5758  13.5780  13.5900  13.6688  13.7106  13.7275  13.7814
    13.8077  13.8168  13.8417  13.8574  13.8966  13.9050  13.9165  13.9650
    13.9983  14.0353  14.0894  14.0993  14.1219  14.1927  14.1949  14.2209
    14.3015  14.3251  14.3657  14.3844  14.4049  14.4326  14.4762  14.5012
    14.5222  14.5449  14.5770  14.5985  14.6679  14.6718  14.6895  14.6942
    14.7106  14.7527  14.8029  14.8134  14.8233  14.8480  14.8885  14.9024
    14.9359  14.9909  14.9998  15.0194  15.0477  15.0834  15.1130  15.1743
    15.2700  15.2806  15.3533  15.3560  15.3899  15.4033  15.4451  15.4891
    15.5270  15.5646  15.5699  15.6016  15.6192  15.6348  15.6443  15.6592
    15.6696  15.6768  15.6923  15.7105  15.7281  15.7483  15.8356  15.8693
    15.8734  15.8782  15.9134  15.9185  15.9496  15.9560  15.9608  15.9619
    15.9733  16.0119  16.0251  16.0313  16.0776  16.1049  16.1106  16.1432
    16.1898  16.2006  16.2022  16.2207  16.2460  16.2623  16.3259  16.3680
    16.3766  16.3938  16.3946  16.4314  16.4540  16.4746  16.4984  16.5201
    16.5239  16.6193  16.6565  16.6744

          k = 0.0000 0.0000 0.0225 ( 76654 PWs)   bands (ev):

   -21.8328 -21.0300 -20.9242 -20.1272 -19.9553 -19.5464 -19.0117 -18.7330
   -17.9132 -17.6432 -17.5053 -17.1639 -16.8267 -15.7910 -15.6017 -15.1898
   -14.7783 -14.5300 -14.3174 -13.9730 -12.9706 -12.4686 -12.4344 -12.3843
   -11.5905 -11.2168 -11.1322 -11.0707 -10.7163 -10.3031 -10.0403  -9.8881
    -9.8196  -9.5819  -9.4436  -9.2607  -9.0470  -8.9485  -8.9321  -8.9100
    -8.8577  -8.5047  -8.3963  -7.9569  -7.9362  -7.7496  -7.6874  -7.4679
    -7.3847  -7.3699  -6.6817  -6.4664  -6.4479  -6.2684  -5.7818  -5.2797
    -5.2287  -4.8796  -4.5123  -3.2103  -2.3676  -1.1404  -0.7946  -0.4214
    -0.3758  -0.0724   0.4137   0.4792   0.8043   1.0131   1.0402   1.3263
     1.3365   1.4639   1.4892   1.6284   1.7666   1.9047   1.9051   1.9612
     2.1610   2.2181   2.3608   2.3759   2.4083   2.4764   2.5209   2.6252
     2.6590   2.7222   2.7589   2.8085   2.8896   2.9525   3.0577   3.0814
     3.2300   3.2793   3.2928   3.3611   3.3734   3.4283   3.4704   3.4983
     3.5197   3.5424   3.5959   3.6086   3.6500   3.6681   3.8140   3.8830
     3.9566   3.9879   4.0575   4.1905   4.3391   4.3605   4.4295   4.4410
     4.4598   4.4732   4.5381   4.5613   4.6184   4.6242   4.6812   4.6960
     4.7048   4.7703   4.7727   4.8799   4.9157   4.9728   5.0275   5.0933
     5.0991   5.1633   5.2261   5.2752   5.3194   5.4039   5.4317   5.4570
     5.4867   5.5142   5.5853   5.6526   5.6814   5.6839   5.7390   5.8608
     5.8849   5.9477   5.9534   5.9866   5.9932   6.0332   6.0702   6.0879
     6.1839   6.1862   6.2273   6.2333   6.3368   6.4422   6.5102   6.5124
     6.5360   6.6614   6.6885   6.6978   6.7153   6.7826   6.8183   6.8788
     6.8997   6.9214   6.9495   7.0044   7.0193   7.0580   7.1327   7.1337
     7.2111   7.2262   7.2294   7.2896   7.3006   7.3611   7.3765   7.4128
     7.4262   7.4667   7.4706   7.5290   7.5337   7.5740   7.6744   7.6762
     7.7376   7.7576   7.7903   7.8267   7.8672   7.9400   7.9993   8.0126
     8.0259   8.0469   8.0695   8.0874   8.1242   8.1730   8.1951   8.2778
     8.2956   8.3168   8.3553   8.3845   8.4109   8.4109   8.4400   8.4769
     8.4931   8.5191   8.5494   8.5825   8.6151   8.6305   8.6683   8.6834
     8.7004   8.8148   8.8780   8.9216   8.9398   9.0082   9.0353   9.0549
     9.0821   9.0839   9.1305   9.1474   9.2320   9.2679   9.2693   9.3026
     9.3160   9.3406   9.3811   9.3889   9.4109   9.4141   9.4718   9.5162
     9.5179   9.5500   9.5710   9.6041   9.6090   9.6140   9.6521   9.6612
     9.7022   9.7117   9.7743   9.8722   9.9049   9.9717   9.9791  10.0045
    10.0225  10.0508  10.0641  10.0898  10.1403  10.1452  10.1697  10.2021
    10.2805  10.2873  10.3128  10.3219  10.3901  10.4439  10.4495  10.5070
    10.5399  10.5691  10.5766  10.6072  10.6170  10.6655  10.7018  10.7270
    10.7879  10.8184  10.8384  10.8628  10.9069  10.9072  10.9162  10.9642
    10.9684  10.9966  11.0204  11.0682  11.0966  11.1389  11.1700  11.1979
    11.2322  11.2620  11.2798  11.3175  11.3304  11.3361  11.3756  11.3806
    11.4441  11.5428  11.5807  11.6283  11.6321  11.6665  11.7398  11.7531
    11.7757  11.7774  11.8220  11.8228  11.8669  11.8746  11.8918  11.9577
    12.0035  12.0161  12.0180  12.1022  12.1057  12.1441  12.1708  12.2136
    12.2259  12.2431  12.2778  12.3061  12.3203  12.4261  12.4296  12.4643
    12.4954  12.5500  12.5656  12.6522  12.6590  12.6869  12.7136  12.7164
    12.7456  12.7995  12.8582  12.8898  12.9105  12.9386  12.9501  12.9927
    13.0003  13.0237  13.0598  13.0660  13.0799  13.1419  13.1700  13.1855
    13.2211  13.2726  13.2863  13.3633  13.4033  13.4203  13.4248  13.4614
    13.4812  13.5442  13.5908  13.6057  13.6680  13.6732  13.7498  13.7923
    13.8109  13.8378  13.8809  13.8908  13.8986  13.9257  13.9460  13.9798
    14.0338  14.0389  14.0901  14.0965  14.1032  14.1854  14.2198  14.2264
    14.3297  14.3320  14.3528  14.3879  14.3947  14.4688  14.4755  14.5043
    14.5087  14.5349  14.5560  14.6132  14.6441  14.6749  14.6875  14.7001
    14.7105  14.7429  14.7674  14.8129  14.8427  14.8539  14.8622  14.8975
    14.9055  14.9502  14.9736  14.9878  15.0798  15.0962  15.1110  15.1866
    15.2225  15.2344  15.3127  15.3865  15.3893  15.4295  15.4296  15.4728
    15.5143  15.5588  15.5763  15.6005  15.6035  15.6264  15.6413  15.6462
    15.6884  15.6907  15.7044  15.7133  15.7237  15.7787  15.7795  15.8096
    15.8621  15.8826  15.8921  15.9092  15.9286  15.9387  15.9401  15.9774
    15.9995  16.0022  16.0445  16.0920  16.1153  16.1159  16.1316  16.1513
    16.1700  16.1731  16.2181  16.2295  16.2498  16.2748  16.3291  16.3306
    16.3626  16.3985  16.4156  16.4187  16.4784  16.4838  16.5007  16.5223
    16.5657  16.5779  16.6400  16.6678

          k = 0.0000 0.0000 0.0248 ( 76650 PWs)   bands (ev):

   -21.8217 -21.0664 -20.9202 -20.1607 -19.8949 -19.5402 -18.9557 -18.7576
   -17.9040 -17.7215 -17.4763 -17.1878 -16.8733 -15.8230 -15.5484 -15.1638
   -14.7629 -14.4794 -14.3239 -13.9255 -12.9304 -12.5266 -12.4452 -12.4132
   -11.6644 -11.2854 -11.1564 -11.0063 -10.7263 -10.3400 -10.0343  -9.8746
    -9.7952  -9.5162  -9.4459  -9.2242  -9.0160  -8.9840  -8.9513  -8.8962
    -8.8602  -8.5205  -8.4234  -7.9776  -7.9246  -7.7514  -7.6191  -7.4762
    -7.3759  -7.3327  -6.6182  -6.5015  -6.4758  -6.2860  -5.7820  -5.3241
    -5.2207  -4.8766  -4.5524  -3.2597  -2.3132  -1.1077  -0.7736  -0.4521
    -0.2947  -0.0959   0.4285   0.4940   0.8198   1.0551   1.0574   1.2853
     1.3352   1.4160   1.4504   1.6345   1.7402   1.8523   1.9139   1.9672
     2.1066   2.2318   2.3521   2.3800   2.4239   2.4338   2.5316   2.6056
     2.6741   2.7425   2.8075   2.8113   2.8298   2.9623   3.0116   3.0384
     3.1864   3.2774   3.3042   3.3363   3.4265   3.4596   3.4694   3.4779
     3.5040   3.5225   3.5923   3.6210   3.6299   3.7374   3.7598   3.8471
     3.9007   4.0631   4.1166   4.2219   4.3235   4.3325   4.3773   4.4372
     4.4709   4.5145   4.5468   4.5770   4.5874   4.6307   4.6412   4.6853
     4.6998   4.7519   4.8208   4.9044   4.9687   5.0390   5.0663   5.1153
     5.1518   5.2391   5.2767   5.3133   5.3211   5.4110   5.4565   5.4921
     5.5057   5.5526   5.5610   5.6309   5.6494   5.6928   5.7510   5.8081
     5.8879   5.9498   5.9907   6.0135   6.0358   6.0644   6.1178   6.1569
     6.2031   6.2333   6.2521   6.2913   6.3319   6.4178   6.4748   6.5171
     6.5283   6.5962   6.6890   6.6922   6.7201   6.7562   6.8272   6.8526
     6.8898   6.9318   6.9424   6.9913   7.0097   7.0221   7.1481   7.1837
     7.1967   7.2115   7.2474   7.2554   7.3058   7.3124   7.3568   7.3983
     7.4386   7.4868   7.4936   7.4989   7.5372   7.5927   7.5995   7.6542
     7.6982   7.7269   7.7369   7.8232   7.8296   7.8868   7.9764   8.0031
     8.0160   8.0162   8.0299   8.0987   8.1145   8.1348   8.1501   8.2067
     8.2552   8.2849   8.3235   8.3421   8.3835   8.4300   8.4372   8.4444
     8.4536   8.4840   8.5177   8.5325   8.6022   8.6053   8.6638   8.6800
     8.6863   8.7306   8.8521   8.8832   8.9317   8.9733   8.9823   9.0312
     9.0465   9.0842   9.1169   9.1706   9.1937   9.2024   9.2495   9.2766
     9.2993   9.3074   9.3379   9.3391   9.4238   9.4330   9.4684   9.5062
     9.5343   9.5503   9.5769   9.6026   9.6266   9.6319   9.6531   9.6725
     9.6773   9.7710   9.7899   9.8826   9.9059   9.9447   9.9944   9.9949
    10.0622  10.0875  10.0908  10.1160  10.1581  10.1730  10.2040  10.2251
    10.2752  10.2783  10.3342  10.3616  10.4411  10.4558  10.4957  10.5127
    10.5297  10.5557  10.5948  10.6198  10.6229  10.6621  10.6828  10.7585
    10.7950  10.8225  10.8472  10.8526  10.8998  10.9265  10.9506  10.9772
    11.0303  11.0373  11.0414  11.0989  11.1597  11.1612  11.1743  11.1873
    11.2361  11.2641  11.2741  11.3171  11.3520  11.3685  11.4079  11.4345
    11.4856  11.5754  11.6475  11.6503  11.6891  11.7192  11.7395  11.7925
    11.7982  11.8088  11.8400  11.8511  11.8914  11.9214  11.9466  11.9583
    12.0184  12.0323  12.0397  12.1062  12.1135  12.1562  12.1935  12.2367
    12.2704  12.2851  12.3034  12.3406  12.3827  12.4225  12.4460  12.4724
    12.4908  12.5742  12.5940  12.6198  12.6539  12.6624  12.6837  12.7777
    12.7830  12.8183  12.8507  12.8551  12.9059  12.9539  12.9594  12.9778
    13.0068  13.0672  13.0699  13.0803  13.0999  13.1431  13.1578  13.1993
    13.2224  13.2593  13.3067  13.3360  13.3371  13.4077  13.4252  13.4422
    13.4659  13.5280  13.5913  13.6273  13.6335  13.6669  13.7442  13.7595
    13.7968  13.8598  13.9148  13.9230  13.9439  13.9558  13.9566  13.9885
    14.0359  14.0809  14.0825  14.1283  14.1670  14.1966  14.2131  14.2573
    14.3045  14.3429  14.3569  14.3975  14.4055  14.4329  14.4399  14.4881
    14.5173  14.5476  14.5500  14.6189  14.6244  14.6734  14.6887  14.7028
    14.7218  14.7357  14.7413  14.7832  14.8417  14.8589  14.8836  14.8945
    14.9060  14.9255  14.9343  15.0186  15.0574  15.0670  15.1545  15.1829
    15.2002  15.2291  15.2757  15.3323  15.3699  15.3941  15.4465  15.4560
    15.4960  15.5531  15.5550  15.5608  15.5955  15.6170  15.6239  15.6306
    15.6485  15.6598  15.6941  15.6947  15.7342  15.7501  15.7546  15.8167
    15.8275  15.8379  15.8894  15.8993  15.9269  15.9280  15.9520  15.9913
    15.9960  16.0210  16.0335  16.0715  16.1050  16.1299  16.1514  16.1686
    16.1806  16.2350  16.2367  16.2537  16.2699  16.3018  16.3031  16.3345
    16.3365  16.4048  16.4448  16.4618  16.4924  16.5050  16.5196  16.5345
    16.5638  16.5847  16.5914  16.6229

          k = 0.0000 0.0000 0.0271 ( 76658 PWs)   bands (ev):

   -21.8096 -21.1045 -20.9128 -20.1942 -19.8335 -19.5327 -18.9006 -18.7796
   -17.8961 -17.8032 -17.4426 -17.2169 -16.9154 -15.8639 -15.4999 -15.1223
   -14.7539 -14.4259 -14.3318 -13.8714 -12.8929 -12.5851 -12.4778 -12.4186
   -11.7356 -11.3783 -11.1666 -10.9354 -10.7283 -10.3795 -10.0317  -9.8599
    -9.7716  -9.4626  -9.4370  -9.1940  -9.0471  -9.0265  -8.9406  -8.8535
    -8.8477  -8.5385  -8.4439  -8.0188  -7.8936  -7.7536  -7.5524  -7.4939
    -7.3634  -7.2875  -6.5629  -6.5394  -6.4942  -6.3051  -5.7820  -5.3984
    -5.1878  -4.8747  -4.5910  -3.3124  -2.2559  -1.0738  -0.7505  -0.4923
    -0.2038  -0.1156   0.4448   0.5102   0.8367   1.0714   1.0972   1.2288
     1.3317   1.3733   1.4182   1.6455   1.7194   1.7983   1.9262   1.9726
     2.0584   2.2461   2.3415   2.3512   2.4226   2.4411   2.5380   2.5793
     2.6894   2.7445   2.7690   2.8256   2.8539   2.9428   2.9506   3.0649
     3.1451   3.2336   3.3204   3.3433   3.4032   3.4227   3.4861   3.4878
     3.5339   3.5453   3.5680   3.6361   3.6447   3.7118   3.7990   3.8287
     3.8482   4.1316   4.1788   4.2525   4.2896   4.3042   4.3242   4.4111
     4.4937   4.4958   4.5394   4.5804   4.6007   4.6349   4.6534   4.6838
     4.7044   4.7410   4.8830   4.9040   5.0508   5.0785   5.0824   5.1513
     5.2356   5.2459   5.2928   5.3427   5.3963   5.4161   5.4656   5.4964
     5.5176   5.5436   5.6192   5.6276   5.6697   5.7028   5.7570   5.7580
     5.8940   5.9143   5.9991   6.0289   6.1149   6.1335   6.1545   6.2080
     6.2102   6.2592   6.3140   6.3207   6.3715   6.3728   6.4531   6.4890
     6.5459   6.5551   6.6849   6.6863   6.7225   6.7330   6.7854   6.8319
     6.8571   6.8993   6.9580   6.9964   7.0169   7.0429   7.1190   7.1459
     7.1670   7.2055   7.2362   7.2634   7.3094   7.3129   7.3508   7.4091
     7.4258   7.4484   7.4804   7.5113   7.5571   7.5614   7.5983   7.6577
     7.6808   7.6987   7.7233   7.8015   7.8158   7.8445   7.9278   7.9582
     7.9913   8.0082   8.0198   8.0464   8.0523   8.1084   8.1287   8.1657
     8.2215   8.2431   8.2631   8.3242   8.3386   8.3488   8.3943   8.4267
     8.4658   8.4658   8.5036   8.5371   8.5567   8.5941   8.6603   8.6667
     8.7096   8.7314   8.7892   8.8610   8.9011   8.9285   8.9682   8.9738
     9.0155   9.0377   9.0730   9.0963   9.1359   9.1813   9.1865   9.2349
     9.2879   9.3286   9.3480   9.3817   9.3980   9.4554   9.4556   9.4977
     9.5125   9.5292   9.5658   9.5962   9.6480   9.6495   9.6896   9.6987
     9.7642   9.8066   9.8492   9.8719   9.8817   9.9161   9.9574  10.0169
    10.0532  10.0946  10.1061  10.1171  10.1860  10.2107  10.2293  10.2502
    10.2938  10.3589  10.3639  10.3838  10.4327  10.4428  10.4527  10.4950
    10.5178  10.5914  10.6294  10.6591  10.6644  10.6935  10.7136  10.7941
    10.7955  10.8320  10.8453  10.8687  10.8893  10.9491  10.9639  10.9956
    11.0119  11.0546  11.0980  11.1293  11.1606  11.1755  11.1913  11.2239
    11.2399  11.2701  11.2940  11.3463  11.3919  11.4126  11.4581  11.4710
    11.5153  11.5545  11.6164  11.7090  11.7202  11.7290  11.7777  11.8009
    11.8021  11.8463  11.8884  11.9130  11.9451  11.9475  11.9631  12.0197
    12.0250  12.0552  12.0919  12.1064  12.1471  12.1566  12.1831  12.2477
    12.2898  12.3071  12.3672  12.3809  12.4035  12.4455  12.4793  12.4998
    12.5049  12.5531  12.5954  12.6301  12.6564  12.6766  12.6804  12.7473
    12.7803  12.8009  12.8351  12.8413  12.9144  12.9304  12.9811  13.0057
    13.0530  13.0725  13.0835  13.1067  13.1499  13.1634  13.1830  13.2129
    13.2526  13.2789  13.2797  13.2927  13.3786  13.3975  13.4183  13.4301
    13.4627  13.4947  13.5789  13.6069  13.6370  13.6530  13.7477  13.7526
    13.7953  13.8529  13.9130  13.9453  13.9508  13.9681  13.9867  14.0049
    14.0586  14.0968  14.1146  14.1419  14.1922  14.2096  14.2438  14.3040
    14.3112  14.3384  14.3795  14.3796  14.4007  14.4101  14.4227  14.4853
    14.5248  14.5326  14.5572  14.5686  14.6137  14.6697  14.6997  14.7105
    14.7306  14.7430  14.7535  14.7869  14.8304  14.8549  14.8624  14.9061
    14.9130  14.9189  14.9476  14.9996  15.0278  15.0666  15.1348  15.2044
    15.2061  15.2423  15.2600  15.2628  15.3219  15.3911  15.3970  15.4138
    15.4260  15.4820  15.5007  15.5312  15.5796  15.5967  15.6049  15.6216
    15.6301  15.6433  15.6703  15.6744  15.7147  15.7305  15.7313  15.7964
    15.8142  15.8374  15.8494  15.9084  15.9130  15.9133  15.9261  15.9811
    15.9904  16.0281  16.0671  16.0740  16.1005  16.1136  16.1397  16.1421
    16.1689  16.2363  16.2670  16.2678  16.3111  16.3466  16.3470  16.4077
    16.4297  16.4336  16.4425  16.4664  16.4844  16.5018  16.5257  16.5485
    16.5554  16.5707  16.6000  16.6242

          k = 0.0000 0.0000 0.0293 ( 76678 PWs)   bands (ev):

   -21.7965 -21.1426 -20.9035 -20.2274 -19.7718 -19.5238 -18.8556 -18.7897
   -17.8987 -17.8760 -17.4090 -17.2516 -16.9501 -15.9112 -15.4568 -15.0679
   -14.7498 -14.3832 -14.3273 -13.8129 -12.8624 -12.6406 -12.5146 -12.4182
   -11.8023 -11.4760 -11.1769 -10.8648 -10.7219 -10.4201 -10.0324  -9.8440
    -9.7507  -9.4558  -9.3804  -9.1728  -9.0993  -9.0707  -8.9162  -8.8428
    -8.7902  -8.5602  -8.4546  -8.0593  -7.8657  -7.7543  -7.5156  -7.4902
    -7.3447  -7.2397  -6.5801  -6.5548  -6.4637  -6.3259  -5.7818  -5.4762
    -5.1573  -4.8768  -4.6236  -3.3678  -2.1962  -1.0408  -0.7262  -0.5314
    -0.1412  -0.1015   0.4624   0.5278   0.8550   1.0886   1.1113   1.1896
     1.3008   1.3364   1.4096   1.6582   1.7029   1.7464   1.9404   1.9599
     2.0319   2.2583   2.3055   2.3279   2.4292   2.4599   2.5195   2.5801
     2.6607   2.7062   2.7963   2.8197   2.8553   2.9085   2.9572   3.1065
     3.1093   3.1812   3.3337   3.3533   3.3664   3.3668   3.4742   3.5063
     3.5230   3.5705   3.6373   3.6466   3.6658   3.6814   3.7587   3.8023
     3.9156   4.1769   4.2153   4.2493   4.2574   4.2780   4.3380   4.3838
     4.4487   4.5002   4.5272   4.5344   4.6348   4.6552   4.6744   4.7219
     4.7278   4.7352   4.9094   4.9484   5.0876   5.0893   5.1445   5.1760
     5.2498   5.2908   5.3244   5.3717   5.4379   5.4533   5.4574   5.4713
     5.5514   5.5606   5.6187   5.6759   5.6967   5.7266   5.7486   5.7791
     5.8722   5.9103   6.0119   6.0285   6.1596   6.1743   6.1848   6.2093
     6.2574   6.3018   6.3061   6.3531   6.3719   6.4396   6.4593   6.4614
     6.5493   6.5649   6.6403   6.6769   6.6829   6.7325   6.7437   6.8190
     6.8511   6.8987   6.9649   6.9822   6.9999   7.0217   7.0980   7.1168
     7.1255   7.2000   7.2126   7.2592   7.3303   7.3378   7.3579   7.3773
     7.3954   7.4308   7.4495   7.4981   7.5521   7.5964   7.6144   7.6347
     7.6859   7.7039   7.7133   7.7971   7.8219   7.8299   7.8771   7.8994
     7.9098   7.9508   7.9884   8.0207   8.0434   8.0606   8.1378   8.1415
     8.1538   8.1893   8.1949   8.2402   8.2972   8.3542   8.3601   8.3817
     8.4451   8.4696   8.4912   8.5138   8.5611   8.6022   8.6577   8.6792
     8.6866   8.7642   8.7780   8.8031   8.8747   8.8923   8.9124   8.9269
     8.9550   8.9873   8.9933   9.0158   9.1025   9.1081   9.1971   9.2171
     9.3028   9.3173   9.3691   9.3847   9.4033   9.4497   9.4579   9.4705
     9.5094   9.5323   9.5520   9.6077   9.6732   9.6768   9.7155   9.7208
     9.7741   9.8325   9.8654   9.8802   9.9137   9.9265   9.9945  10.0238
    10.0411  10.0929  10.0992  10.1198  10.1755  10.1879  10.2738  10.2938
    10.3012  10.3623  10.3732  10.4060  10.4218  10.4358  10.4632  10.4873
    10.5504  10.6394  10.6585  10.6846  10.7059  10.7171  10.7540  10.8215
    10.8280  10.8474  10.8776  10.8780  10.8988  10.9339  10.9759  10.9880
    11.0437  11.0717  11.1118  11.1156  11.1612  11.1949  11.2123  11.2276
    11.2724  11.3002  11.3588  11.4089  11.4386  11.4668  11.4722  11.4920
    11.5245  11.5634  11.5833  11.6783  11.6910  11.7462  11.8052  11.8174
    11.8345  11.8914  11.9380  11.9551  11.9658  11.9663  12.0038  12.0175
    12.0486  12.0917  12.1377  12.1555  12.1848  12.1934  12.2128  12.2540
    12.3015  12.3242  12.3745  12.3923  12.4212  12.4542  12.4669  12.5315
    12.5599  12.5870  12.6292  12.6333  12.6447  12.6697  12.6721  12.7202
    12.7578  12.7826  12.8629  12.9014  12.9048  12.9474  12.9505  13.0056
    13.0610  13.0830  13.1266  13.1423  13.1612  13.1810  13.2000  13.2281
    13.2816  13.3031  13.3084  13.3658  13.3673  13.3802  13.4258  13.4654
    13.4670  13.4796  13.5788  13.6025  13.6077  13.6531  13.7258  13.7764
    13.8069  13.8202  13.9012  13.9536  13.9653  13.9758  13.9838  14.0346
    14.0886  14.0955  14.1037  14.1520  14.1948  14.2174  14.2783  14.2873
    14.3271  14.3374  14.3880  14.4089  14.4219  14.4472  14.4496  14.4577
    14.4836  14.5039  14.5687  14.5740  14.6205  14.6707  14.6808  14.7152
    14.7376  14.7610  14.7664  14.8094  14.8233  14.8496  14.8562  14.9053
    14.9179  14.9285  14.9541  14.9748  15.0293  15.0414  15.1429  15.1449
    15.1779  15.2043  15.2500  15.2577  15.2919  15.3152  15.3652  15.3714
    15.3839  15.4010  15.4570  15.5365  15.5433  15.5503  15.5944  15.6017
    15.6227  15.6334  15.6410  15.6726  15.6801  15.6933  15.7093  15.7404
    15.7726  15.8106  15.8397  15.8523  15.8675  15.9132  15.9280  15.9710
    15.9722  16.0364  16.0505  16.0596  16.1169  16.1415  16.1504  16.1568
    16.1970  16.2584  16.2603  16.2827  16.3290  16.3706  16.3749  16.4053
    16.4087  16.4361  16.4635  16.4799  16.5247  16.5426  16.5519  16.5526
    16.5868  16.6005  16.6075  16.6126

          k = 0.0000 0.0000 0.0316 ( 76680 PWs)   bands (ev):

   -21.7824 -21.1801 -20.8930 -20.2597 -19.7106 -19.5131 -18.8507 -18.7578
   -17.9724 -17.8783 -17.3812 -17.2884 -16.9754 -15.9631 -15.4183 -15.0046
   -14.7493 -14.3754 -14.2859 -13.7512 -12.8493 -12.6836 -12.5491 -12.4180
   -11.8635 -11.5745 -11.1897 -10.7988 -10.7051 -10.4600 -10.0359  -9.8268
    -9.7337  -9.4518  -9.3202  -9.1769  -9.1356  -9.1150  -8.8923  -8.8300
    -8.7330  -8.5847  -8.4535  -8.0989  -7.8441  -7.7502  -7.5394  -7.4386
    -7.3140  -7.1913  -6.6232  -6.5770  -6.4012  -6.3482  -5.7814  -5.5557
    -5.1321  -4.8873  -4.6437  -3.4255  -2.1346  -1.0114  -0.7055  -0.5619
    -0.1535  -0.0082   0.4815   0.5467   0.8749   1.0600   1.1063   1.2092
     1.2581   1.2956   1.4201   1.6637   1.6889   1.7052   1.9206   1.9557
     2.0349   2.2412   2.2864   2.3089   2.4281   2.4803   2.5007   2.5798
     2.5963   2.7159   2.7971   2.8071   2.8346   2.8936   3.0070   3.0720
     3.1278   3.1596   3.3003   3.3121   3.3620   3.3800   3.4287   3.5097
     3.5407   3.5802   3.6481   3.6701   3.6803   3.7269   3.7289   3.7750
     4.0060   4.1653   4.1948   4.2186   4.2284   4.3185   4.3624   4.3998
     4.4018   4.4749   4.4959   4.5419   4.6320   4.6678   4.7128   4.7294
     4.7505   4.7983   4.9225   5.0067   5.0818   5.1134   5.1664   5.2197
     5.2776   5.3061   5.3714   5.4052   5.4168   5.4437   5.4546   5.5241
     5.6034   5.6095   5.6380   5.6521   5.6818   5.7817   5.8137   5.8369
     5.8378   5.9223   6.0196   6.0299   6.0819   6.1891   6.2123   6.2425
     6.2900   6.3014   6.3507   6.3843   6.4183   6.4522   6.4620   6.5180
     6.5457   6.5843   6.5881   6.6155   6.6872   6.7429   6.7509   6.8130
     6.8524   6.8775   6.9015   6.9719   6.9786   7.0027   7.0811   7.0887
     7.1287   7.1769   7.1782   7.2653   7.2975   7.3055   7.3428   7.3770
     7.4010   7.4347   7.4429   7.4932   7.5667   7.5841   7.6128   7.6469
     7.6656   7.6944   7.7272   7.7866   7.8125   7.8230   7.8312   7.8589
     7.8619   7.9013   7.9762   7.9769   8.0229   8.0334   8.0501   8.1011
     8.1150   8.1514   8.1797   8.1995   8.2538   8.2709   8.3435   8.3778
     8.3856   8.4795   8.5094   8.5235   8.5666   8.6160   8.6308   8.6623
     8.6876   8.7579   8.7674   8.7721   8.8080   8.8297   8.8526   8.8844
     8.9035   8.9122   8.9515   9.0111   9.0279   9.1341   9.1782   9.2080
     9.2653   9.2956   9.3420   9.4088   9.4181   9.4242   9.4444   9.5103
     9.5164   9.5331   9.5694   9.6074   9.6659   9.7080   9.7123   9.7215
     9.7683   9.8053   9.8948   9.9434   9.9499   9.9682  10.0424  10.0631
    10.0639  10.0735  10.0889  10.1348  10.1387  10.1477  10.2318  10.2944
    10.3356  10.3751  10.3786  10.3989  10.4158  10.4524  10.4958  10.5207
    10.6341  10.6586  10.6843  10.6854  10.7385  10.7568  10.7604  10.8365
    10.8466  10.8508  10.8848  10.9054  10.9275  10.9562  10.9899  11.0338
    11.0850  11.0886  11.1152  11.1248  11.1268  11.2167  11.2203  11.2396
    11.3031  11.3373  11.4365  11.4437  11.4681  11.4848  11.4982  11.5214
    11.5508  11.5556  11.6017  11.6394  11.6543  11.7724  11.8121  11.8194
    11.8355  11.9142  11.9429  11.9584  11.9793  11.9991  12.0160  12.0765
    12.0827  12.1093  12.1318  12.1728  12.2171  12.2628  12.2951  12.3061
    12.3174  12.3511  12.3797  12.3823  12.4256  12.4434  12.4902  12.5059
    12.5499  12.5871  12.6218  12.6276  12.6729  12.7140  12.7148  12.7661
    12.8110  12.8337  12.8591  12.8907  12.9156  12.9206  12.9746  12.9881
    13.0073  13.1166  13.1373  13.1813  13.1916  13.1970  13.2081  13.2918
    13.2962  13.3155  13.3569  13.3630  13.3993  13.4178  13.4521  13.4713
    13.4911  13.5449  13.5589  13.6066  13.6341  13.6770  13.6783  13.7860
    13.7982  13.8272  13.9074  13.9114  13.9589  13.9761  13.9826  14.0151
[...]
     5.6502   5.7106   5.7579   5.8426   5.8553   5.9004   5.9857   6.0276
     6.0537   6.0914   6.1369   6.1819   6.2088   6.2218   6.2480   6.2986
     6.3433   6.3481   6.3729   6.3772   6.4304   6.4706   6.4988   6.5787
     6.5980   6.6235   6.6448   6.7048   6.7270   6.7332   6.8233   6.8559
     6.8870   6.9175   6.9382   6.9434   6.9652   6.9726   7.0168   7.0212
     7.0657   7.1221   7.1248   7.1475   7.1757   7.1999   7.2088   7.2375
     7.2656   7.2663   7.3160   7.3308   7.3558   7.3623   7.3692   7.3716
     7.3880   7.4412   7.5317   7.5604   7.6188   7.6637   7.7072   7.7125
     7.7812   7.8014   7.8291   7.8410   7.8554   7.9027   7.9193   7.9669
     8.0209   8.0232   8.0494   8.0783   8.1262   8.2025   8.2359   8.2572
     8.2915   8.3014   8.3715   8.4046   8.4658   8.4917   8.5079   8.5699
     8.5904   8.5987   8.6709   8.6986   8.7111   8.7158   8.7273   8.7890
     8.8216   8.8267   8.8947   8.9205   8.9768   9.0322   9.0557   9.0869
     9.1083   9.1608   9.1639   9.1775   9.2496   9.2767   9.3596   9.4286
     9.4829   9.5120   9.5609   9.5791   9.6030   9.6759   9.7174   9.7916
     9.8519   9.8907   9.9002   9.9928  10.0233  10.0779  10.0945  10.1418
    10.1625  10.1948  10.2016  10.3210  10.3349  10.3485  10.3614  10.3685
    10.4191  10.4757  10.4816  10.5016  10.5346  10.5858  10.5906  10.6498
    10.6570  10.7535  10.7732  10.8033  10.8173  10.8300  10.8667  10.9192
    10.9469  10.9516  10.9776  11.0713  11.0721  11.0853  11.0949  11.1225
    11.1448  11.1648  11.2074  11.2509  11.2716  11.2869  11.3179  11.3262
    11.3429  11.3633  11.3766  11.3973  11.4016  11.4660  11.5024  11.5474
    11.5827  11.5962  11.6310  11.6659  11.6983  11.7775  11.8411  11.8517
    11.9028  11.9390  11.9566  12.0096  12.0255  12.0989  12.1692  12.1965
    12.1999  12.2131  12.2795  12.3169  12.3187  12.3688  12.3714  12.4013
    12.4473  12.4528  12.4626  12.5226  12.5746  12.6352  12.6604  12.6906
    12.7124  12.7225  12.7490  12.7705  12.8187  12.8195  12.8649  12.9122
    12.9211  13.0025  13.0455  13.0459  13.1001  13.1061  13.1715  13.2240
    13.2418  13.2560  13.2582  13.3266  13.3595  13.3687  13.3993  13.4262
    13.4648  13.5518  13.5550  13.5660  13.6091  13.6485  13.6667  13.7076
    13.7282  13.7302  13.7583  13.7828  13.7967  13.8042  13.8122  13.8355
    13.8413  13.8731  13.9333  13.9520  13.9802  14.0201  14.0341  14.0507
    14.0691  14.0696  14.1036  14.1296  14.1649  14.2268  14.2323  14.2868
    14.3070  14.3169  14.3307  14.3685  14.4014  14.4157  14.4365  14.4750
    14.5352  14.5755  14.6025  14.6264  14.6276  14.6617  14.6680  14.6761
    14.6792  14.7072  14.7412  14.7688  14.7797  14.7872  14.7949  14.8584
    14.8828  14.8920  14.9405  14.9594  14.9696  14.9887  14.9892  15.0253
    15.0407  15.0543  15.0595  15.0628  15.0970  15.1062  15.1341  15.1635
    15.1690  15.1902  15.2209  15.2330  15.2477  15.2707  15.2910  15.3181
    15.3256  15.3557  15.3656  15.4126  15.4303  15.4583  15.5125  15.5209
    15.5516  15.6296  15.6585  15.6842  15.6990  15.7354  15.7574  15.7997
    15.8147  15.8385  15.8427  15.8656  15.8835  15.9103  15.9541  15.9766
    15.9776  15.9845  16.0082  16.0633  16.0649  16.0906  16.1346  16.1475
    16.1578  16.1974  16.2455  16.2674  16.2946  16.3128  16.3348  16.4084
    16.4303  16.4567  16.4748  16.5222

          k = 0.0000 0.0000 0.0519 ( 76618 PWs)   bands (ev):

   -21.6237 -21.4608 -20.7917 -20.4731 -19.4812 -19.1325 -18.9445 -18.6658
   -18.1810 -17.9198 -17.8064 -17.2420 -16.7524 -16.4896 -15.1516 -14.9261
   -14.4886 -14.2402 -13.8335 -13.5246 -13.0816 -12.7381 -12.6128 -12.4824
   -12.3152 -12.0687 -11.3151 -10.8024 -10.4862 -10.1559 -10.1091  -9.8457
    -9.6283  -9.6098  -9.4569  -9.2828  -9.1483  -8.9351  -8.8484  -8.7943
    -8.6958  -8.4109  -8.3681  -8.0900  -7.9587  -7.7999  -7.4099  -7.3122
    -7.0762  -6.8139  -6.7760  -6.6123  -6.6096  -6.2979  -5.8213  -5.7182
    -5.4400  -5.0054  -4.3207  -3.9646  -1.5679  -1.2324  -0.7124  -0.3275
    -0.0108   0.3080   0.7101   0.7672   0.8671   0.9221   0.9345   1.1217
     1.2690   1.3232   1.3607   1.5108   1.5146   1.6644   1.7531   1.8006
     1.9306   2.0568   2.2206   2.2465   2.3707   2.3882   2.4365   2.5488
     2.6951   2.7229   2.7319   2.7705   2.8489   2.8662   2.8827   2.9891
     2.9978   3.1041   3.1454   3.1583   3.3008   3.3018   3.4712   3.6075
     3.6151   3.6877   3.7507   3.7737   3.8012   3.8151   3.8543   3.8821
     3.9553   3.9715   4.0203   4.0396   4.0454   4.1419   4.2511   4.5139
     4.6205   4.6527   4.7121   4.7919   4.8506   4.8954   4.9357   4.9444
     4.9779   5.0111   5.0609   5.0821   5.0902   5.1365   5.2006   5.2314
     5.2361   5.2852   5.3210   5.4270   5.4782   5.5313   5.5916   5.6553
     5.6939   5.6990   5.7816   5.8334   5.8643   5.8870   5.9569   6.0361
     6.0489   6.1317   6.1620   6.1847   6.1949   6.2412   6.2695   6.3291
     6.3395   6.3502   6.3935   6.4512   6.4581   6.4944   6.5181   6.5825
     6.5943   6.6264   6.6429   6.6813   6.7046   6.7634   6.8018   6.8103
     6.8626   6.8969   6.9191   6.9283   6.9552   6.9570   6.9725   7.0113
     7.0421   7.0542   7.1565   7.1580   7.1910   7.2152   7.2293   7.2498
     7.2652   7.2897   7.2952   7.3441   7.3471   7.3788   7.4043   7.4208
     7.4222   7.4599   7.5111   7.5338   7.6225   7.6454   7.6809   7.7132
     7.7190   7.7549   7.7561   7.8028   7.8234   7.8428   7.8788   7.9205
     7.9450   8.0113   8.0263   8.0850   8.1576   8.2257   8.2680   8.3061
     8.3122   8.3594   8.4004   8.4094   8.4399   8.5338   8.5462   8.5521
     8.5857   8.6130   8.6179   8.6503   8.7160   8.7421   8.7527   8.7687
     8.8182   8.8426   8.8871   8.9037   8.9488   9.0000   9.0162   9.0702
     9.1002   9.1166   9.1769   9.2042   9.2320   9.2507   9.3657   9.4106
     9.4225   9.5139   9.5740   9.5890   9.6140   9.7140   9.7467   9.8186
     9.8438   9.8744   9.8961   9.9662   9.9663  10.0701  10.1468  10.1536
    10.1836  10.1950  10.2129  10.3042  10.3447  10.3803  10.3964  10.4066
    10.4240  10.4743  10.4778  10.5337  10.5510  10.5635  10.5926  10.5932
    10.7100  10.7495  10.7574  10.7997  10.8330  10.8815  10.9034  10.9322
    10.9346  10.9438  10.9719  11.0677  11.0777  11.0797  11.1157  11.1323
    11.1830  11.1884  11.2328  11.2486  11.2510  11.2525  11.2750  11.3217
    11.3539  11.3701  11.3844  11.3947  11.3967  11.4303  11.4600  11.4880
    11.5974  11.6066  11.6258  11.6591  11.7007  11.7650  11.8035  11.8398
    11.8975  11.9546  11.9727  11.9767  12.0142  12.1018  12.1633  12.2238
    12.2804  12.2826  12.3039  12.3115  12.3404  12.3960  12.4196  12.4233
    12.4600  12.4675  12.5243  12.5787  12.5788  12.6274  12.6842  12.6850
    12.7176  12.7325  12.7551  12.7608  12.7951  12.8319  12.8710  12.9133
    12.9644  12.9964  13.0486  13.0531  13.1126  13.1380  13.1479  13.1668
    13.2120  13.2472  13.2723  13.2774  13.3432  13.3863  13.4038  13.4291
    13.4468  13.5053  13.5580  13.5727  13.6050  13.6706  13.6955  13.6991
    13.7317  13.7546  13.7747  13.7957  13.8100  13.8439  13.8632  13.8728
    13.9061  13.9318  13.9589  14.0114  14.0202  14.0363  14.0535  14.0584
    14.0623  14.1057  14.1084  14.1205  14.1871  14.1969  14.2119  14.2397
    14.3355  14.3553  14.3563  14.4001  14.4204  14.4526  14.4655  14.4819
    14.4935  14.5626  14.5731  14.5820  14.6150  14.6336  14.6673  14.6854
    14.6857  14.7159  14.7243  14.7359  14.7648  14.7855  14.7915  14.8161
    14.8315  14.8699  14.9034  14.9352  14.9725  14.9757  14.9925  15.0110
    15.0297  15.0475  15.0694  15.0762  15.0983  15.1048  15.1049  15.1187
    15.1412  15.1517  15.1795  15.2249  15.2463  15.2688  15.2690  15.3134
    15.3473  15.3513  15.3717  15.4094  15.4436  15.4583  15.5106  15.5179
    15.5350  15.5841  15.6290  15.6648  15.6842  15.6941  15.7266  15.7290
    15.7444  15.7449  15.7808  15.8310  15.8519  15.9284  15.9587  15.9803
    15.9825  15.9952  16.0402  16.0601  16.0930  16.0952  16.1180  16.1521
    16.2172  16.2478  16.2499  16.2814  16.3228  16.3321  16.3458  16.3730
    16.4006  16.4511  16.4771  16.4845

          k = 0.0000 0.0000 0.0541 ( 76632 PWs)   bands (ev):

   -21.6106 -21.4771 -20.7868 -20.4809 -19.4784 -19.1076 -18.9246 -18.7184
   -18.1143 -17.9783 -17.8143 -17.2422 -16.7082 -16.5380 -15.1364 -14.9395
   -14.4818 -14.2169 -13.7872 -13.5860 -13.0357 -12.7644 -12.6177 -12.4744
   -12.3506 -12.0681 -11.3194 -10.8114 -10.4761 -10.1634 -10.0427  -9.9031
    -9.6172  -9.6096  -9.4793  -9.2741  -9.1488  -8.9215  -8.8580  -8.7988
    -8.6887  -8.3974  -8.3787  -8.0521  -7.9866  -7.8118  -7.3796  -7.3093
    -7.1092  -6.8083  -6.7403  -6.6447  -6.5466  -6.3732  -5.8072  -5.6684
    -5.5022  -5.0052  -4.2838  -4.0044  -1.5236  -1.2736  -0.7087  -0.3256
     0.0627   0.2252   0.7367   0.7894   0.8375   0.9079   1.0249   1.1555
     1.2309   1.2310   1.3928   1.4745   1.5305   1.6977   1.7331   1.7673
     1.9563   2.0224   2.2499   2.2666   2.3364   2.3883   2.4123   2.5784
     2.6709   2.7404   2.7626   2.7682   2.8364   2.8433   2.8838   2.9583
     3.0154   3.1204   3.1231   3.1777   3.2671   3.2827   3.4937   3.6418
     3.6450   3.6969   3.7264   3.7405   3.8283   3.8334   3.8706   3.8912
     3.9226   3.9678   3.9701   4.0147   4.0748   4.1450   4.2182   4.5475
     4.6199   4.7086   4.7169   4.8128   4.8774   4.8802   4.9295   4.9531
     4.9619   5.0313   5.0328   5.1111   5.1162   5.1319   5.1898   5.1955
     5.2376   5.2842   5.3730   5.4067   5.4547   5.5056   5.5756   5.6376
     5.6795   5.7602   5.7852   5.8535   5.8895   5.8899   5.9523   5.9776
     6.0668   6.1383   6.1554   6.1640   6.1743   6.2918   6.3100   6.3371
     6.3564   6.3714   6.4154   6.4901   6.4903   6.5099   6.5234   6.5595
     6.6010   6.6313   6.6487   6.6508   6.7179   6.7513   6.7905   6.7962
     6.8439   6.8629   6.8975   6.8995   6.9530   6.9539   6.9850   6.9881
     7.0200   7.0553   7.1101   7.1273   7.1718   7.1911   7.2447   7.2610
     7.2880   7.2984   7.3504   7.3678   7.3682   7.3881   7.4458   7.4760
     7.4823   7.4957   7.5177   7.5493   7.5709   7.6078   7.6298   7.6691
     7.6790   7.6873   7.7595   7.7721   7.8014   7.8043   7.8444   7.8826
     7.9119   7.9658   8.0194   8.0876   8.2333   8.2428   8.2952   8.3148
     8.3535   8.3799   8.4361   8.4384   8.4531   8.4761   8.5172   8.5399
     8.5753   8.5835   8.6216   8.6770   8.6859   8.7674   8.7736   8.8234
     8.8274   8.8387   8.8652   8.9099   8.9376   8.9437   9.0006   9.0337
     9.0652   9.0866   9.1682   9.2236   9.2475   9.2775   9.3441   9.3675
     9.4091   9.5168   9.5726   9.6088   9.6511   9.7170   9.7775   9.7976
     9.8493   9.8810   9.9034   9.9320   9.9450  10.0680  10.1112  10.1706
    10.2020  10.2197  10.2284  10.2975  10.3530  10.3738  10.4126  10.4441
    10.4534  10.4628  10.5021  10.5184  10.5294  10.5539  10.6203  10.6392
    10.6766  10.7183  10.7588  10.8080  10.8222  10.8603  10.9115  10.9364
    10.9511  11.0105  11.0164  11.0590  11.0772  11.0838  11.1339  11.1575
    11.1668  11.1911  11.2196  11.2304  11.2455  11.2674  11.2726  11.2813
    11.2988  11.3494  11.3558  11.3979  11.4271  11.4374  11.4693  11.4969
    11.5885  11.5926  11.6355  11.6517  11.7198  11.7210  11.8023  11.8094
    11.8928  11.9549  11.9558  12.0112  12.0178  12.0899  12.1402  12.2362
    12.2690  12.3094  12.3378  12.3551  12.3667  12.3975  12.4105  12.4553
    12.5272  12.5493  12.5495  12.5733  12.6079  12.6507  12.6752  12.6940
    12.6969  12.7166  12.7198  12.8016  12.8037  12.8496  12.8739  12.9124
    12.9822  12.9915  13.0427  13.0518  13.0735  13.1002  13.1361  13.1449
    13.2065  13.2530  13.2877  13.2925  13.3413  13.3791  13.3943  13.4075
    13.4518  13.4951  13.5333  13.5393  13.6135  13.6550  13.6681  13.7084
    13.7396  13.7709  13.7897  13.7961  13.8620  13.8656  13.8898  13.8962
    13.9746  13.9944  14.0008  14.0075  14.0115  14.0416  14.0634  14.1016
    14.1028  14.1345  14.1582  14.1611  14.1685  14.1939  14.2196  14.2460
    14.3177  14.3397  14.4028  14.4045  14.4086  14.4458  14.4548  14.4846
    14.4931  14.5279  14.5416  14.5946  14.6021  14.6339  14.6339  14.6422
    14.6631  14.7173  14.7181  14.7445  14.7707  14.7765  14.7851  14.8305
    14.8377  14.8400  14.8543  14.8998  14.9012  14.9182  14.9200  14.9805
    15.0207  15.0466  15.0620  15.0858  15.1061  15.1263  15.1298  15.1523
    15.1635  15.1801  15.2333  15.2418  15.2456  15.2695  15.3031  15.3232
    15.3376  15.3612  15.3732  15.4074  15.4507  15.4556  15.4989  15.5201
    15.5251  15.5569  15.5804  15.5910  15.6120  15.6258  15.6419  15.6776
    15.7234  15.7316  15.7487  15.7780  15.8536  15.9304  15.9715  15.9898
    16.0006  16.0059  16.0425  16.0456  16.0783  16.1270  16.1750  16.1998
    16.2115  16.2499  16.2527  16.3183  16.3195  16.3532  16.3837  16.3856
    16.4482  16.4540  16.4726  16.4888

          k = 0.0000 0.0000-0.0564 ( 76670 PWs)   bands (ev):

   -21.6055 -21.4833 -20.7851 -20.4835 -19.4775 -19.0997 -18.9124 -18.7411
   -18.0614 -18.0294 -17.8161 -17.2424 -16.6860 -16.5616 -15.1308 -14.9446
   -14.4797 -14.2087 -13.7625 -13.6162 -13.0165 -12.7772 -12.6189 -12.4705
   -12.3638 -12.0678 -11.3209 -10.8145 -10.4726 -10.1663  -9.9948  -9.9481
    -9.6194  -9.6018  -9.4884  -9.2712  -9.1489  -8.9168  -8.8613  -8.8005
    -8.6862  -8.3927  -8.3824  -8.0211  -8.0143  -7.8160  -7.3675  -7.3083
    -7.1222  -6.8072  -6.7204  -6.6636  -6.5023  -6.4209  -5.8039  -5.6355
    -5.5380  -5.0052  -4.2687  -4.0204  -1.5049  -1.2912  -0.7074  -0.3252
     0.1285   0.1564   0.7505   0.7982   0.8241   0.8962   1.1072   1.1518
     1.1833   1.2017   1.4145   1.4514   1.5364   1.7261   1.7310   1.7337
     1.9797   1.9965   2.2677   2.2751   2.3168   2.3884   2.4024   2.5952
     2.6534   2.7539   2.7609   2.7999   2.8096   2.8213   2.9184   2.9221
     3.0287   3.1084   3.1270   3.1940   3.2488   3.2751   3.5023   3.6580
     3.6718   3.6843   3.7122   3.7261   3.8427   3.8442   3.8871   3.8963
     3.9051   3.9372   3.9842   3.9879   4.0917   4.1468   4.2018   4.5716
     4.5971   4.7073   4.7999   4.8036   4.8498   4.8782   4.9103   4.9295
     4.9797   5.0134   5.1138   5.1143   5.1333   5.1362   5.1442   5.1732
     5.2128   5.3136   5.3789   5.3950   5.4827   5.5055   5.5399   5.6089
     5.6875   5.7563   5.8562   5.8651   5.8728   5.8792   5.9467   5.9600
     6.0788   6.1265   6.1404   6.1615   6.1687   6.2953   6.3326   6.3437
     6.3974   6.4145   6.4247   6.4407   6.4543   6.5231   6.5639   6.5639
     6.5864   6.6362   6.6640   6.6887   6.6900   6.7153   6.7698   6.7957
     6.8433   6.8657   6.8765   6.8995   6.9488   6.9515   7.0077   7.0083
     7.0221   7.0306   7.0546   7.1153   7.1763   7.1850   7.2426   7.2485
     7.3076   7.3179   7.3220   7.3769   7.4232   7.4492   7.4662   7.4863
     7.4868   7.4911   7.5455   7.5619   7.5654   7.5660   7.5991   7.6340
     7.6551   7.6795   7.7341   7.7549   7.8044   7.8226   7.8273   7.8373
     7.9292   7.9371   8.0166   8.0870   8.2506   8.2679   8.3091   8.3452
     8.3539   8.3702   8.4265   8.4592   8.4640   8.4822   8.5139   8.5239
     8.5297   8.5736   8.6219   8.6607   8.7409   8.7736   8.7893   8.7972
     8.8414   8.8586   8.8725   8.8824   8.9291   8.9495   8.9854   9.0200
     9.0493   9.0604   9.1637   9.2488   9.2664   9.2952   9.2961   9.3667
     9.3997   9.5183   9.5699   9.6505   9.6644   9.6710   9.7978   9.8319
     9.8412   9.8461   9.8984   9.9296   9.9562  10.0686  10.0942  10.1515
    10.2081  10.2281  10.2751  10.2781  10.3445  10.4049  10.4105  10.4122
    10.4747  10.4790  10.4898  10.5228  10.5230  10.5736  10.6200  10.6500
    10.6793  10.7109  10.7374  10.8122  10.8210  10.8333  10.9089  10.9488
    10.9749  11.0217  11.0262  11.0785  11.0996  11.1190  11.1363  11.1453
    11.1461  11.1655  11.2047  11.2194  11.2347  11.2664  11.2689  11.2778
    11.3022  11.3389  11.3556  11.3958  11.4082  11.4214  11.5322  11.5367
    11.5427  11.5924  11.6085  11.6641  11.6998  11.7386  11.7838  11.8152
    11.8776  11.9532  11.9608  12.0182  12.0419  12.0681  12.1336  12.2168
    12.3065  12.3128  12.3141  12.3652  12.3863  12.4051  12.4507  12.4542
    12.4806  12.5735  12.6005  12.6104  12.6237  12.6380  12.6776  12.6869
    12.6909  12.7048  12.7387  12.8028  12.8040  12.8672  12.8746  12.9048
    12.9490  12.9730  13.0400  13.0488  13.0780  13.0900  13.1345  13.1500
    13.2037  13.2557  13.2908  13.3002  13.3342  13.3723  13.4234  13.4295
    13.4432  13.4602  13.4838  13.5203  13.6273  13.6625  13.6951  13.7121
    13.7183  13.7839  13.7864  13.8076  13.8584  13.8735  13.8890  13.9082
    13.9732  13.9824  13.9895  14.0353  14.0688  14.0709  14.0983  14.1065
    14.1161  14.1163  14.1312  14.1694  14.2037  14.2114  14.3014  14.3034
    14.3134  14.3239  14.3269  14.3420  14.4150  14.4209  14.4301  14.4409
    14.4942  14.5320  14.5415  14.6110  14.6331  14.6551  14.6571  14.6783
    14.6840  14.6945  14.7081  14.7403  14.7508  14.7684  14.7771  14.7976
    14.8077  14.8090  14.8337  14.8589  14.8778  14.8849  14.9241  14.9674
    15.0446  15.0569  15.0821  15.1078  15.1141  15.1143  15.1468  15.1587
    15.1648  15.1920  15.2270  15.2641  15.2692  15.2889  15.3078  15.3132
    15.3685  15.3791  15.3871  15.4052  15.4578  15.4622  15.4666  15.4897
    15.5094  15.5184  15.5491  15.5615  15.5925  15.5999  15.6232  15.6880
    15.6972  15.7197  15.7322  15.7848  15.8318  15.9288  15.9910  15.9934
    16.0073  16.0133  16.0450  16.0515  16.0527  16.1566  16.1753  16.1797
    16.2334  16.2599  16.2846  16.3305  16.3339  16.3406  16.3440  16.3801
    16.4682  16.4934  16.5273  16.5293

     the Fermi energy is    -2.8782 ev

     Writing output data file C_2Z_1A_W7.save/

     init_run     :      9.63s CPU      9.86s WALL (       1 calls)
     electrons    :   3509.36s CPU   3553.15s WALL (       1 calls)

     Called by init_run:
     wfcinit      :      0.00s CPU      0.01s WALL (       1 calls)
     potinit      :      0.69s CPU      0.75s WALL (       1 calls)
     hinit0       :      7.14s CPU      7.19s WALL (       1 calls)

     Called by electrons:
     c_bands      :   3509.35s CPU   3553.14s WALL (       1 calls)
     v_of_rho     :      0.52s CPU      0.55s WALL (       1 calls)
     newd         :      0.36s CPU      0.44s WALL (       1 calls)

     Called by c_bands:
     init_us_2    :      0.24s CPU      0.26s WALL (      26 calls)
     cegterg      :   3406.28s CPU   3442.69s WALL (      26 calls)

     Called by sum_band:

     Called by *egterg:
     h_psi        :    736.28s CPU    748.46s WALL (     529 calls)
     s_psi        :     46.50s CPU     46.71s WALL (     529 calls)
     g_psi        :      5.94s CPU      6.02s WALL (     477 calls)
     cdiaghg      :   1501.78s CPU   1507.93s WALL (     503 calls)

     Called by h_psi:
     h_psi:pot    :    728.82s CPU    739.12s WALL (     529 calls)
     h_psi:calbec :     47.85s CPU     48.72s WALL (     529 calls)
     vloc_psi     :    635.10s CPU    644.29s WALL (     529 calls)
     add_vuspsi   :     45.87s CPU     46.10s WALL (     529 calls)

     General routines
     calbec       :     47.85s CPU     48.71s WALL (     529 calls)
     fft          :      0.58s CPU      0.62s WALL (      14 calls)
     ffts         :      0.00s CPU      0.00s WALL (       1 calls)
     fftw         :    516.08s CPU    523.70s WALL (  342336 calls)
     interpolate  :      0.04s CPU      0.04s WALL (       1 calls)
     davcio       :      0.00s CPU      4.84s WALL (      52 calls)

     Parallel routines
     fft_scatt_xy :     91.63s CPU     92.79s WALL (  342351 calls)
     fft_scatt_yz :    104.76s CPU    106.69s WALL (  342351 calls)

     PWSCF        : 58m48.53s CPU       58h 1m WALL

       3h

   This run was terminated on:  22:59:20  28Apr2021            

=------------------------------------------------------------------------------=
   JOB DONE.
=------------------------------------------------------------------------------=
