
     Program PWSCF v.6.3 starts on 28Apr2021 at 23:46: 9 

     This program is part of the open-source Quantum ESPRESSO suite
     for quantum simulation of materials; please cite
         "P. Giannozzi et al., J. Phys.:Condens. Matter 21 395502 (2009);
         "P. Giannozzi et al., J. Phys.:Condens. Matter 29 465901 (2017);
          URL http://www.quantum-espresso.org", 
     in publications or presentations arising from this work. More details at
     http://www.quantum-espresso.org/quote

     Parallel version (MPI), running on    16 processors
     R & G space division:  proc/nbgrp/npool/nimage =      16
     Waiting for input...
     Reading input from standard input
     Message from routine read_cards :
     DEPRECATED: no units specified in CELL_PARAMETERS card

     Current dimensions of program PWSCF are:
     Max number of different atomic species (ntypx) = 10
     Max number of k-points (npk) =  40000
     Max angular momentum in pseudopotentials (lmaxx) =  3

     Atomic positions and unit cell read from directory:
     /home/zfwang/scratch/GNRDATASET/AGNR/C_2Z_2A_W9/C_2Z_2A_W9.save/


     Subspace diagonalization in iterative solution of the eigenvalue problem:
     a serial algorithm will be used


     Parallelization info
     --------------------
     sticks:   dense  smooth     PW     G-vecs:    dense   smooth      PW
     Min        2556     852    221               292339    56256    7469
     Max        2558     853    222               292343    56259    7472
     Sum       40909   13645   3551              4677435   900119  119529



     bravais-lattice index     =            0
     lattice parameter (alat)  =       1.8897  a.u.
     unit-cell volume          =   26338.7495 (a.u.)^3
     number of atoms/cell      =           64
     number of atomic types    =            2
     number of electrons       =       220.00
     number of Kohn-Sham states=          500
     kinetic-energy cutoff     =      40.0000  Ry
     charge density cutoff     =     480.0000  Ry
     Exchange-correlation      = PBE ( 1  4  3  4 0 0)

     celldm(1)=  18.897261  celldm(2)=   3.000000  celldm(3)=   1.301000
     celldm(4)=   0.000000  celldm(5)=   0.000000  celldm(6)=   0.000000

     crystal axes: (cart. coord. in units of alat)
               a(1) = (  10.000000   0.000000   0.000000 )  
               a(2) = (   0.000000  30.000000   0.000000 )  
               a(3) = (   0.000000   0.000000  13.010000 )  

     reciprocal axes: (cart. coord. in units 2 pi/alat)
               b(1) = (  0.100000  0.000000  0.000000 )  
               b(2) = (  0.000000  0.033333  0.000000 )  
               b(3) = (  0.000000  0.000000  0.076864 )  


     PseudoPot. # 1 for C  read from file:
     /home/zfwang/hp_home/MySoftware/qe-6.3/pseudo/C.pbe-n-rrkjus_psl.0.1.UPF
     MD5 check sum: fff530ed632a789b3b184014e67dd7f1
     Pseudo is Ultrasoft + core correction, Zval =  4.0
     Generated using "atomic" code by A. Dal Corso v.5.0.2 svn rev. 9415
     Using radial grid of 1073 points,  4 beta functions with: 
                l(1) =   0
                l(2) =   0
                l(3) =   1
                l(4) =   1
     Q(r) pseudized with 0 coefficients 


     PseudoPot. # 2 for H  read from file:
     /home/zfwang/hp_home/MySoftware/qe-6.3/pseudo/H.pbe-rrkjus_psl.0.1.UPF
     MD5 check sum: e164a6907b691c6980f16942be34de84
     Pseudo is Ultrasoft, Zval =  1.0
     Generated using "atomic" code by A. Dal Corso v.5.0.2 svn rev. 9415
     Using radial grid of  929 points,  2 beta functions with: 
                l(1) =   0
                l(2) =   0
     Q(r) pseudized with 0 coefficients 


     atomic species   valence    mass     pseudopotential
        C              4.00    12.01070     C ( 1.00)
        H              1.00     1.00794     H ( 1.00)

     No symmetry found



   Cartesian axes

     site n.     atom                  positions (alat units)
         1           C   tau(   1) = (   4.9999999   9.6298511   4.1642571  )
         2           C   tau(   2) = (   4.9999996  10.4476002   8.3699543  )
         3           C   tau(   3) = (   4.9999998  11.2711151  12.5526494  )
         4           C   tau(   4) = (   5.0000000  10.6929972   3.2215781  )
         5           C   tau(   5) = (   5.0000002  11.4881516   7.4199716  )
         6           C   tau(   6) = (   5.0000001  12.2969689  11.6257723  )
         7           C   tau(   7) = (   5.0000005  12.0407937   3.7040582  )
         8           C   tau(   8) = (   5.0000004  12.8352885   7.8873310  )
         9           C   tau(   9) = (   5.0000003  13.6606328  12.0786628  )
        10           C   tau(  10) = (   4.9999999   9.8830922   5.5057184  )
        11           C   tau(  11) = (   4.9999993  10.7115793   9.7139552  )
        12           C   tau(  12) = (   4.9999998  10.4567232   1.8474882  )
        13           C   tau(  13) = (   5.0000000  11.2131399   6.0137412  )
        14           C   tau(  14) = (   5.0000001  12.0312025  10.2049929  )
        15           C   tau(  15) = (   5.0000008  13.1192246   2.7836667  )
        16           C   tau(  16) = (   5.0000000  13.9194941   6.9627554  )
        17           C   tau(  17) = (   5.0000004  14.7326638  11.1550594  )
        18           C   tau(  18) = (   5.0000007  14.4652403   3.2509748  )
        19           C   tau(  19) = (   4.9999998  15.2666818   7.4302206  )
        20           C   tau(  20) = (   5.0000004  16.0798981  11.6225112  )
        21           C   tau(  21) = (   5.0000003  11.5103335   0.9281034  )
        22           C   tau(  22) = (   5.0000002  12.2956531   5.1010082  )
        23           C   tau(  23) = (   5.0000004  13.1058655   9.2859709  )
        24           C   tau(  24) = (   5.0000006  12.8627415   1.3947038  )
        25           C   tau(  25) = (   5.0000002  13.6481575   5.5711946  )
        26           C   tau(  26) = (   5.0000004  14.4655507   9.7506724  )
        27           C   tau(  27) = (   5.0000003  15.5339143   2.3242978  )
        28           C   tau(  28) = (   4.9999997  16.3386368   6.5065750  )
        29           C   tau(  29) = (   5.0000006  17.1641100  10.6979382  )
        30           C   tau(  30) = (   4.9999999  16.8799037   2.7916226  )
        31           C   tau(  31) = (   4.9999998  17.7022419   6.9595218  )
        32           C   tau(  32) = (   5.0000002  18.5112974  11.1653441  )
        33           C   tau(  33) = (   5.0000004  13.9307063   0.4620346  )
        34           C   tau(  34) = (   5.0000003  14.7229160   4.6472724  )
        35           C   tau(  35) = (   5.0000002  15.5336636   8.8346041  )
        36           C   tau(  36) = (   5.0000003  15.2762442   0.9279836  )
        37           C   tau(  37) = (   5.0000001  16.0683983   5.1132605  )
        38           C   tau(  38) = (   5.0000003  16.8933280   9.2993229  )
        39           C   tau(  39) = (   4.9999999  17.9583810   1.8712962  )
        40           C   tau(  40) = (   5.0000000  18.7280174   6.0326216  )
        41           C   tau(  41) = (   4.9999998  19.5518009  10.2152915  )
        42           C   tau(  42) = (   5.0000000  19.3061319   2.3538433  )
        43           C   tau(  43) = (   5.0000001  16.3510976  13.0141236  )
        44           C   tau(  44) = (   5.0000003  17.1362845   4.1805785  )
        45           C   tau(  45) = (   5.0000000  17.9678848   8.3803260  )
        46           C   tau(  46) = (   5.0000000  18.7860727  12.5715913  )
        47           C   tau(  47) = (   5.0000000  17.7035484   0.4743669  )
        48           C   tau(  48) = (   5.0000002  18.4886287   4.6472275  )
        49           C   tau(  49) = (   4.9999998  19.2874378   8.8713959  )
        50           C   tau(  50) = (   5.0000002  20.1160287   0.0696610  )
        51           C   tau(  51) = (   5.0000002  20.3692428   1.4111582  )
        52           C   tau(  52) = (   4.9999999  19.5422449   3.7279358  )
        53           H   tau(  53) = (   4.9999996   8.6032645   3.7958225  )
        54           H   tau(  54) = (   4.9999989   9.4096790   8.0469260  )
        55           H   tau(  55) = (   4.9999993  10.2294330  12.2367380  )
        56           H   tau(  56) = (   5.0000002   9.0393723   6.1922830  )
        57           H   tau(  57) = (   4.9999987   9.8701714  10.4029109  )
        58           H   tau(  58) = (   4.9999991   9.4288019   1.4797298  )
        59           H   tau(  59) = (   5.0000000  19.7698372   6.3481123  )
        60           H   tau(  60) = (   4.9999990  20.5899211  10.5379760  )
        61           H   tau(  61) = (   4.9999993  20.1285753   8.1821998  )
        62           H   tau(  62) = (   5.0000009  20.9594973  12.3928517  )
        63           H   tau(  63) = (   5.0000003  21.3957372   1.7796908  )
        64           H   tau(  64) = (   4.9999993  20.5700641   4.0959276  )

     number of k points=    26  Marzari-Vanderbilt smearing, width (Ry)=  0.0100
                       cart. coord. in units 2pi/alat
        k(    1) = (   0.0000000   0.0000000   0.0000000), wk =   0.0400000
        k(    2) = (   0.0000000   0.0000000   0.0015373), wk =   0.0800000
        k(    3) = (   0.0000000   0.0000000   0.0030746), wk =   0.0800000
        k(    4) = (   0.0000000   0.0000000   0.0046118), wk =   0.0800000
        k(    5) = (   0.0000000   0.0000000   0.0061491), wk =   0.0800000
        k(    6) = (   0.0000000   0.0000000   0.0076864), wk =   0.0800000
        k(    7) = (   0.0000000   0.0000000   0.0092237), wk =   0.0800000
        k(    8) = (   0.0000000   0.0000000   0.0107610), wk =   0.0800000
        k(    9) = (   0.0000000   0.0000000   0.0122982), wk =   0.0800000
        k(   10) = (   0.0000000   0.0000000   0.0138355), wk =   0.0800000
        k(   11) = (   0.0000000   0.0000000   0.0153728), wk =   0.0800000
        k(   12) = (   0.0000000   0.0000000   0.0169101), wk =   0.0800000
        k(   13) = (   0.0000000   0.0000000   0.0184473), wk =   0.0800000
        k(   14) = (   0.0000000   0.0000000   0.0199846), wk =   0.0800000
        k(   15) = (   0.0000000   0.0000000   0.0215219), wk =   0.0800000
        k(   16) = (   0.0000000   0.0000000   0.0230592), wk =   0.0800000
        k(   17) = (   0.0000000   0.0000000   0.0245965), wk =   0.0800000
        k(   18) = (   0.0000000   0.0000000   0.0261337), wk =   0.0800000
        k(   19) = (   0.0000000   0.0000000   0.0276710), wk =   0.0800000
        k(   20) = (   0.0000000   0.0000000   0.0292083), wk =   0.0800000
        k(   21) = (   0.0000000   0.0000000   0.0307456), wk =   0.0800000
        k(   22) = (   0.0000000   0.0000000   0.0322829), wk =   0.0800000
        k(   23) = (   0.0000000   0.0000000   0.0338201), wk =   0.0800000
        k(   24) = (   0.0000000   0.0000000   0.0353574), wk =   0.0800000
        k(   25) = (   0.0000000   0.0000000   0.0368947), wk =   0.0800000
        k(   26) = (   0.0000000   0.0000000  -0.0384320), wk =   0.0400000

     Dense  grid:  4677435 G-vectors     FFT dimensions: ( 135, 400, 180)

     Smooth grid:   900119 G-vectors     FFT dimensions: (  80, 240, 100)

     Estimated max dynamical RAM per process >    1023.82 MB

     Estimated total dynamical RAM >      16.00 GB

     The potential is recalculated from file :
     /home/zfwang/scratch/GNRDATASET/AGNR/C_2Z_2A_W9/C_2Z_2A_W9.save/charge-density.dat


     negative rho (up, down):  3.090E-04 0.000E+00
     Starting wfcs are  220 randomized atomic wfcs +  280 random wfcs

     Band Structure Calculation
     Davidson diagonalization with overlap

     ethr =  4.55E-09,  avg # of iterations = 51.4

     total cpu time spent up to now is     8254.4 secs

     End of band structure calculation

          k = 0.0000 0.0000 0.0000 (112509 PWs)   bands (ev):

   -21.7814 -21.2098 -21.1561 -21.0947 -20.5677 -20.5468 -20.1667 -19.6258
   -19.6184 -19.2989 -19.2368 -18.9550 -18.7035 -18.6647 -18.2992 -18.2822
   -17.8605 -17.6794 -17.3954 -17.0247 -16.9062 -16.7232 -16.6182 -16.2937
   -16.2741 -15.6927 -15.5392 -15.0187 -14.9909 -14.9312 -14.7307 -14.6282
   -14.4121 -14.2978 -13.5520 -13.4467 -13.2042 -12.9510 -12.7087 -12.4313
   -12.2897 -12.2374 -12.0417 -11.8859 -11.7453 -11.5200 -11.4958 -11.3252
   -11.2328 -10.9619 -10.7605 -10.6536 -10.5548 -10.4987  -9.8598  -9.8522
    -9.8049  -9.6794  -9.5681  -9.5595  -9.3982  -9.2833  -9.2453  -9.1938
    -9.1076  -9.0487  -9.0216  -8.8881  -8.7668  -8.7014  -8.6250  -8.5791
    -8.4664  -8.4391  -8.4383  -8.4336  -8.3031  -8.1209  -8.1012  -8.0337
    -8.0010  -7.6977  -7.6669  -7.3936  -7.3931  -7.3349  -7.2701  -6.9908
    -6.9551  -6.9182  -6.8446  -6.8292  -6.7226  -6.6958  -6.3277  -6.2659
    -6.0044  -5.9930  -5.8824  -5.8296  -5.5053  -5.3145  -5.2333  -4.8228
    -4.6409  -4.5641  -4.4624  -3.9546  -3.8777  -2.7023  -2.3554  -1.1665
    -1.1316  -0.8019  -0.6961  -0.5474  -0.5066  -0.2109   0.2527   0.3991
     0.5721   0.6208   0.8886   0.9517   1.0243   1.2208   1.3465   1.3496
     1.4006   1.4132   1.4314   1.4571   1.5754   1.7337   1.7462   1.7550
     1.7913   2.0646   2.0926   2.1107   2.1235   2.1805   2.2435   2.3069
     2.3367   2.4026   2.4123   2.5293   2.5441   2.5944   2.6315   2.6888
     2.6928   2.7945   2.9270   2.9427   2.9531   2.9637   3.0552   3.0765
     3.0949   3.1277   3.1951   3.2099   3.2736   3.3586   3.3873   3.4010
     3.4072   3.4089   3.4691   3.5008   3.5094   3.5435   3.6093   3.6214
     3.6372   3.6806   3.6918   3.6966   3.7550   3.7640   3.8528   3.8601
     4.0340   4.0899   4.1145   4.1709   4.1714   4.2302   4.2561   4.2616
     4.2627   4.3362   4.3701   4.4673   4.4713   4.4720   4.5161   4.5775
     4.6150   4.6762   4.6796   4.7045   4.7090   4.7521   4.7731   4.7859
     4.8521   4.8546   4.9244   4.9285   4.9349   4.9439   4.9486   4.9953
     5.0675   5.0771   5.2131   5.2655   5.2696   5.3354   5.3368   5.3933
     5.4303   5.4716   5.4833   5.4842   5.5013   5.5682   5.5707   5.5832
     5.6302   5.6749   5.7287   5.7298   5.7452   5.7576   5.7603   5.7653
     5.8274   5.8386   5.8825   5.9343   5.9474   5.9855   5.9897   5.9948
     6.0136   6.0342   6.0740   6.0809   6.1154   6.1506   6.1537   6.1846
     6.2075   6.2128   6.2572   6.2761   6.3194   6.3307   6.3788   6.3817
     6.4188   6.4324   6.4353   6.4746   6.4807   6.4961   6.5270   6.6278
     6.6339   6.6371   6.6469   6.6484   6.6562   6.7542   6.7752   6.7968
     6.8617   6.8761   6.9030   6.9102   6.9447   6.9458   7.0004   7.0032
     7.0193   7.0373   7.0623   7.0626   7.0934   7.0945   7.1153   7.1692
     7.2054   7.2067   7.2128   7.2377   7.2947   7.3055   7.3176   7.3293
     7.3813   7.3879   7.3955   7.4496   7.5158   7.5314   7.5773   7.5904
     7.6195   7.6332   7.6670   7.6742   7.7008   7.7058   7.7334   7.7838
     7.7903   7.8696   7.8830   7.9149   7.9515   7.9917   7.9996   8.0089
     8.0537   8.0627   8.0707   8.0879   8.1093   8.1156   8.1428   8.1536
     8.1599   8.1617   8.2232   8.2424   8.2667   8.2936   8.2966   8.3215
     8.3532   8.3546   8.3708   8.3815   8.3834   8.4687   8.4930   8.4973
     8.5037   8.5162   8.5554   8.5976   8.6140   8.6276   8.6592   8.6629
     8.6728   8.7061   8.7513   8.8024   8.8167   8.8215   8.8342   8.8643
     8.8866   8.9458   8.9680   8.9706   9.0009   9.0493   9.0601   9.0691
     9.0802   9.1189   9.1485   9.1712   9.1760   9.2018   9.2105   9.2297
     9.2714   9.2782   9.3227   9.3735   9.3909   9.3936   9.4139   9.4272
     9.4282   9.4373   9.4660   9.4691   9.4984   9.5175   9.5508   9.5697
     9.6472   9.6612   9.6938   9.7208   9.7291   9.7516   9.7624   9.7718
     9.8022   9.8482   9.8834   9.9104   9.9235   9.9504   9.9805   9.9913
     9.9989  10.0098  10.0288  10.0372  10.0438  10.0553  10.0907  10.1573
    10.1694  10.1842  10.1938  10.1952  10.2283  10.2418  10.2685  10.2763
    10.2858  10.3392  10.3628  10.4438  10.4476  10.4482  10.4537  10.4724
    10.4949  10.5329  10.5329  10.5623  10.5713  10.5829  10.6529  10.6537
    10.6716  10.6983  10.6995  10.7006  10.7363  10.7403  10.7551  10.7708
    10.7761  10.7936  10.8076  10.8101  10.8200  10.8347  10.8513  10.8815
    10.8931  10.8975  10.9041  10.9392  10.9472  10.9893  10.9905  11.0022
    11.0036  11.0199  11.0242  11.0365  11.0629  11.0769  11.0904  11.1092
    11.1291  11.1503  11.1692  11.2382  11.2513  11.2579  11.2755  11.2778
    11.2788  11.3024  11.3043  11.3432  11.3556  11.3578  11.3643  11.3750
    11.4128  11.4331  11.4456  11.4532

          k = 0.0000 0.0000 0.0015 (112527 PWs)   bands (ev):

   -21.7812 -21.2135 -21.1582 -21.0882 -20.5810 -20.5332 -20.1662 -19.6411
   -19.6036 -19.3231 -19.2115 -18.9563 -18.7213 -18.6474 -18.3035 -18.2753
   -17.8666 -17.6735 -17.3949 -17.0259 -16.9057 -16.7257 -16.6220 -16.2987
   -16.2682 -15.6982 -15.5278 -15.0263 -14.9937 -14.9287 -14.7217 -14.6280
   -14.4195 -14.2903 -13.5570 -13.4441 -13.2033 -12.9511 -12.7121 -12.4413
   -12.2947 -12.2236 -12.0362 -11.9057 -11.7302 -11.5492 -11.4701 -11.3201
   -11.2291 -10.9646 -10.7599 -10.6584 -10.5559 -10.4888  -9.8664  -9.8519
    -9.8019  -9.6948  -9.5681  -9.5463  -9.3945  -9.2833  -9.2431  -9.1960
    -9.1147  -9.0386  -9.0264  -8.8857  -8.7674  -8.7022  -8.6273  -8.5793
    -8.4701  -8.4617  -8.4370  -8.4108  -8.3033  -8.1238  -8.1088  -8.0331
    -7.9883  -7.7071  -7.6551  -7.4164  -7.3703  -7.3483  -7.2569  -6.9948
    -6.9929  -6.8799  -6.8571  -6.8139  -6.7229  -6.6951  -6.3482  -6.2487
    -6.0085  -5.9847  -5.8831  -5.8301  -5.5090  -5.3213  -5.2226  -4.8237
    -4.6423  -4.5682  -4.4587  -3.9593  -3.8747  -2.7054  -2.3521  -1.1747
    -1.1226  -0.8003  -0.6951  -0.5505  -0.5022  -0.2118   0.2423   0.4100
     0.5724   0.6212   0.8889   0.9401   1.0355   1.2209   1.3363   1.3421
     1.3949   1.3982   1.4450   1.4731   1.5765   1.7172   1.7420   1.7832
     1.7934   2.0566   2.0761   2.1240   2.1350   2.1795   2.2324   2.3160
     2.3341   2.3406   2.4807   2.5300   2.5436   2.5808   2.6442   2.6906
     2.6917   2.7939   2.9189   2.9232   2.9625   2.9752   3.0378   3.0905
     3.0955   3.1313   3.1989   3.2149   3.2760   3.3587   3.3709   3.3756
     3.4078   3.4383   3.4770   3.4885   3.5112   3.5440   3.6105   3.6218
     3.6388   3.6570   3.6882   3.7202   3.7647   3.7728   3.8230   3.8909
     4.0312   4.0893   4.1140   4.1456   4.1900   4.2083   4.2187   4.2824
     4.3080   4.3109   4.4011   4.4375   4.4566   4.5007   4.5316   4.5793
     4.6067   4.6259   4.6823   4.7131   4.7238   4.7496   4.7618   4.8132
     4.8401   4.8533   4.9105   4.9207   4.9460   4.9610   4.9653   4.9960
     5.0432   5.1095   5.2088   5.2596   5.2757   5.3278   5.3477   5.3720
     5.4230   5.4456   5.4724   5.5203   5.5220   5.5574   5.5705   5.5779
     5.6320   5.6808   5.6982   5.7169   5.7378   5.7649   5.7831   5.7925
     5.8311   5.8455   5.8734   5.9295   5.9308   5.9524   5.9726   6.0225
     6.0291   6.0513   6.0617   6.0895   6.1165   6.1297   6.1684   6.1868
     6.2020   6.2101   6.2378   6.3170   6.3281   6.3347   6.3589   6.3799
     6.3884   6.4243   6.4540   6.4678   6.4972   6.5193   6.5313   6.6331
     6.6340   6.6373   6.6442   6.6469   6.6637   6.7558   6.7594   6.8000
     6.8228   6.8742   6.9051   6.9203   6.9472   6.9742   6.9920   6.9954
     7.0134   7.0200   7.0378   7.0517   7.1039   7.1316   7.1484   7.1631
     7.1704   7.2049   7.2162   7.2777   7.2989   7.3045   7.3206   7.3296
     7.3641   7.3850   7.4169   7.4490   7.5163   7.5211   7.5841   7.5876
     7.6041   7.6312   7.6634   7.6831   7.7009   7.7021   7.7438   7.7937
     7.7981   7.8445   7.9066   7.9196   7.9475   7.9825   7.9841   8.0104
     8.0445   8.0604   8.0644   8.0898   8.0999   8.1318   8.1397   8.1544
     8.1611   8.1691   8.2197   8.2489   8.2655   8.2763   8.3105   8.3125
     8.3436   8.3504   8.3688   8.3763   8.4027   8.4656   8.4833   8.4974
     8.5104   8.5234   8.5720   8.5956   8.6082   8.6288   8.6483   8.6526
     8.6856   8.7232   8.7492   8.8037   8.8146   8.8272   8.8476   8.8636
     8.8863   8.9165   8.9605   8.9826   9.0023   9.0208   9.0447   9.0655
     9.1085   9.1290   9.1339   9.1650   9.1721   9.2156   9.2254   9.2285
     9.2691   9.2935   9.3379   9.3508   9.3555   9.3903   9.4087   9.4117
     9.4445   9.4499   9.4578   9.4832   9.5036   9.5212   9.5636   9.5797
     9.6415   9.6672   9.6788   9.7111   9.7339   9.7574   9.7754   9.7840
     9.7999   9.8506   9.8828   9.8956   9.9164   9.9362   9.9536   9.9870
     9.9985  10.0084  10.0190  10.0319  10.0683  10.0718  10.1134  10.1403
    10.1587  10.1750  10.1990  10.2130  10.2275  10.2351  10.2653  10.2879
    10.3148  10.3232  10.3713  10.4064  10.4248  10.4379  10.4499  10.4837
    10.4859  10.5206  10.5359  10.5664  10.5830  10.6289  10.6326  10.6457
    10.6519  10.6802  10.6968  10.7028  10.7167  10.7534  10.7661  10.7789
    10.7898  10.8047  10.8058  10.8230  10.8269  10.8480  10.8517  10.8744
    10.8835  10.8884  10.9189  10.9266  10.9433  10.9659  10.9863  10.9916
    11.0191  11.0226  11.0349  11.0351  11.0723  11.0787  11.0986  11.1261
    11.1379  11.1651  11.1651  11.2124  11.2308  11.2519  11.2552  11.2834
    11.2861  11.3103  11.3180  11.3257  11.3424  11.3600  11.3692  11.4004
    11.4174  11.4363  11.4400  11.4702

          k = 0.0000 0.0000 0.0031 (112495 PWs)   bands (ev):

   -21.7804 -21.2238 -21.1616 -21.0724 -20.6011 -20.5127 -20.1648 -19.6596
   -19.5868 -19.3627 -19.1681 -18.9605 -18.7496 -18.6207 -18.3089 -18.2621
   -17.8829 -17.6581 -17.3935 -17.0294 -16.9042 -16.7340 -16.6323 -16.3065
   -16.2585 -15.7095 -15.4985 -15.0449 -15.0043 -14.9199 -14.6976 -14.6275
   -14.4373 -14.2721 -13.5702 -13.4382 -13.2006 -12.9512 -12.7237 -12.4634
   -12.3056 -12.1928 -12.0203 -11.9493 -11.7015 -11.5880 -11.4401 -11.3046
   -11.2185 -10.9722 -10.7593 -10.6697 -10.5561 -10.4647  -9.8831  -9.8510
    -9.7964  -9.7278  -9.5750  -9.5127  -9.3843  -9.2826  -9.2370  -9.2033
    -9.1270  -9.0394  -9.0164  -8.8804  -8.7688  -8.7045  -8.6341  -8.5799
    -8.4867  -8.4807  -8.4335  -8.3855  -8.3044  -8.1400  -8.1138  -8.0312
    -7.9600  -7.7216  -7.6332  -7.4391  -7.3749  -7.3473  -7.2310  -7.0437
    -7.0063  -6.8711  -6.8273  -6.7920  -6.7238  -6.6925  -6.3854  -6.2218
    -6.0102  -5.9699  -5.8853  -5.8317  -5.5197  -5.3344  -5.1978  -4.8261
    -4.6463  -4.5792  -4.4487  -3.9716  -3.8671  -2.7142  -2.3426  -1.1899
    -1.1052  -0.7956  -0.6920  -0.5571  -0.4917  -0.2145   0.2175   0.4363
     0.5734   0.6221   0.8899   0.9157   1.0586   1.2209   1.3089   1.3231
     1.3721   1.3906   1.4709   1.5012   1.5786   1.6848   1.7647   1.7920
     1.8207   2.0300   2.0693   2.1250   2.1674   2.1734   2.2111   2.2668
     2.3259   2.3582   2.5284   2.5393   2.5541   2.5613   2.6611   2.6850
     2.7029   2.7920   2.8902   2.9134   2.9576   2.9963   3.0168   3.0825
     3.1220   3.1431   3.2074   3.2285   3.2829   3.3394   3.3514   3.3593
     3.4007   3.4630   3.4729   3.4912   3.5124   3.5457   3.6073   3.6242
     3.6276   3.6351   3.7066   3.7473   3.7671   3.7930   3.8062   3.9257
     4.0222   4.0875   4.1123   4.1233   4.1460   4.1844   4.2341   4.2786
     4.3155   4.3523   4.4059   4.4300   4.4490   4.5297   4.5567   4.5577
     4.5898   4.5947   4.6709   4.6819   4.7285   4.7422   4.7923   4.8179
     4.8387   4.8566   4.8974   4.9188   4.9605   4.9782   4.9908   5.0008
     5.0451   5.1452   5.1965   5.2535   5.2806   5.3248   5.3435   5.3605
     5.3671   5.4411   5.4817   5.5063   5.5457   5.5556   5.5649   5.5896
     5.6337   5.6624   5.6937   5.7025   5.7328   5.7913   5.7932   5.8261
     5.8273   5.8497   5.8774   5.8798   5.9180   5.9456   5.9650   6.0162
     6.0329   6.0551   6.0681   6.1096   6.1190   6.1241   6.1502   6.1723
     6.2098   6.2173   6.2765   6.3028   6.3147   6.3322   6.3458   6.3802
     6.4026   6.4339   6.4548   6.4699   6.5000   6.5411   6.5714   6.6250
     6.6345   6.6436   6.6513   6.6554   6.6732   6.7254   6.7527   6.7748
     6.8358   6.8383   6.8889   6.9256   6.9327   6.9585   6.9888   6.9974
     7.0061   7.0282   7.0385   7.0517   7.1087   7.1462   7.1491   7.1663
     7.2019   7.2110   7.2310   7.2995   7.3032   7.3170   7.3317   7.3384
     7.3523   7.3831   7.4406   7.4468   7.5043   7.5139   7.5598   7.5934
     7.6049   7.6231   7.6682   7.6782   7.6923   7.7077   7.7703   7.8085
     7.8166   7.8267   7.9191   7.9214   7.9484   7.9558   7.9790   7.9972
     8.0179   8.0461   8.0622   8.0801   8.1110   8.1158   8.1435   8.1655
     8.1706   8.1844   8.2128   8.2492   8.2608   8.2749   8.2770   8.3090
     8.3264   8.3560   8.3574   8.3875   8.4461   8.4708   8.4871   8.4977
     8.5022   8.5265   8.5708   8.5894   8.5971   8.6287   8.6382   8.6773
     8.6998   8.7429   8.7544   8.7854   8.8297   8.8420   8.8647   8.8667
     8.8845   8.8934   8.9335   8.9406   9.0002   9.0236   9.0319   9.0716
     9.0894   9.1348   9.1469   9.1522   9.1808   9.2114   9.2262   9.2362
     9.2777   9.3172   9.3216   9.3468   9.3576   9.3682   9.4098   9.4102
     9.4227   9.4304   9.4750   9.4828   9.5139   9.5384   9.5965   9.6120
     9.6370   9.6516   9.6737   9.7093   9.7398   9.7593   9.7888   9.7985
     9.8129   9.8511   9.8601   9.8782   9.8894   9.9046   9.9377   9.9687
     9.9956  10.0110  10.0149  10.0227  10.0915  10.1007  10.1274  10.1332
    10.1473  10.1762  10.1829  10.2106  10.2193  10.2744  10.2779  10.2806
    10.3222  10.3523  10.3602  10.3751  10.3784  10.3935  10.4458  10.4723
    10.4961  10.5150  10.5453  10.5829  10.5838  10.5907  10.6144  10.6458
    10.6612  10.6678  10.6919  10.6999  10.7209  10.7367  10.7675  10.7791
    10.8176  10.8179  10.8311  10.8327  10.8446  10.8474  10.8521  10.8610
    10.9038  10.9042  10.9087  10.9152  10.9376  10.9415  10.9810  10.9861
    11.0162  11.0343  11.0578  11.0664  11.0739  11.0906  11.0925  11.1190
    11.1490  11.1577  11.1895  11.2074  11.2212  11.2332  11.2534  11.2712
    11.2990  11.3058  11.3138  11.3330  11.3429  11.3769  11.3814  11.3869
    11.3943  11.4391  11.4953  11.4998

          k = 0.0000 0.0000 0.0046 (112455 PWs)   bands (ev):

   -21.7792 -21.2391 -21.1634 -21.0517 -20.6215 -20.4914 -20.1625 -19.6783
   -19.5725 -19.4018 -19.1214 -18.9682 -18.7771 -18.5959 -18.3105 -18.2466
   -17.9055 -17.6370 -17.3910 -17.0348 -16.9021 -16.7495 -16.6458 -16.3140
   -16.2505 -15.7189 -15.4590 -15.0700 -15.0204 -14.9060 -14.6646 -14.6268
   -14.4592 -14.2490 -13.5885 -13.4325 -13.1954 -12.9514 -12.7458 -12.4849
   -12.3200 -12.1580 -12.0117 -11.9845 -11.6821 -11.6203 -11.4128 -11.2806
   -11.2011 -10.9826 -10.7622 -10.6803 -10.5530 -10.4335  -9.9057  -9.8495
    -9.7929  -9.7649  -9.5853  -9.4737  -9.3692  -9.2801  -9.2283  -9.2164
    -9.1365  -9.0576  -8.9897  -8.8765  -8.7696  -8.7080  -8.6448  -8.5814
    -8.5114  -8.4969  -8.4290  -8.3603  -8.3081  -8.1601  -8.1137  -8.0279
    -7.9268  -7.7343  -7.6082  -7.4616  -7.4047  -7.3249  -7.2026  -7.0943
    -7.0235  -6.8816  -6.7732  -6.7715  -6.7255  -6.6867  -6.4259  -6.2009
    -6.0038  -5.9520  -5.8890  -5.8342  -5.5368  -5.3468  -5.1666  -4.8304
    -4.6525  -4.5949  -4.4350  -3.9891  -3.8575  -2.7283  -2.3276  -1.2058
    -1.0854  -0.7883  -0.6867  -0.5639  -0.4783  -0.2191   0.1867   0.4694
     0.5751   0.6238   0.8876   0.8916   1.0837   1.2204   1.2710   1.2992
     1.3449   1.3898   1.4999   1.5317   1.5801   1.6530   1.7950   1.7975
     1.8557   1.9994   2.0642   2.1197   2.1506   2.1857   2.2039   2.2247
     2.3300   2.3867   2.5224   2.5313   2.5542   2.6131   2.6708   2.6825
     2.7247   2.7885   2.8615   2.9003   2.9466   3.0029   3.0036   3.0834
     3.1452   3.1658   3.2158   3.2465   3.2920   3.3113   3.3254   3.3585
     3.3862   3.4405   3.4812   3.5073   3.5314   3.5491   3.5828   3.5991
     3.6233   3.6610   3.7384   3.7517   3.7620   3.7950   3.8410   3.9610
     4.0058   4.0849   4.0887   4.1043   4.1147   4.1589   4.2433   4.2724
     4.3480   4.3729   4.3961   4.4018   4.4863   4.5071   4.5572   4.5578
     4.5949   4.6076   4.6213   4.6749   4.7095   4.7558   4.7777   4.8108
     4.8408   4.8766   4.9117   4.9189   4.9595   4.9886   5.0059   5.0434
     5.0704   5.1727   5.1810   5.2505   5.2758   5.3109   5.3162   5.3390
     5.3742   5.4231   5.4710   5.4966   5.5085   5.5488   5.5948   5.6165
     5.6302   5.6467   5.6831   5.7298   5.7331   5.7828   5.7903   5.8137
     5.8279   5.8372   5.8866   5.8985   5.9056   5.9434   5.9567   6.0057
     6.0312   6.0553   6.0766   6.0828   6.1125   6.1168   6.1642   6.1987
     6.2130   6.2472   6.2574   6.2801   6.2877   6.3310   6.3612   6.3914
     6.4306   6.4550   6.4585   6.4854   6.5065   6.5531   6.6018   6.6037
     6.6357   6.6479   6.6599   6.6780   6.6840   6.6986   6.7238   6.7995
     6.8032   6.8565   6.8576   6.8782   6.9182   6.9194   6.9667   7.0069
     7.0133   7.0134   7.0752   7.0921   7.0981   7.1324   7.1701   7.1755
     7.2141   7.2456   7.2723   7.2980   7.3055   7.3185   7.3285   7.3651
     7.3805   7.3865   7.4401   7.4566   7.4891   7.4971   7.5620   7.5812
     7.6125   7.6156   7.6627   7.6847   7.6905   7.7177   7.7730   7.8091
     7.8385   7.8433   7.9038   7.9223   7.9225   7.9678   7.9698   7.9854
     7.9990   8.0256   8.0548   8.0674   8.0985   8.1163   8.1489   8.1693
     8.1737   8.1892   8.2055   8.2246   8.2300   8.2609   8.3023   8.3179
     8.3350   8.3392   8.3720   8.3925   8.4673   8.4771   8.4978   8.4988
     8.5040   8.5304   8.5502   8.5860   8.5930   8.6089   8.6472   8.7107
     8.7132   8.7418   8.7679   8.7819   8.8071   8.8525   8.8727   8.8764
     8.8835   8.8851   8.9246   8.9406   8.9858   8.9993   9.0001   9.0921
     9.1107   9.1151   9.1351   9.1535   9.1670   9.1950   9.2367   9.2367
     9.2825   9.3012   9.3199   9.3243   9.3784   9.3788   9.3912   9.4201
     9.4208   9.4305   9.4730   9.5029   9.5245   9.5401   9.6024   9.6282
     9.6370   9.6772   9.6832   9.7245   9.7366   9.7497   9.7787   9.8122
     9.8143   9.8240   9.8362   9.8540   9.9031   9.9059   9.9097   9.9468
     9.9999  10.0088  10.0213  10.0318  10.0561  10.1097  10.1183  10.1267
    10.1541  10.1743  10.2071  10.2127  10.2245  10.2446  10.2681  10.2838
    10.3082  10.3417  10.3504  10.3679  10.3982  10.4041  10.4223  10.4666
    10.4945  10.5191  10.5395  10.5468  10.5493  10.5922  10.6149  10.6192
    10.6480  10.6677  10.6913  10.7037  10.7171  10.7581  10.7628  10.7743
    10.7829  10.8125  10.8280  10.8497  10.8572  10.8624  10.8662  10.8698
    10.8962  10.9046  10.9088  10.9445  10.9630  10.9649  10.9762  10.9828
    11.0129  11.0441  11.0494  11.0653  11.0816  11.0995  11.1075  11.1258
    11.1325  11.1659  11.2029  11.2282  11.2333  11.2348  11.2566  11.2666
    11.2871  11.2985  11.3271  11.3380  11.3456  11.3729  11.3805  11.4017
    11.4182  11.4399  11.4825  11.5077

          k = 0.0000 0.0000 0.0061 (112409 PWs)   bands (ev):

   -21.7775 -21.2572 -21.1637 -21.0284 -20.6419 -20.4700 -20.1591 -19.6967
   -19.5643 -19.4348 -19.0736 -18.9799 -18.8011 -18.5759 -18.3068 -18.2296
   -17.9312 -17.6136 -17.3874 -17.0418 -16.8997 -16.7738 -16.6586 -16.3229
   -16.2448 -15.7220 -15.4137 -15.0991 -15.0373 -14.8895 -14.6313 -14.6230
   -14.4802 -14.2242 -13.6095 -13.4298 -13.1869 -12.9517 -12.7799 -12.4989
   -12.3364 -12.1273 -12.0618 -11.9534 -11.6972 -11.6259 -11.3843 -11.2535
   -11.1771 -10.9930 -10.7721 -10.6845 -10.5470 -10.3987  -9.9325  -9.8474
    -9.8052  -9.7894  -9.5969  -9.4352  -9.3503  -9.2743  -9.2344  -9.2182
    -9.1415  -9.0782  -8.9608  -8.8781  -8.7684  -8.7123  -8.6588  -8.5838
    -8.5359  -8.5173  -8.4259  -8.3354  -8.3147  -8.1745  -8.1127  -8.0232
    -7.8933  -7.7433  -7.5818  -7.4837  -7.4354  -7.3043  -7.1756  -7.1428
    -7.0430  -6.8893  -6.7560  -6.7284  -6.7185  -6.6750  -6.4665  -6.1898
    -5.9883  -5.9311  -5.8941  -5.8377  -5.5591  -5.3562  -5.1325  -4.8365
    -4.6604  -4.6138  -4.4194  -4.0102  -3.8473  -2.7467  -2.3078  -1.2215
    -1.0646  -0.7796  -0.6785  -0.5692  -0.4633  -0.2253   0.1542   0.5048
     0.5774   0.6261   0.8588   0.8940   1.1048   1.2184   1.2309   1.2748
     1.3185   1.3907   1.5300   1.5632   1.5804   1.6223   1.7989   1.8355
     1.8916   1.9689   2.0563   2.0698   2.1420   2.1680   2.2164   2.2357
     2.3334   2.4183   2.5002   2.5339   2.5546   2.6325   2.6761   2.7095
     2.7523   2.7845   2.8334   2.8860   2.9316   2.9928   2.9975   3.0993
     3.1655   3.1968   3.2220   3.2556   3.2909   3.2981   3.3072   3.3505
     3.3722   3.4197   3.4760   3.5224   3.5359   3.5593   3.5724   3.5841
     3.6276   3.6929   3.7225   3.7653   3.7726   3.8237   3.8709   3.9831
     3.9965   4.0412   4.0813   4.0817   4.1147   4.1383   4.2246   4.3013
     4.3402   4.3736   4.3879   4.4246   4.4366   4.5358   4.5374   4.5605
     4.5893   4.6197   4.6400   4.6674   4.6760   4.7561   4.7694   4.8193
     4.8237   4.8650   4.9198   4.9461   4.9724   5.0087   5.0299   5.0851
     5.0947   5.1709   5.1882   5.2547   5.2562   5.2583   5.3108   5.3480
     5.3931   5.4061   5.4281   5.4706   5.4931   5.5480   5.5901   5.6193
     5.6356   5.6832   5.6834   5.7242   5.7258   5.7586   5.7701   5.8041
     5.8312   5.8546   5.8653   5.8893   5.9395   5.9444   5.9645   5.9959
     6.0091   6.0516   6.0733   6.0965   6.1165   6.1224   6.1527   6.1881
     6.2143   6.2267   6.2627   6.2704   6.3173   6.3421   6.3740   6.4049
     6.4328   6.4672   6.4674   6.5213   6.5397   6.5608   6.5746   6.6067
     6.6136   6.6328   6.6698   6.6846   6.7006   6.7231   6.7335   6.7800
     6.8121   6.8234   6.8302   6.8713   6.8861   6.9127   6.9472   6.9744
     7.0027   7.0142   7.1065   7.1085   7.1232   7.1499   7.1702   7.2082
     7.2195   7.2706   7.2709   7.2930   7.3242   7.3369   7.3571   7.3769
     7.3888   7.4164   7.4264   7.4427   7.4782   7.5165   7.5554   7.5893
     7.6083   7.6142   7.6527   7.7003   7.7015   7.7274   7.7508   7.8155
     7.8363   7.8483   7.8996   7.9079   7.9329   7.9365   7.9606   7.9835
     7.9888   8.0292   8.0493   8.0542   8.0922   8.0968   8.1205   8.1528
     8.1633   8.2005   8.2069   8.2173   8.2195   8.2704   8.3145   8.3266
     8.3394   8.3500   8.3850   8.3907   8.4402   8.4731   8.4974   8.4988
     8.5271   8.5334   8.5558   8.5904   8.5997   8.6115   8.6524   8.7126
     8.7173   8.7197   8.7527   8.7869   8.8114   8.8358   8.8581   8.8789
     8.8971   8.9210   8.9221   8.9661   8.9764   8.9833   8.9881   9.0464
     9.1048   9.1198   9.1531   9.1641   9.1752   9.1757   9.2034   9.2268
     9.2662   9.3000   9.3103   9.3403   9.3434   9.3496   9.4008   9.4140
     9.4408   9.4708   9.4890   9.5309   9.5342   9.5529   9.5817   9.6238
     9.6440   9.6831   9.7033   9.7083   9.7321   9.7562   9.7674   9.7954
     9.8082   9.8134   9.8294   9.8648   9.8768   9.9198   9.9224   9.9609
     9.9937   9.9950  10.0070  10.0254  10.0309  10.1036  10.1080  10.1281
    10.1477  10.1701  10.1969  10.2009  10.2095  10.2401  10.2609  10.2897
    10.2910  10.3386  10.3506  10.3664  10.4008  10.4243  10.4541  10.4661
    10.4780  10.4994  10.4996  10.5235  10.5612  10.5754  10.5918  10.6092
    10.6304  10.6663  10.6768  10.7034  10.7080  10.7465  10.7564  10.7633
    10.7838  10.8188  10.8215  10.8510  10.8554  10.8679  10.8737  10.8796
    10.8914  10.9273  10.9304  10.9371  10.9435  10.9582  10.9797  11.0318
    11.0340  11.0449  11.0681  11.0758  11.0825  11.1102  11.1368  11.1415
    11.1624  11.1745  11.1906  11.2122  11.2404  11.2514  11.2668  11.2692
    11.2819  11.2912  11.3348  11.3366  11.3651  11.3777  11.3904  11.4228
    11.4446  11.4497  11.4540  11.5114

          k = 0.0000 0.0000 0.0077 (112391 PWs)   bands (ev):

   -21.7753 -21.2766 -21.1628 -21.0036 -20.6619 -20.4486 -20.1547 -19.7150
   -19.5696 -19.4541 -19.0282 -18.9937 -18.8203 -18.5622 -18.2971 -18.2111
   -17.9580 -17.5898 -17.3824 -17.0499 -16.8974 -16.8069 -16.6685 -16.3363
   -16.2401 -15.7178 -15.3650 -15.1292 -15.0534 -14.8717 -14.6278 -14.5942
   -14.4933 -14.1994 -13.6316 -13.4313 -13.1748 -12.9524 -12.8244 -12.5047
   -12.3535 -12.1326 -12.0870 -11.9103 -11.7337 -11.6184 -11.3525 -11.2288
   -11.1469 -10.9996 -10.7882 -10.6820 -10.5384 -10.3625  -9.9624  -9.8448
    -9.8399  -9.7936  -9.6088  -9.4009  -9.3277  -9.2643  -9.2555  -9.2081
    -9.1432  -9.0984  -8.9305  -8.8875  -8.7652  -8.7168  -8.6758  -8.5875
    -8.5600  -8.5401  -8.4277  -8.3211  -8.3108  -8.1818  -8.1116  -8.0169
    -7.8627  -7.7467  -7.5559  -7.5053  -7.4649  -7.2895  -7.1852  -7.1552
    -7.0585  -6.8952  -6.7474  -6.7333  -6.6634  -6.6563  -6.5055  -6.1880
    -5.9667  -5.9057  -5.9008  -5.8421  -5.5848  -5.3628  -5.0968  -4.8446
    -4.6696  -4.6350  -4.4030  -4.0340  -3.8371  -2.7687  -2.2840  -1.2365
    -1.0429  -0.7710  -0.6670  -0.5718  -0.4475  -0.2333   0.1221   0.5399
     0.5804   0.6291   0.8305   0.8971   1.1083   1.2046   1.2120   1.2527
     1.2944   1.3926   1.5595   1.5795   1.5917   1.5973   1.8039   1.8744
     1.9270   1.9402   1.9978   2.0442   2.1469   2.1539   2.2212   2.2669
     2.3385   2.4465   2.4835   2.5369   2.5570   2.6195   2.6801   2.7417
     2.7802   2.7917   2.8078   2.8694   2.9232   2.9728   2.9982   3.1217
     3.1837   3.2247   3.2305   3.2428   3.2699   3.2997   3.3147   3.3278
     3.3694   3.4101   3.4747   3.4921   3.5401   3.5545   3.5885   3.6062
     3.6385   3.6922   3.7275   3.7683   3.8058   3.8547   3.8835   3.9594
     4.0067   4.0312   4.0565   4.0795   4.1021   4.1345   4.2116   4.3060
     4.3379   4.3456   4.3683   4.4232   4.4608   4.5029   4.5122   4.5634
     4.6167   4.6279   4.6429   4.6670   4.6897   4.7391   4.7775   4.7961
     4.8436   4.8495   4.9214   4.9396   5.0088   5.0374   5.0632   5.0998
     5.1179   5.1813   5.1956   5.2100   5.2361   5.2665   5.3064   5.3531
     5.3797   5.3948   5.4225   5.4358   5.4757   5.5593   5.5624   5.6128
     5.6573   5.6643   5.6837   5.7070   5.7213   5.7478   5.7974   5.7999
     5.8137   5.8332   5.8637   5.8982   5.9453   5.9468   5.9712   5.9760
     6.0204   6.0533   6.0895   6.1033   6.1092   6.1401   6.1427   6.1560
     6.1899   6.2150   6.2518   6.3360   6.3375   6.3553   6.3733   6.4165
     6.4456   6.4601   6.4848   6.5187   6.5523   6.5777   6.5853   6.5894
     6.6169   6.6197   6.6824   6.6879   6.7056   6.7278   6.7557   6.7712
     6.7874   6.7905   6.8379   6.8734   6.8812   6.9140   6.9332   6.9409
     6.9942   7.0124   7.1029   7.1232   7.1362   7.1625   7.2122   7.2373
     7.2415   7.2463   7.2839   7.2939   7.3295   7.3438   7.3916   7.4014
     7.4096   7.4189   7.4243   7.4264   7.4930   7.5245   7.5620   7.6007
     7.6055   7.6218   7.6548   7.7059   7.7144   7.7193   7.7567   7.7844
     7.8218   7.8496   7.8814   7.8970   7.9156   7.9448   7.9478   7.9760
     7.9922   8.0081   8.0465   8.0470   8.0754   8.1004   8.1057   8.1474
     8.1502   8.1928   8.2004   8.2250   8.2379   8.2758   8.2840   8.3392
     8.3474   8.3783   8.3882   8.4072   8.4081   8.4535   8.4933   8.4951
     8.5251   8.5394   8.5735   8.6006   8.6161   8.6316   8.6554   8.6890
     8.7072   8.7179   8.7419   8.7717   8.8222   8.8317   8.8331   8.8892
     8.9010   8.9240   8.9541   8.9630   8.9642   8.9779   8.9926   9.0590
     9.0796   9.1249   9.1546   9.1551   9.1734   9.1834   9.1892   9.1964
     9.2707   9.2875   9.2985   9.3143   9.3341   9.3439   9.3703   9.4328
     9.4729   9.4818   9.5202   9.5280   9.5474   9.5616   9.5962   9.6233
     9.6411   9.6623   9.6665   9.7024   9.7257   9.7551   9.7582   9.7945
     9.8093   9.8239   9.8474   9.8686   9.8734   9.9291   9.9387   9.9567
     9.9602   9.9863  10.0042  10.0082  10.0278  10.0447  10.1195  10.1307
    10.1560  10.1679  10.1792  10.1929  10.2056  10.2105  10.2250  10.3124
    10.3142  10.3291  10.3607  10.3675  10.4022  10.4068  10.4415  10.4612
    10.4632  10.4854  10.5159  10.5197  10.5259  10.5707  10.6018  10.6062
    10.6114  10.6276  10.6676  10.6826  10.7294  10.7325  10.7445  10.7563
    10.7635  10.8043  10.8289  10.8480  10.8548  10.8566  10.8814  10.8841
    10.8988  10.9161  10.9195  10.9372  10.9615  10.9664  11.0103  11.0401
    11.0509  11.0620  11.0951  11.1017  11.1085  11.1258  11.1469  11.1607
    11.1762  11.1924  11.1974  11.2296  11.2382  11.2469  11.2699  11.2754
    11.2802  11.2898  11.3440  11.3481  11.3694  11.3774  11.4181  11.4304
    11.4384  11.4787  11.4825  11.5147

          k = 0.0000 0.0000 0.0092 (112387 PWs)   bands (ev):

   -21.7726 -21.2965 -21.1611 -20.9778 -20.6816 -20.4275 -20.1492 -19.7330
   -19.5925 -19.4556 -19.0252 -18.9695 -18.8343 -18.5551 -18.2821 -18.1909
   -17.9846 -17.5671 -17.3759 -17.0586 -16.8957 -16.8468 -16.6753 -16.3571
   -16.2340 -15.7076 -15.3147 -15.1573 -15.0682 -14.8534 -14.6306 -14.5787
   -14.4843 -14.1755 -13.6539 -13.4375 -13.1593 -12.9551 -12.8749 -12.5055
   -12.3698 -12.1874 -12.0683 -11.8634 -11.7721 -11.6131 -11.3197 -11.2084
   -11.1141 -10.9972 -10.8069 -10.6755 -10.5279 -10.3264  -9.9945  -9.8728
    -9.8415  -9.8004  -9.6206  -9.3737  -9.3020  -9.2782  -9.2491  -9.2006
    -9.1428  -9.1144  -8.9044  -8.8992  -8.7631  -8.7207  -8.6946  -8.5926
    -8.5836  -8.5636  -8.4374  -8.3221  -8.2869  -8.1840  -8.1101  -8.0090
    -7.8386  -7.7415  -7.5377  -7.5265  -7.4864  -7.2941  -7.2076  -7.1521
    -7.0584  -6.9000  -6.7442  -6.7412  -6.6322  -6.6080  -6.5413  -6.1927
    -5.9442  -5.9089  -5.8743  -5.8476  -5.6123  -5.3670  -5.0603  -4.8547
    -4.6808  -4.6570  -4.3863  -4.0603  -3.8270  -2.7937  -2.2570  -1.2508
    -1.0204  -0.7640  -0.6522  -0.5704  -0.4313  -0.2426   0.0913   0.5723
     0.5841   0.6327   0.8045   0.9008   1.0783   1.1974   1.2098   1.2345
     1.2758   1.3952   1.5595   1.5777   1.5947   1.6286   1.8103   1.9012
     1.9093   1.9327   1.9660   2.0274   2.1453   2.1542   2.2326   2.2916
     2.3492   2.4464   2.4981   2.5404   2.5606   2.5986   2.6837   2.7384
     2.7759   2.8156   2.8178   2.8484   2.9346   2.9501   3.0041   3.1418
     3.1862   3.2221   3.2374   3.2505   3.2692   3.2825   3.2999   3.3406
     3.3702   3.4155   3.4487   3.4911   3.5210   3.5568   3.6202   3.6242
     3.6628   3.6634   3.7633   3.7715   3.8333   3.8624   3.8848   3.9404
     4.0019   4.0301   4.0582   4.0778   4.0857   4.1436   4.2070   4.2764
     4.3086   4.3181   4.3691   4.4335   4.4648   4.4889   4.4961   4.5705
     4.5780   4.6220   4.6773   4.6918   4.7169   4.7452   4.7753   4.7850
     4.8226   4.8802   4.9239   4.9333   4.9958   5.0834   5.0941   5.1103
     5.1176   5.1717   5.2026   5.2105   5.2352   5.2743   5.2966   5.3300
     5.3580   5.3961   5.4035   5.4478   5.4697   5.5285   5.5782   5.5983
     5.6027   5.6569   5.6634   5.7072   5.7489   5.7510   5.7783   5.8025
     5.8192   5.8228   5.8592   5.8753   5.9459   5.9621   5.9745   5.9976
     6.0190   6.0535   6.0687   6.0902   6.1059   6.1471   6.1486   6.1779
     6.1889   6.2222   6.2421   6.3239   6.3595   6.3815   6.4026   6.4288
     6.4460   6.4486   6.4776   6.5085   6.5425   6.5923   6.5977   6.6038
     6.6061   6.6700   6.6759   6.6909   6.6911   6.7188   6.7204   6.7769
     6.7897   6.7980   6.8370   6.8661   6.9076   6.9175   6.9220   6.9485
     6.9847   7.0091   7.0972   7.1310   7.1429   7.1553   7.2243   7.2476
     7.2676   7.2706   7.2982   7.3090   7.3166   7.3473   7.3770   7.3944
     7.4267   7.4350   7.4457   7.4748   7.4937   7.5217   7.5901   7.5953
     7.6173   7.6438   7.6694   7.6820   7.7086   7.7286   7.7627   7.7788
     7.7937   7.8388   7.8556   7.8689   7.9059   7.9080   7.9447   7.9587
     7.9858   8.0157   8.0459   8.0497   8.1014   8.1043   8.1112   8.1345
     8.1372   8.1878   8.1945   8.2275   8.2427   8.2566   8.2742   8.3457
     8.3522   8.3639   8.4042   8.4058   8.4255   8.4406   8.4894   8.5003
     8.5174   8.5439   8.5623   8.5833   8.6243   8.6694   8.6745   8.6793
     8.7125   8.7135   8.7372   8.7605   8.8067   8.8193   8.8442   8.8801
     8.8936   8.9199   8.9295   8.9631   8.9653   8.9877   9.0254   9.0520
     9.0957   9.1195   9.1305   9.1498   9.1558   9.1658   9.1932   9.2222
     9.2638   9.2674   9.2993   9.3226   9.3291   9.3321   9.3386   9.4283
     9.4851   9.5086   9.5193   9.5197   9.5509   9.5763   9.5771   9.6184
     9.6296   9.6396   9.6674   9.7077   9.7255   9.7415   9.7446   9.8141
     9.8167   9.8232   9.8706   9.8711   9.8755   9.9021   9.9113   9.9208
     9.9738   9.9752   9.9859  10.0266  10.0312  10.0316  10.1073  10.1290
    10.1595  10.1651  10.1790  10.1814  10.1891  10.2148  10.2280  10.2868
    10.3174  10.3389  10.3413  10.3624  10.3796  10.4000  10.4159  10.4541
    10.4575  10.4821  10.5129  10.5184  10.5349  10.5551  10.5794  10.5834
    10.6228  10.6272  10.6696  10.6879  10.7074  10.7148  10.7282  10.7444
    10.7581  10.7693  10.8077  10.8407  10.8495  10.8574  10.8803  10.8887
    10.9144  10.9308  10.9400  10.9583  10.9836  10.9905  11.0190  11.0213
    11.0465  11.0634  11.0904  11.1321  11.1332  11.1466  11.1537  11.1761
    11.1832  11.2156  11.2181  11.2447  11.2512  11.2520  11.2751  11.2919
    11.2965  11.3037  11.3466  11.3699  11.3701  11.3799  11.4204  11.4548
    11.4592  11.4898  11.4953  11.5028

          k = 0.0000 0.0000 0.0108 (112393 PWs)   bands (ev):

   -21.7694 -21.3165 -21.1587 -20.9511 -20.7009 -20.4068 -20.1424 -19.7507
   -19.6265 -19.4456 -19.0505 -18.9207 -18.8435 -18.5538 -18.2644 -18.1685
   -18.0093 -17.5466 -17.3678 -17.0677 -16.9014 -16.8848 -16.6793 -16.3857
   -16.2254 -15.6945 -15.2647 -15.1800 -15.0814 -14.8350 -14.6390 -14.5802
   -14.4507 -14.1532 -13.6757 -13.4478 -13.1410 -12.9692 -12.9187 -12.5058
   -12.3838 -12.2442 -12.0508 -11.8354 -11.7889 -11.6098 -11.2932 -11.1883
   -11.0837 -10.9810 -10.8246 -10.6675 -10.5159 -10.2923 -10.0276  -9.9021
    -9.8377  -9.8100  -9.6323  -9.3539  -9.3014  -9.2775  -9.2285  -9.1978
    -9.1409  -9.1210  -8.9270  -8.8671  -8.7686  -8.7248  -8.7110  -8.6068
    -8.5991  -8.5862  -8.4540  -8.3158  -8.2639  -8.1841  -8.1077  -7.9993
    -7.8243  -7.7249  -7.5488  -7.5472  -7.4785  -7.3270  -7.2016  -7.1685
    -7.0399  -6.9043  -6.7538  -6.7444  -6.6050  -6.5724  -6.5519  -6.2014
    -5.9244  -5.9186  -5.8540  -5.8369  -5.6397  -5.3696  -5.0235  -4.8670
    -4.6981  -4.6751  -4.3700  -4.0886  -3.8170  -2.8211  -2.2273  -1.2646
    -0.9969  -0.7597  -0.6358  -0.5628  -0.4154  -0.2526   0.0627   0.5884
     0.5983   0.6370   0.7834   0.9052   1.0306   1.1758   1.2154   1.2320
     1.2664   1.3980   1.5327   1.5751   1.6235   1.6620   1.8176   1.8383
     1.8821   1.9526   2.0011   2.0094   2.1414   2.1624   2.2502   2.3034
     2.3702   2.4327   2.5303   2.5438   2.5663   2.5750   2.6869   2.7220
     2.7519   2.8194   2.8389   2.8423   2.9291   2.9624   3.0196   3.1490
     3.1665   3.2138   3.2332   3.2567   3.2641   3.2781   3.3085   3.3668
     3.3687   3.4124   3.4341   3.5036   3.5054   3.5616   3.6277   3.6313
     3.6662   3.6957   3.7751   3.7940   3.8147   3.8632   3.9119   3.9224
     4.0023   4.0224   4.0505   4.0658   4.1134   4.1534   4.2113   4.2378
     4.2601   4.2911   4.3792   4.4019   4.4662   4.4958   4.5144   4.5356
     4.5593   4.6278   4.7040   4.7163   4.7188   4.7519   4.7945   4.8039
     4.8074   4.9089   4.9198   4.9307   4.9775   5.0653   5.0917   5.1197
     5.1573   5.1752   5.1905   5.2230   5.2558   5.2729   5.2890   5.3055
     5.3652   5.3732   5.4098   5.4387   5.4968   5.5044   5.5433   5.5635
     5.5905   5.6336   5.6623   5.7088   5.7363   5.7553   5.7596   5.7895
     5.8237   5.8349   5.8575   5.8679   5.9476   5.9765   5.9858   5.9968
     6.0195   6.0258   6.0696   6.0751   6.0967   6.1628   6.1787   6.1996
     6.2049   6.2308   6.2587   6.2991   6.3511   6.3791   6.4063   6.4285
     6.4329   6.4741   6.4903   6.5217   6.5322   6.5848   6.5867   6.6114
     6.6319   6.6467   6.6660   6.6829   6.7160   6.7223   6.7339   6.7581
     6.7880   6.8295   6.8395   6.8601   6.8974   6.9274   6.9621   6.9774
     6.9865   7.0060   7.0877   7.1191   7.1470   7.1633   7.2059   7.2391
     7.2793   7.2860   7.3128   7.3246   7.3430   7.3569   7.3705   7.3918
     7.4250   7.4439   7.4693   7.4875   7.5309   7.5593   7.5772   7.5858
     7.6494   7.6564   7.6683   7.6699   7.7109   7.7258   7.7552   7.7924
     7.7989   7.8055   7.8151   7.8380   7.8736   7.8758   7.9451   7.9710
     7.9742   8.0367   8.0455   8.0553   8.1026   8.1077   8.1199   8.1246
     8.1514   8.1864   8.1909   8.2079   8.2154   8.2604   8.2705   8.3190
     8.3688   8.3776   8.3963   8.4179   8.4274   8.4467   8.4798   8.4925
     8.5216   8.5468   8.5566   8.5778   8.6091   8.6513   8.6932   8.7055
     8.7177   8.7353   8.7433   8.7708   8.7869   8.8003   8.8351   8.8731
     8.8886   8.9211   8.9213   8.9577   8.9661   8.9917   9.0257   9.0367
     9.0737   9.1078   9.1148   9.1273   9.1630   9.1939   9.2159   9.2321
     9.2578   9.2600   9.2931   9.3128   9.3292   9.3389   9.3491   9.4166
     9.4623   9.4809   9.4898   9.5469   9.5633   9.5641   9.5952   9.5990
     9.6065   9.6307   9.6707   9.6807   9.7281   9.7458   9.7599   9.8000
     9.8234   9.8324   9.8341   9.8542   9.8753   9.8761   9.9068   9.9239
     9.9577   9.9742   9.9912  10.0188  10.0443  10.0743  10.0901  10.1281
    10.1458  10.1520  10.1808  10.1811  10.1956  10.2326  10.2476  10.2583
    10.3020  10.3085  10.3143  10.3377  10.3524  10.3947  10.4012  10.4416
    10.4675  10.4922  10.4969  10.5195  10.5219  10.5486  10.5693  10.5929
    10.6114  10.6379  10.6497  10.6713  10.6749  10.7034  10.7213  10.7242
    10.7710  10.7869  10.7938  10.8422  10.8444  10.8619  10.8654  10.8970
    10.9252  10.9267  10.9670  10.9748  10.9864  11.0091  11.0234  11.0326
    11.0454  11.0636  11.0756  11.1149  11.1488  11.1609  11.1685  11.1764
    11.2036  11.2076  11.2246  11.2389  11.2768  11.2926  11.2965  11.3165
    11.3288  11.3434  11.3509  11.3770  11.3814  11.3955  11.4326  11.4538
    11.4788  11.4877  11.4941  11.5141

          k = 0.0000 0.0000 0.0123 (112395 PWs)   bands (ev):

   -21.7658 -21.3365 -21.1558 -20.9237 -20.7197 -20.3867 -20.1343 -19.7680
   -19.6651 -19.4307 -19.0802 -18.8701 -18.8490 -18.5570 -18.2477 -18.1428
   -18.0306 -17.5290 -17.3583 -17.0767 -16.9444 -16.8891 -16.6812 -16.4212
   -16.2143 -15.6820 -15.2234 -15.1876 -15.0917 -14.8169 -14.6547 -14.5829
   -14.4064 -14.1333 -13.6962 -13.4615 -13.1214 -13.0144 -12.9334 -12.5110
   -12.3956 -12.2957 -12.0381 -11.8650 -11.7465 -11.6060 -11.2815 -11.1622
   -11.0568 -10.9538 -10.8366 -10.6591 -10.5029 -10.2626 -10.0595  -9.9270
    -9.8332  -9.8216  -9.6442  -9.3396  -9.3249  -9.2620  -9.2152  -9.1845
    -9.1380  -9.1162  -8.9533  -8.8343  -8.7873  -8.7355  -8.7157  -8.6295
    -8.6081  -8.6049  -8.4730  -8.3041  -8.2419  -8.1849  -8.1034  -7.9876
    -7.8182  -7.6993  -7.5772  -7.5673  -7.4535  -7.3714  -7.1943  -7.1836
    -7.0134  -6.9080  -6.7724  -6.7461  -6.5962  -6.5763  -6.4960  -6.2124
    -5.9297  -5.9087  -5.8613  -5.7956  -5.6649  -5.3708  -4.9868  -4.8813
    -4.7241  -4.6862  -4.3542  -4.1190  -3.8070  -2.8507  -2.1953  -1.2779
    -0.9722  -0.7582  -0.6217  -0.5460  -0.4005  -0.2624   0.0365   0.5934
     0.6122   0.6419   0.7714   0.9103   0.9793   1.1515   1.1931   1.2593
     1.2647   1.4006   1.5065   1.5717   1.6520   1.6959   1.7605   1.8237
     1.8592   1.9822   1.9833   2.0427   2.1412   2.1707   2.2741   2.3034
     2.3940   2.4277   2.5390   2.5562   2.5578   2.5814   2.6883   2.7022
     2.7304   2.7939   2.8463   2.8581   2.9192   2.9840   3.0536   3.1366
     3.1414   3.1889   3.2200   3.2497   3.2794   3.2823   3.3504   3.3536
     3.3890   3.3969   3.4488   3.4946   3.5265   3.5649   3.6072   3.6339
     3.7043   3.7291   3.7552   3.7790   3.8382   3.8665   3.9192   3.9330
     3.9758   4.0217   4.0492   4.0712   4.1471   4.1563   4.1871   4.2199
     4.2358   4.2654   4.3271   4.4263   4.4437   4.4930   4.4946   4.5405
     4.5634   4.6433   4.6960   4.7125   4.7421   4.7696   4.7981   4.8081
     4.8627   4.8939   4.9186   4.9561   4.9679   5.0157   5.0910   5.1421
     5.1473   5.1572   5.2034   5.2242   5.2541   5.2825   5.2922   5.3386
     5.3465   5.3762   5.4261   5.4347   5.4588   5.4921   5.5192   5.5486
     5.5679   5.6284   5.6675   5.7054   5.7163   5.7164   5.7500   5.7837
     5.8127   5.8501   5.8664   5.8885   5.9398   5.9515   5.9814   5.9926
     6.0277   6.0555   6.0634   6.0754   6.0920   6.1810   6.1996   6.2112
     6.2274   6.2492   6.2646   6.3016   6.3186   6.3699   6.3789   6.4117
     6.4326   6.5106   6.5155   6.5348   6.5445   6.5650   6.5723   6.5945
     6.6094   6.6218   6.6887   6.6983   6.7210   6.7295   6.7331   6.7904
     6.7951   6.8443   6.8633   6.8656   6.8925   6.9268   6.9747   7.0044
     7.0211   7.0341   7.0706   7.1046   7.1430   7.1833   7.1878   7.2233
     7.2552   7.2910   7.3382   7.3384   7.3587   7.3610   7.3746   7.4127
     7.4246   7.4455   7.4787   7.5220   7.5670   7.5719   7.5837   7.5845
     7.6185   7.6403   7.6639   7.7002   7.7142   7.7335   7.7393   7.7652
     7.7824   7.8093   7.8163   7.8238   7.8494   7.8770   7.9366   7.9572
     8.0013   8.0314   8.0452   8.0467   8.0940   8.0967   8.1247   8.1278
     8.1500   8.1837   8.1900   8.2065   8.2116   8.2453   8.2802   8.3059
     8.3820   8.3842   8.3912   8.4096   8.4247   8.4637   8.4694   8.4789
     8.5241   8.5547   8.5564   8.5678   8.6041   8.6641   8.6944   8.6996
     8.7213   8.7397   8.7433   8.7698   8.7935   8.8142   8.8283   8.8503
     8.9024   8.9246   8.9342   8.9510   8.9531   8.9878   9.0050   9.0117
     9.0258   9.0846   9.1152   9.1390   9.1555   9.2098   9.2099   9.2391
     9.2451   9.2877   9.3007   9.3291   9.3321   9.3483   9.3783   9.3939
     9.4252   9.4615   9.4713   9.5243   9.5561   9.5686   9.5889   9.5937
     9.6002   9.6338   9.6426   9.6869   9.7157   9.7401   9.7514   9.7547
     9.7761   9.7913   9.8247   9.8754   9.8948   9.8991   9.9312   9.9465
     9.9567   9.9731   9.9805   9.9895  10.0637  10.0863  10.1001  10.1237
    10.1324  10.1599  10.1841  10.1873  10.2041  10.2068  10.2254  10.2597
    10.2623  10.2901  10.3068  10.3087  10.3545  10.3854  10.4032  10.4152
    10.4519  10.4859  10.4878  10.5127  10.5198  10.5499  10.5702  10.5740
    10.6133  10.6185  10.6418  10.6559  10.6642  10.6937  10.7411  10.7431
    10.7648  10.7755  10.8236  10.8324  10.8448  10.8493  10.8710  10.9022
    10.9127  10.9366  10.9514  10.9828  10.9844  11.0068  11.0243  11.0530
    11.0600  11.0619  11.1027  11.1120  11.1488  11.1595  11.1628  11.1756
    11.1945  11.2106  11.2379  11.2406  11.2956  11.3144  11.3211  11.3369
    11.3545  11.3606  11.3706  11.3879  11.4201  11.4364  11.4427  11.4480
    11.4735  11.4786  11.5150  11.5268

          k = 0.0000 0.0000 0.0138 (112381 PWs)   bands (ev):

   -21.7617 -21.3562 -21.1524 -20.8959 -20.7378 -20.3673 -20.1247 -19.7852
   -19.7052 -19.4142 -19.1117 -18.8519 -18.8186 -18.5634 -18.2364 -18.1130
   -18.0460 -17.5145 -17.3477 -17.0858 -16.9946 -16.8878 -16.6813 -16.4620
   -16.2014 -15.6739 -15.2148 -15.1590 -15.0941 -14.7996 -14.6757 -14.5821
   -14.3582 -14.1166 -13.7148 -13.4777 -13.1100 -13.0650 -12.9347 -12.5250
   -12.4125 -12.3305 -12.0309 -11.9034 -11.6952 -11.5988 -11.2854 -11.1304
   -11.0296 -10.9291 -10.8329 -10.6509 -10.4894 -10.2414 -10.0876  -9.9457
    -9.8342  -9.8282  -9.6566  -9.3482  -9.3307  -9.2618  -9.2097  -9.1518
    -9.1343  -9.1055  -8.9806  -8.8176  -8.8010  -8.7472  -8.7184  -8.6514
    -8.6241  -8.6130  -8.4906  -8.2894  -8.2212  -8.1880  -8.0967  -7.9737
    -7.8163  -7.6698  -7.6081  -7.5869  -7.4259  -7.4190  -7.2233  -7.1626
    -6.9855  -6.9105  -6.7975  -6.7485  -6.6127  -6.5469  -6.4398  -6.2247
    -5.9423  -5.8977  -5.8696  -5.7549  -5.6830  -5.3712  -4.9508  -4.8974
    -4.7548  -4.6940  -4.3394  -4.1509  -3.7967  -2.8820  -2.1612  -1.2909
    -0.9463  -0.7590  -0.6124  -0.5190  -0.3878  -0.2699   0.0131   0.5991
     0.6093   0.6475   0.7696   0.9161   0.9318   1.1263   1.1691   1.2670
     1.2882   1.4019   1.4828   1.5676   1.6782   1.6820   1.7302   1.8164
     1.8539   1.9592   2.0077   2.0811   2.1438   2.1789   2.2956   2.3034
     2.4005   2.4491   2.5142   2.5597   2.5658   2.6142   2.6819   2.6828
     2.7175   2.7671   2.8495   2.8520   2.9332   2.9957   3.0938   3.1122
     3.1212   3.1553   3.1913   3.2561   3.2938   3.3071   3.3251   3.3946
     3.3964   3.4044   3.4648   3.4996   3.5528   3.5586   3.5940   3.6396
     3.6966   3.7443   3.7689   3.7832   3.8410   3.8835   3.9270   3.9451
     3.9523   3.9957   4.0721   4.0836   4.1291   4.1606   4.1764   4.2017
     4.2446   4.2539   4.2786   4.4200   4.4299   4.4583   4.4791   4.5701
     4.5894   4.6491   4.6824   4.7061   4.7598   4.7893   4.8123   4.8261
     4.8551   4.9125   4.9191   4.9692   4.9726   4.9956   5.0824   5.1212
     5.1409   5.1572   5.1692   5.2060   5.2813   5.2990   5.3084   5.3447
     5.3749   5.3964   5.4077   5.4122   5.4567   5.4597   5.4887   5.5274
     5.5832   5.6264   5.6612   5.6683   5.6924   5.7198   5.7446   5.7850
     5.7856   5.8478   5.8581   5.9109   5.9264   5.9565   5.9828   5.9968
     6.0414   6.0479   6.0835   6.0841   6.1034   6.1947   6.2084   6.2233
     6.2282   6.2416   6.2664   6.3016   6.3184   6.3640   6.3799   6.3935
     6.4344   6.5091   6.5161   6.5265   6.5397   6.5592   6.5749   6.5890
     6.6153   6.6185   6.6448   6.7289   6.7361   6.7475   6.7798   6.7822
     6.7968   6.8740   6.8752   6.8980   6.9101   6.9275   6.9751   7.0059
     7.0486   7.0801   7.0869   7.0905   7.1422   7.1669   7.2019   7.2071
     7.2419   7.2880   7.3275   7.3468   7.3586   7.3741   7.3910   7.4180
     7.4300   7.4594   7.5154   7.5279   7.5618   7.5684   7.5848   7.5889
     7.6028   7.6336   7.6540   7.6651   7.7095   7.7163   7.7591   7.7864
     7.7947   7.8139   7.8173   7.8315   7.8566   7.8857   7.9261   7.9518
     8.0027   8.0144   8.0173   8.0442   8.0935   8.0947   8.1038   8.1263
     8.1325   8.1804   8.1934   8.2097   8.2402   8.2566   8.2871   8.2926
     8.3644   8.3717   8.3880   8.4309   8.4384   8.4592   8.4662   8.4757
     8.5084   8.5323   8.5617   8.5920   8.6329   8.6612   8.6894   8.6930
     8.7175   8.7214   8.7447   8.7669   8.7789   8.8193   8.8474   8.8733
     8.9140   8.9148   8.9238   8.9352   8.9639   8.9792   8.9824   8.9870
     9.0053   9.0557   9.0966   9.1384   9.1693   9.1856   9.2030   9.2209
     9.2768   9.2884   9.3059   9.3327   9.3526   9.3663   9.3933   9.4064
     9.4206   9.4384   9.4776   9.4834   9.5223   9.5593   9.5701   9.5947
     9.6154   9.6209   9.6293   9.6590   9.6709   9.6812   9.7205   9.7535
     9.7645   9.8176   9.8213   9.8785   9.9096   9.9171   9.9219   9.9404
     9.9685   9.9807   9.9868  10.0061  10.0741  10.0743  10.0974  10.1263
    10.1331  10.1408  10.1536  10.1861  10.1897  10.2048  10.2123  10.2342
    10.2470  10.2774  10.2912  10.3303  10.3606  10.3874  10.3978  10.4013
    10.4379  10.4592  10.4618  10.4996  10.5156  10.5337  10.5577  10.5872
    10.6112  10.6403  10.6525  10.6537  10.6609  10.7005  10.7367  10.7529
    10.7625  10.7749  10.8090  10.8268  10.8449  10.8570  10.8735  10.8944
    10.9118  10.9146  10.9522  10.9752  10.9823  11.0088  11.0315  11.0561
    11.0677  11.0812  11.1205  11.1240  11.1306  11.1380  11.1666  11.1696
    11.2072  11.2360  11.2477  11.2636  11.2708  11.3138  11.3431  11.3539
    11.3682  11.3786  11.3852  11.4262  11.4272  11.4403  11.4660  11.4676
    11.4847  11.4870  11.5230  11.5398

          k = 0.0000 0.0000 0.0154 (112407 PWs)   bands (ev):

   -21.7571 -21.3756 -21.1486 -20.8680 -20.7550 -20.3490 -20.1136 -19.8026
   -19.7452 -19.3976 -19.1438 -18.8527 -18.7667 -18.5720 -18.2338 -18.0798
   -18.0525 -17.5032 -17.3370 -17.0968 -17.0440 -16.8857 -16.6799 -16.5066
   -16.1875 -15.6732 -15.2089 -15.1401 -15.0711 -14.7839 -14.6981 -14.5785
   -14.3085 -14.1036 -13.7307 -13.4955 -13.1536 -13.0638 -12.9329 -12.5506
   -12.4427 -12.3382 -12.0301 -11.9410 -11.6471 -11.5842 -11.2992 -11.0989
   -11.0015 -10.9177 -10.8041 -10.6434 -10.4761 -10.2338 -10.1086  -9.9562
    -9.8461  -9.8226  -9.6697  -9.3712  -9.3305  -9.2688  -9.1995  -9.1298
    -9.1167  -9.0947  -9.0041  -8.8546  -8.7675  -8.7585  -8.7263  -8.6724
    -8.6387  -8.6167  -8.5049  -8.2734  -8.2020  -8.1936  -8.0873  -7.9576
    -7.8160  -7.6536  -7.6248  -7.6058  -7.4672  -7.3990  -7.2529  -7.1411
    -6.9616  -6.9092  -6.8280  -6.7504  -6.6227  -6.5172  -6.3833  -6.2376
    -5.9564  -5.8933  -5.8787  -5.7313  -5.6763  -5.3707  -4.9203  -4.9108
    -4.7881  -4.7001  -4.3262  -4.1841  -3.7859  -2.9149  -2.1256  -1.3037
    -0.9192  -0.7613  -0.6072  -0.4844  -0.3784  -0.2727  -0.0076   0.5915
     0.6054   0.6537   0.7659   0.8990   0.9225   1.1012   1.1447   1.2715
     1.3177   1.3995   1.4641   1.5620   1.6042   1.7005   1.7647   1.7974
     1.8664   1.9346   2.0289   2.1183   2.1499   2.1867   2.2826   2.3357
     2.4004   2.4839   2.4854   2.5655   2.5703   2.6509   2.6629   2.6697
     2.7162   2.7407   2.8286   2.8574   2.9573   3.0042   3.0823   3.0838
     3.1222   3.1512   3.1590   3.2601   3.2968   3.3173   3.3257   3.4009
     3.4159   3.4426   3.4812   3.5185   3.5382   3.5812   3.5976   3.6355
     3.6537   3.7843   3.7884   3.7960   3.8275   3.9091   3.9265   3.9379
     3.9474   3.9817   4.0584   4.1042   4.1144   4.1458   4.1819   4.1836
     4.2421   4.2444   4.2841   4.3935   4.3968   4.4305   4.4931   4.5896
     4.6257   4.6438   4.6593   4.7203   4.7723   4.7890   4.8225   4.8417
     4.8509   4.8868   4.9348   4.9533   5.0136   5.0302   5.0667   5.0897
     5.1108   5.1423   5.1803   5.1915   5.2746   5.2761   5.3502   5.3510
     5.3757   5.3837   5.4106   5.4320   5.4322   5.4504   5.4786   5.5159
     5.6030   5.6125   5.6205   5.6473   5.6993   5.7155   5.7414   5.7620
     5.7907   5.7958   5.8636   5.9283   5.9476   5.9620   5.9819   6.0134
     6.0409   6.0597   6.0745   6.1046   6.1372   6.1793   6.1934   6.1984
     6.2324   6.2571   6.2630   6.2935   6.3456   6.3706   6.3829   6.3840
     6.4401   6.4826   6.4966   6.5094   6.5469   6.5656   6.5725   6.5837
     6.5906   6.6175   6.6883   6.7399   6.7629   6.7647   6.7673   6.7962
     6.8318   6.8773   6.8783   6.9193   6.9438   6.9685   6.9790   7.0070
     7.0343   7.0798   7.1295   7.1304   7.1458   7.1575   7.1946   7.2191
     7.2372   7.2781   7.3246   7.3330   7.3469   7.3719   7.4156   7.4347
     7.4474   7.4586   7.5141   7.5220   7.5355   7.5516   7.5646   7.5668
     7.6052   7.6296   7.6562   7.6606   7.7208   7.7272   7.7682   7.7823
     7.8069   7.8264   7.8362   7.8599   7.8899   7.8946   7.9115   7.9428
     7.9691   7.9822   8.0163   8.0415   8.0643   8.1044   8.1103   8.1133
     8.1266   8.1781   8.2025   8.2065   8.2562   8.2737   8.2889   8.2920
     8.3382   8.3789   8.3860   8.4261   8.4486   8.4556   8.4670   8.4867
     8.5019   8.5260   8.5719   8.6131   8.6443   8.6561   8.6661   8.6943
     8.7055   8.7215   8.7373   8.7704   8.7846   8.7963   8.8574   8.8780
     8.8986   8.9062   8.9211   8.9367   8.9454   8.9520   8.9786   9.0052
     9.0221   9.0332   9.0663   9.1252   9.1606   9.1828   9.1942   9.2153
     9.2583   9.2699   9.3184   9.3560   9.3656   9.3725   9.4049   9.4170
     9.4323   9.4347   9.4574   9.4817   9.5181   9.5405   9.5525   9.5599
     9.5779   9.5780   9.6163   9.6165   9.6721   9.6872   9.7007   9.7620
     9.7627   9.8065   9.8469   9.8755   9.8847   9.9107   9.9149   9.9558
     9.9808   9.9995  10.0046  10.0327  10.0349  10.0630  10.0753  10.0933
    10.1001  10.1313  10.1384  10.1766  10.1864  10.2061  10.2154  10.2230
    10.2579  10.2778  10.2844  10.3433  10.3553  10.3556  10.3858  10.3943
    10.4187  10.4252  10.4767  10.5046  10.5228  10.5436  10.5811  10.5812
    10.6077  10.6332  10.6541  10.6612  10.6797  10.7114  10.7184  10.7473
    10.7675  10.7725  10.7937  10.8253  10.8253  10.8588  10.8692  10.8790
    10.8957  10.9267  10.9613  10.9641  10.9845  11.0142  11.0339  11.0518
    11.0587  11.0980  11.0989  11.1142  11.1513  11.1517  11.1569  11.1825
    11.2117  11.2477  11.2683  11.2847  11.2882  11.2982  11.3446  11.3760
    11.3785  11.3846  11.3995  11.4140  11.4386  11.4444  11.4716  11.4921
    11.5049  11.5255  11.5269  11.5339

          k = 0.0000 0.0000 0.0169 (112413 PWs)   bands (ev):

   -21.7520 -21.3945 -21.1443 -20.8408 -20.7704 -20.3318 -20.1008 -19.8217
   -19.7829 -19.3823 -19.1750 -18.8522 -18.7144 -18.5819 -18.2407 -18.0581
   -18.0354 -17.4949 -17.3272 -17.1224 -17.0784 -16.8828 -16.6771 -16.5538
   -16.1732 -15.6809 -15.1932 -15.1409 -15.0251 -14.7736 -14.7169 -14.5730
   -14.2585 -14.0949 -13.7434 -13.5143 -13.2191 -13.0418 -12.9296 -12.5890
   -12.4752 -12.3289 -12.0372 -11.9753 -11.6099 -11.5552 -11.3181 -11.0719
   -10.9816 -10.9030 -10.7596 -10.6367 -10.4633 -10.2416 -10.1222  -9.9575
    -9.8552  -9.8164  -9.6836  -9.3938  -9.3433  -9.2704  -9.1906  -9.1248
    -9.1009  -9.0753  -9.0163  -8.8933  -8.7718  -8.7383  -8.7356  -8.6906
    -8.6528  -8.6152  -8.5153  -8.2581  -8.2003  -8.1844  -8.0758  -7.9393
    -7.8166  -7.6807  -7.6240  -7.5978  -7.5153  -7.3755  -7.2803  -7.1203
    -6.9494  -6.8984  -6.8616  -6.7506  -6.6275  -6.4875  -6.3266  -6.2510
    -5.9719  -5.8970  -5.8888  -5.7309  -5.6372  -5.3695  -4.9358  -4.8832
    -4.8210  -4.7051  -4.3157  -4.2173  -3.7745  -2.9490  -2.0885  -1.3163
    -0.8916  -0.7641  -0.6054  -0.4467  -0.3714  -0.2690  -0.0255   0.5644
     0.6124   0.6606   0.7415   0.8948   0.9295   1.0763   1.1204   1.2773
     1.3473   1.3898   1.4540   1.5221   1.5606   1.7147   1.7784   1.8028
     1.8849   1.9102   2.0466   2.1432   2.1700   2.1945   2.2664   2.3658
     2.4025   2.4580   2.5213   2.5721   2.5722   2.6476   2.6509   2.6934
     2.7153   2.7199   2.8053   2.8632   2.9763   3.0113   3.0519   3.0600
     3.0919   3.1294   3.1891   3.2460   3.2877   3.3355   3.3427   3.4072
     3.4354   3.4883   3.4984   3.5165   3.5465   3.5735   3.6087   3.6250
     3.6562   3.7832   3.7918   3.8267   3.8508   3.8885   3.9123   3.9425
     3.9630   3.9803   4.0217   4.0991   4.1290   4.1347   4.1665   4.1728
     4.2275   4.2638   4.3167   4.3555   4.3690   4.4119   4.5115   4.5897
     4.6324   4.6521   4.6659   4.7333   4.7679   4.7815   4.8194   4.8221
     4.8822   4.8895   4.9257   4.9502   5.0431   5.0553   5.0604   5.0813
     5.0829   5.1414   5.1682   5.2007   5.2434   5.2698   5.2968   5.3431
     5.3787   5.3854   5.4102   5.4321   5.4440   5.4695   5.4817   5.5461
     5.5489   5.6056   5.6194   5.6523   5.6874   5.6875   5.7223   5.7380
     5.7885   5.8060   5.8694   5.9419   5.9649   5.9659   5.9959   6.0136
     6.0469   6.0646   6.0874   6.1215   6.1386   6.1483   6.1708   6.1916
     6.2298   6.2692   6.2735   6.2899   6.3490   6.3538   6.3898   6.4080
     6.4476   6.4513   6.4782   6.5177   6.5396   6.5452   6.5673   6.5780
     6.6120   6.6258   6.7416   6.7440   6.7471   6.7900   6.7930   6.7989
     6.8681   6.8740   6.8788   6.9360   6.9649   6.9793   7.0051   7.0308
     7.0466   7.0801   7.1058   7.1610   7.1741   7.1886   7.1982   7.2362
     7.2368   7.2686   7.3061   7.3304   7.3325   7.3711   7.4297   7.4309
     7.4555   7.4653   7.4695   7.5020   7.5098   7.5248   7.5390   7.5495
     7.6158   7.6400   7.6655   7.6821   7.7428   7.7528   7.7551   7.7899
     7.7904   7.8313   7.8613   7.8894   7.8913   7.9026   7.9205   7.9384
     7.9448   7.9896   8.0086   8.0354   8.0362   8.0990   8.1114   8.1263
     8.1412   8.1665   8.1893   8.2183   8.2307   8.2853   8.2938   8.3157
     8.3319   8.3639   8.4123   8.4147   8.4404   8.4412   8.4704   8.5085
     8.5198   8.5380   8.5837   8.6069   8.6354   8.6359   8.6595   8.6915
     8.6955   8.7293   8.7481   8.7714   8.7727   8.8022   8.8409   8.8587
     8.8805   8.8875   8.8937   8.9201   8.9326   8.9670   8.9885   9.0210
     9.0236   9.0349   9.0731   9.1167   9.1370   9.1558   9.1795   9.2216
     9.2447   9.2603   9.3233   9.3482   9.3826   9.3848   9.3883   9.4136
     9.4317   9.4321   9.4624   9.4692   9.4924   9.5023   9.5094   9.5264
     9.5673   9.5758   9.5859   9.6393   9.6895   9.7042   9.7103   9.7429
     9.7787   9.7842   9.8197   9.8693   9.8937   9.9112   9.9290   9.9618
     9.9794   9.9823  10.0066  10.0124  10.0210  10.0279  10.0613  10.0654
    10.0697  10.0975  10.1481  10.1574  10.1909  10.2037  10.2146  10.2381
    10.2618  10.2877  10.2948  10.3083  10.3271  10.3535  10.3808  10.3846
    10.4137  10.4314  10.5029  10.5262  10.5322  10.5657  10.5722  10.6018
    10.6249  10.6250  10.6439  10.6713  10.6770  10.6857  10.7210  10.7360
    10.7561  10.7751  10.7759  10.8121  10.8366  10.8512  10.8641  10.8684
    10.8880  10.9405  10.9550  10.9588  10.9875  11.0052  11.0190  11.0497
    11.0721  11.0797  11.0817  11.1436  11.1469  11.1636  11.1709  11.1963
    11.2174  11.2378  11.2743  11.2914  11.3090  11.3279  11.3490  11.3635
    11.3733  11.4049  11.4250  11.4282  11.4463  11.4488  11.4756  11.4980
    11.5101  11.5129  11.5258  11.5554

          k = 0.0000 0.0000 0.0184 (112459 PWs)   bands (ev):

   -21.7465 -21.4131 -21.1397 -20.8191 -20.7792 -20.3158 -20.0865 -19.8470
   -19.8135 -19.3704 -19.2031 -18.8506 -18.6617 -18.5926 -18.2549 -18.0491
   -17.9956 -17.4890 -17.3193 -17.1708 -17.0891 -16.8787 -16.6734 -16.6026
   -16.1591 -15.6965 -15.1704 -15.1429 -14.9733 -14.7779 -14.7217 -14.5662
   -14.2097 -14.0898 -13.7526 -13.5334 -13.2874 -13.0181 -12.9254 -12.6379
   -12.5019 -12.3128 -12.0549 -12.0029 -11.5838 -11.5124 -11.3390 -11.0507
   -10.9784 -10.8685 -10.7112 -10.6300 -10.4511 -10.2598 -10.1320  -9.9533
    -9.8573  -9.8097  -9.6984  -9.4160  -9.3654  -9.2685  -9.1895  -9.1192
    -9.1058  -9.0472  -9.0189  -8.9256  -8.7898  -8.7482  -8.7240  -8.6873
    -8.6672  -8.6098  -8.5223  -8.2478  -8.2040  -8.1685  -8.0626  -7.9190
    -7.8182  -7.7131  -7.6418  -7.5652  -7.5627  -7.3634  -7.2973  -7.1016
    -6.9491  -6.8959  -6.8801  -6.7469  -6.6289  -6.4580  -6.2698  -6.2645
    -5.9889  -5.9091  -5.8997  -5.7301  -5.5891  -5.3676  -4.9565  -4.8772
    -4.8314  -4.7092  -4.3117  -4.2466  -3.7623  -2.9843  -2.0502  -1.3288
    -0.8647  -0.7661  -0.6063  -0.4145  -0.3588  -0.2588  -0.0406   0.5317
     0.6200   0.6681   0.6987   0.9136   0.9372   1.0520   1.0965   1.2841
     1.3729   1.3759   1.4456   1.4526   1.5542   1.7131   1.7758   1.8380
     1.8841   1.9095   2.0618   2.1525   2.2022   2.2071   2.2490   2.3802
     2.4068   2.4423   2.5574   2.5714   2.5777   2.6396   2.6403   2.6916
     2.7231   2.7338   2.7837   2.8695   2.9720   3.0138   3.0303   3.0406
     3.0640   3.1117   3.2155   3.2188   3.2931   3.3428   3.3684   3.4145
     3.4630   3.4835   3.5096   3.5288   3.5440   3.5782   3.6270   3.6573
     3.6636   3.7578   3.7960   3.8632   3.8682   3.8709   3.8934   3.9340
     3.9534   3.9989   4.0218   4.0589   4.1127   4.1310   4.1677   4.1885
     4.2268   4.2713   4.3152   4.3523   4.3608   4.4016   4.5284   4.5726
     4.6063   4.6754   4.6994   4.7251   4.7601   4.7680   4.7915   4.8398
     4.8940   4.9028   4.9324   4.9427   5.0256   5.0406   5.0434   5.1133
     5.1162   5.1433   5.1753   5.2048   5.2052   5.2505   5.2603   5.3091
     5.3588   5.3667   5.4001   5.4486   5.4549   5.4990   5.5042   5.5172
     5.5837   5.5929   5.6109   5.6285   5.6714   5.6792   5.6797   5.7283
     5.8118   5.8325   5.8798   5.9438   5.9706   5.9713   6.0189   6.0237
     6.0410   6.0555   6.0856   6.1067   6.1289   6.1324   6.1892   6.2049
     6.2200   6.2603   6.2788   6.2857   6.3286   6.3566   6.3930   6.4109
     6.4566   6.4595   6.4638   6.5141   6.5205   6.5344   6.5640   6.6051
     6.6332   6.6529   6.7274   6.7531   6.7730   6.7921   6.8017   6.8463
     6.8751   6.8806   6.8877   6.9433   6.9494   7.0004   7.0398   7.0488
     7.0856   7.0872   7.1054   7.1616   7.1951   7.2026   7.2364   7.2365
     7.2540   7.2669   7.2766   7.3144   7.3548   7.3599   7.3863   7.4222
     7.4308   7.4433   7.4661   7.4877   7.4995   7.5353   7.5362   7.5435
     7.5909   7.6315   7.6850   7.7242   7.7363   7.7463   7.7561   7.7782
     7.8017   7.8279   7.8539   7.8707   7.9095   7.9167   7.9235   7.9560
     7.9841   8.0029   8.0177   8.0220   8.0283   8.1031   8.1119   8.1289
     8.1331   8.1680   8.1769   8.2085   8.2407   8.2882   8.2893   8.3234
     8.3491   8.3603   8.3953   8.4206   8.4226   8.4599   8.4802   8.5235
     8.5320   8.5704   8.5813   8.5858   8.6143   8.6336   8.6520   8.6742
     8.7019   8.7400   8.7466   8.7508   8.7922   8.8037   8.8072   8.8471
     8.8645   8.8710   8.8851   8.8888   8.9100   8.9761   8.9862   8.9934
     9.0674   9.0684   9.0797   9.1075   9.1173   9.1181   9.1756   9.2285
     9.2373   9.2735   9.3204   9.3285   9.3423   9.3492   9.3609   9.4080
     9.4187   9.4425   9.4443   9.4532   9.4632   9.4780   9.5114   9.5278
     9.5406   9.5859   9.6146   9.6796   9.6863   9.6964   9.7342   9.7496
     9.7572   9.7896   9.7931   9.8847   9.9050   9.9075   9.9091   9.9253
     9.9534   9.9632   9.9648   9.9853   9.9946  10.0239  10.0532  10.0646
    10.0689  10.0938  10.1262  10.1416  10.1638  10.1990  10.2200  10.2392
    10.2550  10.2838  10.2843  10.3056  10.3453  10.3525  10.3761  10.4204
    10.4338  10.4363  10.5144  10.5200  10.5563  10.5645  10.5841  10.6112
    10.6166  10.6339  10.6528  10.6595  10.6749  10.6846  10.7034  10.7200
    10.7346  10.7607  10.7803  10.8123  10.8410  10.8519  10.8660  10.8696
    10.8935  10.9157  10.9382  10.9386  10.9845  11.0212  11.0253  11.0357
    11.0654  11.0809  11.1041  11.1377  11.1549  11.1607  11.1702  11.2001
    11.2382  11.2584  11.2672  11.2783  11.3160  11.3382  11.3569  11.3726
    11.3795  11.4172  11.4463  11.4497  11.4686  11.4721  11.4730  11.4883
    11.4964  11.5117  11.5328  11.5339

          k = 0.0000 0.0000 0.0200 (112454 PWs)   bands (ev):

   -21.7405 -21.4312 -21.1347 -20.8180 -20.7663 -20.3013 -20.0706 -19.8813
   -19.8337 -19.3651 -19.2250 -18.8482 -18.6119 -18.6005 -18.2738 -18.0374
   -17.9520 -17.4853 -17.3140 -17.2255 -17.0921 -16.8734 -16.6696 -16.6512
   -16.1456 -15.7180 -15.1603 -15.1240 -14.9205 -14.7965 -14.7119 -14.5583
   -14.1669 -14.0840 -13.7583 -13.5523 -13.3566 -12.9949 -12.9203 -12.6927
   -12.5232 -12.2938 -12.0830 -12.0233 -11.5600 -11.4662 -11.3595 -11.0365
   -10.9812 -10.8220 -10.6701 -10.6175 -10.4390 -10.2821 -10.1400  -9.9513
    -9.8474  -9.8024  -9.7139  -9.4377  -9.3921  -9.2721  -9.1971  -9.1131
    -9.1057  -9.0479  -9.0110  -8.9372  -8.8126  -8.7515  -8.7394  -8.6818
    -8.6558  -8.6024  -8.5263  -8.2492  -8.1980  -8.1541  -8.0481  -7.8969
    -7.8221  -7.7441  -7.6597  -7.6084  -7.5324  -7.3755  -7.2913  -7.0872
    -6.9541  -6.9278  -6.8639  -6.7365  -6.6276  -6.4288  -6.2781  -6.2128
    -6.0072  -5.9278  -5.9116  -5.7242  -5.5389  -5.3649  -4.9788  -4.9101
    -4.8054  -4.7127  -4.3248  -4.2617  -3.7489  -3.0205  -2.0110  -1.3414
    -0.8419  -0.7644  -0.6095  -0.4002  -0.3268  -0.2440  -0.0529   0.4947
     0.6283   0.6495   0.6763   0.9419   0.9453   1.0282   1.0731   1.2916
     1.3523   1.3632   1.4089   1.4565   1.5491   1.6974   1.7847   1.8598
     1.8748   1.9353   2.0750   2.1592   2.2099   2.2308   2.2483   2.3641
     2.4128   2.4485   2.5592   2.5809   2.5963   2.6387   2.6413   2.6729
     2.7238   2.7599   2.7817   2.8764   2.9417   3.0003   3.0102   3.0366
     3.0385   3.1179   3.1904   3.2259   3.3018   3.3561   3.3926   3.4225
     3.4592   3.4619   3.4951   3.5435   3.5806   3.6125   3.6594   3.6708
     3.6934   3.7312   3.7998   3.8382   3.8388   3.8989   3.9045   3.9294
     3.9378   4.0120   4.0215   4.0522   4.0894   4.1050   4.1949   4.1973
     4.2312   4.2561   4.2908   4.3685   4.3864   4.4073   4.5399   4.5539
     4.5797   4.6703   4.7150   4.7165   4.7491   4.7672   4.7961   4.8519
     4.8899   4.8901   4.9326   4.9688   5.0109   5.0303   5.0428   5.0949
     5.1505   5.1585   5.1632   5.1938   5.2152   5.2293   5.2361   5.2895
     5.3168   5.3438   5.4132   5.4143   5.4667   5.5198   5.5210   5.5342
     5.5677   5.5774   5.6040   5.6206   5.6400   5.6593   5.7017   5.7376
     5.8356   5.8561   5.8979   5.9343   5.9729   5.9753   6.0203   6.0229
     6.0401   6.0537   6.0562   6.0897   6.1349   6.1431   6.1880   6.2069
     6.2366   6.2539   6.2675   6.2868   6.3255   6.3386   6.3908   6.3974
     6.4550   6.4633   6.4864   6.5119   6.5180   6.5337   6.5718   6.6347
     6.6401   6.7035   6.7149   6.7513   6.7858   6.7959   6.8063   6.8702
     6.8827   6.9048   6.9127   6.9206   6.9442   7.0275   7.0503   7.0670
     7.0967   7.1249   7.1354   7.1550   7.2138   7.2243   7.2268   7.2425
     7.2514   7.2700   7.2868   7.2888   7.3282   7.3470   7.3831   7.4105
     7.4232   7.4352   7.4527   7.4714   7.4969   7.5214   7.5548   7.5695
     7.5723   7.6332   7.6828   7.6965   7.7018   7.7168   7.7536   7.8007
     7.8233   7.8285   7.8600   7.8754   7.9084   7.9222   7.9317   7.9787
     7.9969   8.0154   8.0291   8.0396   8.0684   8.0742   8.0903   8.1355
     8.1446   8.1824   8.1907   8.1947   8.2593   8.2821   8.2909   8.3147
     8.3375   8.3757   8.3943   8.4045   8.4312   8.4795   8.4930   8.5240
     8.5456   8.5470   8.5630   8.6114   8.6211   8.6336   8.6526   8.6567
     8.7056   8.7120   8.7485   8.7508   8.7749   8.7791   8.8142   8.8189
     8.8346   8.8698   8.8827   8.8957   8.8994   8.9739   8.9781   8.9925
     9.0340   9.0770   9.0827   9.0898   9.1280   9.1294   9.2022   9.2307
     9.2311   9.2746   9.2913   9.2920   9.3025   9.3056   9.3223   9.3842
     9.3857   9.4193   9.4307   9.4507   9.4609   9.4989   9.5187   9.5461
     9.5638   9.6004   9.6228   9.6689   9.6877   9.7009   9.7056   9.7574
     9.7838   9.7952   9.8063   9.8457   9.8701   9.8969   9.9002   9.9121
     9.9223   9.9237   9.9403   9.9740   9.9991  10.0200  10.0344  10.0576
    10.0675  10.0694  10.1099  10.1377  10.1420  10.1722  10.2289  10.2404
    10.2548  10.2780  10.2984  10.3120  10.3306  10.3832  10.3954  10.4373
    10.4459  10.4810  10.5091  10.5125  10.5517  10.5570  10.5971  10.6077
    10.6196  10.6231  10.6353  10.6520  10.6679  10.6825  10.7104  10.7222
    10.7230  10.7432  10.7929  10.8223  10.8431  10.8529  10.8580  10.8688
    10.8919  10.9020  10.9093  10.9291  11.0015  11.0107  11.0342  11.0540
    11.0682  11.0686  11.1276  11.1279  11.1413  11.1568  11.1742  11.2151
    11.2397  11.2484  11.2716  11.2989  11.3194  11.3233  11.3535  11.3892
    11.4014  11.4202  11.4558  11.4595  11.4708  11.4762  11.4872  11.4998
    11.5059  11.5236  11.5255  11.5449

          k = 0.0000 0.0000 0.0215 (112462 PWs)   bands (ev):

   -21.7341 -21.4488 -21.1294 -20.8299 -20.7393 -20.2883 -20.0535 -19.9191
   -19.8487 -19.3704 -19.2363 -18.8452 -18.6165 -18.5540 -18.2951 -18.0234
   -17.9065 -17.4835 -17.3120 -17.2812 -17.0923 -16.8675 -16.7024 -16.6619
   -16.1334 -15.7432 -15.1631 -15.0852 -14.8684 -14.8196 -14.6965 -14.5496
   -14.1441 -14.0635 -13.7612 -13.5706 -13.4255 -12.9740 -12.9141 -12.7495
   -12.5406 -12.2737 -12.1163 -12.0406 -11.5349 -11.4266 -11.3735 -11.0319
   -10.9795 -10.7731 -10.6521 -10.5859 -10.4247 -10.3055 -10.1447  -9.9557
    -9.8249  -9.7945  -9.7300  -9.4589  -9.4209  -9.2911  -9.2023  -9.1066
    -9.1002  -9.0815  -8.9941  -8.9285  -8.8371  -8.7577  -8.7466  -8.6967
    -8.6201  -8.5942  -8.5279  -8.2602  -8.1845  -8.1413  -8.0326  -7.8735
    -7.8317  -7.7696  -7.6814  -7.6482  -7.5001  -7.4018  -7.2721  -7.0820
    -6.9616  -6.9520  -6.8545  -6.7178  -6.6244  -6.4000  -6.2917  -6.1559
    -6.0270  -5.9505  -5.9242  -5.7145  -5.4879  -5.3612  -5.0032  -4.9489
    -4.7754  -4.7155  -4.3558  -4.2612  -3.7344  -3.0573  -1.9711  -1.3541
    -0.8285  -0.7553  -0.6132  -0.3958  -0.2837  -0.2250  -0.0617   0.4540
     0.5998   0.6373   0.6850   0.9537   0.9734   1.0055   1.0502   1.2873
     1.2990   1.3313   1.4340   1.4630   1.5455   1.6765   1.7972   1.8362
     1.9113   1.9640   2.0868   2.1646   2.2158   2.2175   2.2892   2.3346
     2.4200   2.4559   2.5462   2.5823   2.6194   2.6386   2.6531   2.6762
     2.7146   2.7597   2.8197   2.8840   2.9030   2.9783   2.9816   3.0101
     3.0460   3.1382   3.1663   3.2229   3.3119   3.3756   3.4020   3.4180
[...]
     2.3739   2.4739   2.4790   2.5351   2.5518   2.6684   2.6937   2.7022
     2.7301   2.7964   2.8306   2.8555   2.9552   2.9566   2.9813   3.0017
     3.0311   3.1433   3.1578   3.1884   3.2598   3.3180   3.3714   3.4078
     3.4642   3.4986   3.5275   3.5409   3.5907   3.6201   3.6405   3.6856
     3.7739   3.7795   3.7997   3.8472   3.8631   3.8799   3.8987   3.9177
     3.9698   4.0597   4.0652   4.1069   4.1634   4.1756   4.2712   4.3036
     4.3073   4.3489   4.3557   4.3613   4.3967   4.4551   4.4721   4.4849
     4.6062   4.6446   4.6512   4.6601   4.6712   4.7201   4.7809   4.7855
     4.8204   4.8450   4.8747   4.9155   4.9539   4.9783   4.9956   5.0117
     5.0316   5.0324   5.0942   5.1150   5.1499   5.1756   5.2066   5.2715
     5.3088   5.3966   5.4092   5.4299   5.4517   5.4559   5.4731   5.5356
     5.5653   5.5875   5.6314   5.6548   5.6788   5.7270   5.7485   5.7541
     5.7921   5.8375   5.8455   5.8779   5.8794   5.9337   5.9667   5.9963
     6.0064   6.0317   6.0566   6.1249   6.1601   6.1928   6.2289   6.2592
     6.2743   6.3086   6.3432   6.3802   6.3853   6.4127   6.4453   6.4671
     6.5114   6.5172   6.5494   6.5823   6.6051   6.6349   6.6389   6.6766
     6.6926   6.7460   6.7532   6.7687   6.8120   6.8310   6.8726   6.8795
     6.9044   6.9241   6.9317   6.9570   6.9680   6.9947   7.0099   7.0334
     7.0336   7.0707   7.1076   7.1121   7.1415   7.1445   7.1717   7.2053
     7.2384   7.2663   7.2755   7.3268   7.3473   7.3671   7.3794   7.4166
     7.4678   7.5012   7.5105   7.5179   7.5439   7.5623   7.5784   7.5994
     7.6005   7.6432   7.6764   7.7347   7.7400   7.7561   7.8093   7.8094
     7.8164   7.8508   7.8577   7.9073   7.9168   7.9188   7.9313   7.9606
     8.0223   8.0536   8.0561   8.1089   8.1263   8.1526   8.1595   8.1688
     8.2062   8.2214   8.2313   8.2472   8.2652   8.2886   8.2935   8.3322
     8.3804   8.4121   8.4232   8.4383   8.4440   8.4830   8.4952   8.4972
     8.5200   8.5485   8.5575   8.5861   8.6024   8.6093   8.6134   8.6336
     8.6442   8.6474   8.7349   8.7430   8.7508   8.7635   8.7935   8.8013
     8.8192   8.8301   8.8365   8.9087   8.9162   8.9219   8.9555   8.9735
     8.9978   8.9986   9.0316   9.0509   9.0568   9.0596   9.0723   9.1056
     9.1136   9.1233   9.1499   9.1647   9.1660   9.1923   9.2171   9.2387
     9.2785   9.3207   9.3308   9.3699   9.3922   9.3967   9.4411   9.4540
     9.4804   9.5311   9.5793   9.6050   9.6371   9.6655   9.6969   9.7069
     9.7446   9.7617   9.7967   9.8120   9.8210   9.8482   9.8561   9.8728
     9.8822   9.9278   9.9472   9.9488   9.9854   9.9876  10.0276  10.0551
    10.1050  10.1183  10.1403  10.1783  10.2033  10.2234  10.2315  10.2361
    10.2645  10.2705  10.3041  10.3327  10.3414  10.3459  10.3522  10.3690
    10.3828  10.4240  10.4395  10.4624  10.4722  10.4934  10.5203  10.5464
    10.5541  10.5577  10.6087  10.6193  10.6507  10.6647  10.6927  10.7193
    10.7486  10.7603  10.7781  10.7852  10.7915  10.8300  10.8548  10.8618
    10.9078  10.9136  10.9530  11.0010  11.0073  11.0099  11.0360  11.0753
    11.0829  11.0896  11.1391  11.1441  11.1584  11.1642  11.2117  11.2118
    11.2550  11.2906  11.2967  11.3086  11.3338  11.3410  11.3543  11.3695
    11.4098  11.4132  11.4503  11.4662  11.5175  11.5227  11.5866  11.5892
    11.6018  11.6325  11.6531  11.7071

          k = 0.0000 0.0000 0.0354 (112488 PWs)   bands (ev):

   -21.6655 -21.5748 -21.0817 -20.9289 -20.4450 -20.3118 -20.1769 -19.9598
   -19.8079 -19.6233 -19.1510 -18.8121 -18.6993 -18.4488 -18.0623 -17.9180
   -17.7953 -17.5507 -17.4080 -17.3312 -17.2083 -17.0862 -16.7273 -16.5865
   -16.1472 -15.8990 -15.1551 -15.0173 -14.6825 -14.6063 -14.4783 -14.3835
   -14.2943 -14.0540 -13.7986 -13.6266 -13.5574 -13.3287 -12.8937 -12.7651
   -12.5694 -12.3824 -12.2027 -12.1153 -11.5214 -11.3020 -11.1444 -11.0372
   -10.9176 -10.8262 -10.5685 -10.4529 -10.1704 -10.0884 -10.0501  -9.9204
    -9.8694  -9.8466  -9.7063  -9.6547  -9.6152  -9.5195  -9.4138  -9.2532
    -9.0800  -9.0445  -8.9854  -8.9219  -8.8840  -8.8509  -8.7119  -8.6524
    -8.4850  -8.4413  -8.3642  -8.2708  -8.1929  -8.1260  -8.0516  -8.0220
    -7.8275  -7.7899  -7.7890  -7.6809  -7.5560  -7.3755  -7.2619  -7.1328
    -7.0554  -6.8971  -6.8842  -6.5493  -6.4215  -6.4074  -6.2569  -6.1630
    -6.1252  -6.0754  -5.6602  -5.6078  -5.4214  -5.3034  -5.1599  -5.0074
    -4.8002  -4.7242  -4.5564  -4.2323  -3.5384  -3.3851  -1.6288  -1.4984
    -0.9071  -0.7689  -0.3630  -0.2923  -0.2086  -0.0600   0.0365   0.2877
     0.3157   0.6027   0.7437   0.7850   0.8222   0.8757   1.0705   1.1393
     1.2290   1.4115   1.4153   1.4886   1.5682   1.6521   1.7487   1.9089
     1.9846   2.0118   2.2041   2.2483   2.2818   2.3020   2.3057   2.3495
     2.3620   2.4502   2.4693   2.5108   2.5507   2.6810   2.7086   2.7138
     2.7456   2.7786   2.8121   2.8679   2.9136   2.9564   2.9679   3.0115
     3.0766   3.1527   3.1808   3.2356   3.2451   3.2719   3.3764   3.3800
     3.4392   3.4935   3.5375   3.5529   3.5923   3.6141   3.6382   3.6669
     3.7628   3.7845   3.7946   3.8439   3.8672   3.8840   3.9270   3.9308
     3.9776   4.0611   4.0780   4.1159   4.1585   4.1693   4.2357   4.2996
     4.3376   4.3454   4.3691   4.4093   4.4104   4.4465   4.4594   4.5126
     4.6109   4.6224   4.6275   4.6662   4.6670   4.7294   4.7458   4.7678
     4.8330   4.8461   4.8736   4.9250   4.9408   4.9475   4.9905   4.9939
     5.0207   5.0212   5.0693   5.1172   5.1648   5.1761   5.2397   5.2905
     5.2965   5.4032   5.4190   5.4330   5.4567   5.4680   5.4695   5.5119
     5.5856   5.6117   5.6285   5.6463   5.6626   5.6895   5.7308   5.7385
     5.7898   5.8069   5.8532   5.8793   5.8850   5.9665   5.9943   5.9986
     6.0068   6.0540   6.0624   6.1116   6.1385   6.1802   6.2241   6.2526
     6.2925   6.3210   6.3350   6.3633   6.3862   6.4443   6.4599   6.4909
     6.5081   6.5215   6.5635   6.6194   6.6205   6.6319   6.6699   6.6710
     6.7265   6.7359   6.7635   6.7664   6.7866   6.8131   6.8343   6.8419
     6.8994   6.9131   6.9163   6.9530   6.9541   6.9732   7.0060   7.0417
     7.0441   7.0608   7.0994   7.1150   7.1387   7.1715   7.1883   7.2098
     7.2273   7.2605   7.2984   7.3145   7.3220   7.3668   7.3925   7.4267
     7.4839   7.4910   7.5030   7.5349   7.5366   7.5449   7.5980   7.6039
     7.6192   7.6355   7.6779   7.7418   7.7565   7.7571   7.7970   7.8061
     7.8222   7.8482   7.8840   7.9001   7.9283   7.9354   7.9662   7.9704
     8.0439   8.0469   8.0768   8.0978   8.1491   8.1576   8.1597   8.1672
     8.1764   8.1836   8.2069   8.2451   8.2600   8.2837   8.2921   8.3378
     8.3438   8.3830   8.4080   8.4217   8.4249   8.4486   8.4740   8.5155
     8.5305   8.5624   8.5659   8.5684   8.6093   8.6353   8.6370   8.6639
     8.6744   8.6884   8.7303   8.7327   8.7711   8.7782   8.8026   8.8241
     8.8283   8.8338   8.8664   8.8828   8.9206   8.9278   8.9582   8.9684
     8.9773   8.9982   9.0207   9.0255   9.0551   9.0704   9.0819   9.0936
     9.1001   9.1050   9.1198   9.1387   9.1614   9.1762   9.1972   9.2193
     9.2419   9.2819   9.3318   9.3431   9.3894   9.4158   9.4461   9.4697
     9.4791   9.5369   9.5839   9.6029   9.6163   9.6482   9.6832   9.7133
     9.7581   9.7685   9.7827   9.8197   9.8316   9.8408   9.8662   9.8852
     9.9100   9.9582   9.9606   9.9759   9.9802   9.9936  10.0363  10.0683
    10.0903  10.1027  10.1137  10.1585  10.1723  10.2033  10.2304  10.2493
    10.2624  10.2854  10.3076  10.3171  10.3224  10.3375  10.3612  10.3710
    10.3795  10.4170  10.4372  10.4569  10.4661  10.4783  10.5328  10.5358
    10.5509  10.5710  10.6251  10.6265  10.6645  10.6844  10.6922  10.7085
    10.7237  10.7510  10.7831  10.7902  10.7991  10.8330  10.8639  10.8769
    10.9057  10.9259  10.9402  10.9690  10.9736  11.0031  11.0179  11.0749
    11.0982  11.0988  11.1309  11.1516  11.1533  11.1622  11.2223  11.2229
    11.2505  11.2832  11.3003  11.3143  11.3268  11.3423  11.3632  11.3754
    11.4070  11.4264  11.4476  11.4489  11.5019  11.5079  11.5874  11.6067
    11.6094  11.6392  11.7152  11.7271

          k = 0.0000 0.0000 0.0369 (112482 PWs)   bands (ev):

   -21.6607 -21.5810 -21.0795 -20.9326 -20.4113 -20.3421 -20.1796 -19.9609
   -19.7920 -19.6423 -19.1468 -18.8105 -18.7024 -18.4537 -18.0124 -17.9257
   -17.8339 -17.5457 -17.3662 -17.3304 -17.2596 -17.0863 -16.7230 -16.5810
   -16.1536 -15.9010 -15.1522 -15.0250 -14.6757 -14.5783 -14.4749 -14.4042
   -14.2403 -14.1180 -13.8008 -13.6211 -13.5049 -13.3880 -12.8931 -12.7590
   -12.5653 -12.3946 -12.2068 -12.1125 -11.5250 -11.2941 -11.1216 -11.0577
   -10.9088 -10.8303 -10.5796 -10.4518 -10.1280 -10.0658 -10.0543  -9.9156
    -9.8981  -9.8246  -9.7104  -9.6991  -9.6242  -9.5244  -9.3774  -9.2928
    -9.0713  -9.0413  -8.9936  -8.9062  -8.8889  -8.8663  -8.6941  -8.6621
    -8.4784  -8.4448  -8.3407  -8.2311  -8.2211  -8.1563  -8.0521  -8.0308
    -7.8131  -7.7920  -7.7816  -7.7046  -7.5290  -7.4050  -7.2504  -7.1318
    -7.0591  -6.9001  -6.8803  -6.5431  -6.4143  -6.3960  -6.2794  -6.1409
    -6.1308  -6.0957  -5.6363  -5.5742  -5.4726  -5.3003  -5.1682  -4.9586
    -4.8455  -4.7249  -4.5524  -4.2320  -3.5151  -3.4122  -1.6023  -1.5177
    -0.9127  -0.7713  -0.3524  -0.2681  -0.1947  -0.1031   0.0403   0.2763
     0.3797   0.5333   0.7554   0.7930   0.8096   0.8647   1.0860   1.1218
     1.2405   1.4083   1.4239   1.4744   1.5785   1.6394   1.7688   1.9164
     1.9639   2.0039   2.2084   2.2682   2.2992   2.3109   2.3202   2.3420
     2.3543   2.4374   2.4631   2.4751   2.5618   2.6655   2.7236   2.7493
     2.7619   2.7719   2.7951   2.8653   2.8789   2.9411   2.9764   3.0131
     3.1239   3.1638   3.1985   3.2232   3.2399   3.2824   3.3464   3.3777
     3.4041   3.4964   3.5525   3.5665   3.5939   3.6008   3.6353   3.6682
     3.7279   3.7910   3.8097   3.8408   3.8503   3.8962   3.9407   3.9705
     3.9749   4.0510   4.0684   4.1299   4.1704   4.1743   4.2059   4.2741
     4.3411   4.3615   4.3815   4.4164   4.4385   4.4588   4.4716   4.5484
     4.5692   4.5993   4.6254   4.6450   4.6759   4.7042   4.7498   4.7788
     4.8184   4.8752   4.8861   4.8926   4.9420   4.9474   4.9720   4.9916
     5.0073   5.0092   5.0406   5.1361   5.1582   5.1876   5.2756   5.2866
     5.3161   5.3790   5.3942   5.4194   5.4766   5.4919   5.5036   5.5040
     5.5843   5.5916   5.6430   5.6527   5.6585   5.6711   5.7168   5.7295
     5.7604   5.7897   5.8630   5.8815   5.8932   5.9881   5.9910   5.9975
     6.0270   6.0612   6.0985   6.1033   6.1195   6.1758   6.2230   6.2479
     6.2755   6.3105   6.3460   6.3468   6.3760   6.4496   6.4672   6.5227
     6.5355   6.5433   6.5878   6.6127   6.6393   6.6537   6.6675   6.7010
     6.7102   6.7315   6.7474   6.7597   6.7615   6.7940   6.8160   6.8606
     6.8915   6.8986   6.9128   6.9322   6.9418   6.9577   7.0100   7.0202
     7.0421   7.0847   7.0938   7.1230   7.1400   7.1797   7.2001   7.2260
     7.2406   7.2470   7.2714   7.3089   7.3270   7.3818   7.3910   7.4456
     7.4620   7.4904   7.5105   7.5181   7.5283   7.5523   7.5830   7.6374
     7.6462   7.6487   7.6842   7.7283   7.7509   7.7536   7.7777   7.7950
     7.8169   7.8358   7.9109   7.9366   7.9453   7.9486   7.9831   8.0002
     8.0423   8.0670   8.0809   8.0820   8.0998   8.1347   8.1560   8.1798
     8.1844   8.1918   8.2220   8.2342   8.2459   8.2822   8.3097   8.3113
     8.3336   8.3623   8.3868   8.3944   8.4044   8.4475   8.4518   8.5047
     8.5261   8.5545   8.5691   8.5956   8.6287   8.6571   8.6636   8.6879
     8.6944   8.7035   8.7271   8.7495   8.7578   8.7875   8.8138   8.8244
     8.8520   8.8650   8.8701   8.8963   8.9170   8.9269   8.9452   8.9542
     8.9605   8.9726   9.0248   9.0349   9.0376   9.0666   9.0715   9.0818
     9.0866   9.0881   9.1249   9.1357   9.1453   9.1669   9.1975   9.2008
     9.2296   9.2636   9.2968   9.3244   9.3999   9.4069   9.4755   9.4921
     9.4959   9.5379   9.5807   9.5909   9.6055   9.6399   9.6682   9.7142
     9.7246   9.7780   9.7931   9.8317   9.8337   9.8547   9.8599   9.9042
     9.9356   9.9735   9.9740   9.9790   9.9914  10.0224  10.0473  10.0544
    10.0587  10.1003  10.1168  10.1328  10.1479  10.1909  10.2023  10.2536
    10.2704  10.2909  10.2985  10.3106  10.3278  10.3402  10.3737  10.3896
    10.3899  10.4019  10.4270  10.4362  10.4502  10.4632  10.5321  10.5461
    10.5583  10.5850  10.6257  10.6351  10.6749  10.6798  10.6987  10.7015
    10.7172  10.7612  10.7811  10.7970  10.7970  10.8350  10.8661  10.8910
    10.9105  10.9294  10.9362  10.9447  10.9480  10.9942  11.0060  11.0660
    11.1132  11.1161  11.1229  11.1530  11.1577  11.1611  11.2172  11.2239
    11.2520  11.2608  11.2987  11.3207  11.3352  11.3437  11.3801  11.3970
    11.4075  11.4316  11.4321  11.4520  11.4804  11.4852  11.5817  11.6139
    11.6167  11.6507  11.7005  11.7473

          k = 0.0000 0.0000-0.0384 (112454 PWs)   bands (ev):

   -21.6589 -21.5833 -21.0787 -20.9338 -20.3851 -20.3674 -20.1803 -19.9613
   -19.7856 -19.6497 -19.1454 -18.8100 -18.7035 -18.4554 -17.9820 -17.9404
   -17.8485 -17.5444 -17.3428 -17.3141 -17.3019 -17.0864 -16.7215 -16.5790
   -16.1559 -15.9016 -15.1511 -15.0277 -14.6738 -14.5662 -14.4738 -14.4144
   -14.1830 -14.1777 -13.8016 -13.6199 -13.4558 -13.4388 -12.8928 -12.7569
   -12.5637 -12.3989 -12.2083 -12.1115 -11.5262 -11.2916 -11.1069 -11.0719
   -10.9054 -10.8316 -10.5837 -10.4514 -10.1075 -10.0750 -10.0378  -9.9218
    -9.9162  -9.7822  -9.7555  -9.6962  -9.6276  -9.5263  -9.3478  -9.3230
    -9.0680  -9.0402  -8.9969  -8.8964  -8.8905  -8.8760  -8.6827  -8.6707
    -8.4753  -8.4477  -8.3279  -8.2349  -8.1934  -8.1914  -8.0521  -8.0332
    -7.8088  -7.7927  -7.7753  -7.7158  -7.5164  -7.4185  -7.2462  -7.1319
    -7.0602  -6.9012  -6.8791  -6.5408  -6.4169  -6.3848  -6.2896  -6.1327
    -6.1241  -6.1119  -5.6313  -5.5317  -5.5181  -5.2990  -5.1712  -4.9270
    -4.8761  -4.7251  -4.5510  -4.2319  -3.5039  -3.4247  -1.5899  -1.5277
    -0.9147  -0.7721  -0.3494  -0.2600  -0.1755  -0.1324   0.0425   0.2719
     0.4258   0.4859   0.7609   0.7947   0.8055   0.8604   1.0979   1.1092
     1.2445   1.4057   1.4301   1.4676   1.5831   1.6339   1.7766   1.9192
     1.9559   2.0009   2.2100   2.2748   2.3100   2.3130   2.3238   2.3392
     2.3514   2.4449   2.4493   2.4609   2.5664   2.6594   2.7335   2.7514
     2.7620   2.7848   2.8119   2.8215   2.8840   2.9348   2.9799   3.0126
     3.1642   3.1694   3.1826   3.2016   3.2442   3.3142   3.3316   3.3542
     3.3986   3.4965   3.5641   3.5696   3.5946   3.5954   3.6275   3.6839
     3.7047   3.7933   3.8193   3.8396   3.8400   3.8993   3.9522   3.9675
     4.0037   4.0201   4.0729   4.1327   4.1837   4.1854   4.1865   4.2570
     4.3462   4.3563   4.4023   4.4144   4.4251   4.4804   4.5113   4.5198
     4.5768   4.5932   4.6219   4.6225   4.6733   4.6950   4.7563   4.7974
     4.8106   4.8635   4.8764   4.9243   4.9385   4.9396   4.9710   4.9858
     4.9962   5.0012   5.0363   5.1440   5.1559   5.1898   5.2785   5.3097
     5.3266   5.3532   5.3822   5.4147   5.4802   5.4946   5.5203   5.5349
     5.5522   5.5871   5.6327   5.6565   5.6571   5.7107   5.7119   5.7135
     5.7269   5.7898   5.8705   5.8761   5.8994   5.9874   5.9927   6.0009
     6.0357   6.0693   6.0914   6.1006   6.1270   6.2081   6.2133   6.2295
     6.2465   6.3282   6.3285   6.3527   6.3747   6.4569   6.4574   6.5229
     6.5531   6.5775   6.5974   6.6140   6.6479   6.6600   6.6709   6.6797
     6.7156   6.7258   6.7278   6.7590   6.7614   6.7695   6.8416   6.8760
     6.8865   6.8916   6.8918   6.9291   6.9328   6.9592   6.9982   7.0199
     7.0417   7.0918   7.1019   7.1152   7.1503   7.1849   7.1889   7.2276
     7.2416   7.2580   7.2876   7.2939   7.3069   7.3890   7.4091   7.4416
     7.4575   7.4967   7.4986   7.5011   7.5414   7.5580   7.5685   7.6516
     7.6615   7.6837   7.6866   7.6890   7.7488   7.7585   7.7627   7.7861
     7.8129   7.8357   7.9242   7.9414   7.9545   7.9786   7.9864   8.0214
     8.0442   8.0468   8.0668   8.0740   8.1022   8.1242   8.1367   8.1960
     8.2043   8.2080   8.2124   8.2331   8.2380   8.2915   8.2928   8.3025
     8.3292   8.3513   8.3885   8.3898   8.4116   8.4163   8.4505   8.4983
     8.5285   8.5488   8.5719   8.6177   8.6262   8.6686   8.6754   8.6781
     8.7056   8.7159   8.7208   8.7487   8.7731   8.8067   8.8175   8.8245
     8.8537   8.8581   8.8767   8.8809   8.9139   8.9203   8.9486   8.9559
     8.9912   8.9941   8.9982   9.0175   9.0179   9.0463   9.0620   9.0712
     9.0886   9.1040   9.1252   9.1407   9.1558   9.1632   9.1833   9.1919
     9.2274   9.2662   9.2912   9.3011   9.4020   9.4108   9.4724   9.5048
     9.5214   9.5514   9.5543   9.5772   9.6114   9.6437   9.6638   9.6906
     9.7286   9.7737   9.8056   9.8313   9.8379   9.8425   9.8826   9.9128
     9.9279   9.9701   9.9821  10.0031  10.0064  10.0277  10.0326  10.0447
    10.0583  10.0946  10.1263  10.1294  10.1310  10.1813  10.1940  10.2528
    10.2594  10.2928  10.3016  10.3067  10.3392  10.3519  10.3807  10.3886
    10.4020  10.4079  10.4098  10.4118  10.4465  10.4589  10.5333  10.5526
    10.5583  10.5983  10.6136  10.6398  10.6781  10.6849  10.6856  10.6919
    10.7554  10.7578  10.7762  10.7860  10.8005  10.8363  10.8670  10.8840
    10.9137  10.9353  10.9359  10.9374  10.9483  10.9906  10.9970  11.0574
    11.1170  11.1242  11.1275  11.1467  11.1583  11.1781  11.1968  11.2230
    11.2500  11.2567  11.2991  11.3216  11.3358  11.3567  11.3789  11.4079
    11.4231  11.4244  11.4265  11.4586  11.4621  11.4740  11.5785  11.6163
    11.6188  11.6626  11.6848  11.7504

     the Fermi energy is    -2.6194 ev

     Writing output data file C_2Z_2A_W9.save/

     init_run     :     15.03s CPU     15.61s WALL (       1 calls)
     electrons    :   8146.68s CPU   8238.09s WALL (       1 calls)

     Called by init_run:
     wfcinit      :      0.00s CPU      0.01s WALL (       1 calls)
     potinit      :      1.06s CPU      1.17s WALL (       1 calls)
     hinit0       :     11.03s CPU     11.20s WALL (       1 calls)

     Called by electrons:
     c_bands      :   8146.66s CPU   8237.90s WALL (       1 calls)
     v_of_rho     :      0.81s CPU      0.86s WALL (       1 calls)
     newd         :      0.63s CPU      0.84s WALL (       1 calls)

     Called by c_bands:
     init_us_2    :      0.81s CPU      0.92s WALL (      26 calls)
     cegterg      :   7965.60s CPU   8046.54s WALL (      83 calls)

     Called by sum_band:

     Called by *egterg:
     h_psi        :   2401.50s CPU   2437.61s WALL (    1445 calls)
     s_psi        :    234.87s CPU    236.45s WALL (    1445 calls)
     g_psi        :     12.72s CPU     12.77s WALL (    1336 calls)
     cdiaghg      :   2768.69s CPU   2779.06s WALL (    1362 calls)

     Called by h_psi:
     h_psi:pot    :   2385.01s CPU   2415.55s WALL (    1445 calls)
     h_psi:calbec :    230.69s CPU    234.18s WALL (    1445 calls)
     vloc_psi     :   1917.24s CPU   1942.82s WALL (    1445 calls)
     add_vuspsi   :    237.06s CPU    238.52s WALL (    1445 calls)

     General routines
     calbec       :    230.68s CPU    234.14s WALL (    1445 calls)
     fft          :      0.90s CPU      1.00s WALL (      14 calls)
     ffts         :      0.01s CPU      0.01s WALL (       1 calls)
     fftw         :   1515.73s CPU   1536.08s WALL (  538134 calls)
     interpolate  :      0.06s CPU      0.06s WALL (       1 calls)
     davcio       :      0.00s CPU      7.63s WALL (      52 calls)

     Parallel routines
     fft_scatt_xy :    247.49s CPU    249.96s WALL (  538149 calls)
     fft_scatt_yz :    247.45s CPU    253.27s WALL (  538149 calls)

     PWSCF        :     2h16m CPU       16h 2m WALL

      22h

   This run was terminated on:   2: 8:39  29Apr2021            

=------------------------------------------------------------------------------=
   JOB DONE.
=------------------------------------------------------------------------------=
