
     Program PWSCF v.6.3 starts on 28Apr2021 at 22:59:27 

     This program is part of the open-source Quantum ESPRESSO suite
     for quantum simulation of materials; please cite
         "P. Giannozzi et al., J. Phys.:Condens. Matter 21 395502 (2009);
         "P. Giannozzi et al., J. Phys.:Condens. Matter 29 465901 (2017);
          URL http://www.quantum-espresso.org", 
     in publications or presentations arising from this work. More details at
     http://www.quantum-espresso.org/quote

     Parallel version (MPI), running on    16 processors
     R & G space division:  proc/nbgrp/npool/nimage =      16
     Waiting for input...
     Reading input from standard input
     Message from routine read_cards :
     DEPRECATED: no units specified in CELL_PARAMETERS card

     Current dimensions of program PWSCF are:
     Max number of different atomic species (ntypx) = 10
     Max number of k-points (npk) =  40000
     Max angular momentum in pseudopotentials (lmaxx) =  3

     Atomic positions and unit cell read from directory:
     /home/zfwang/scratch/GNRDATASET/AGNR/C_2Z_2A_W7/C_2Z_2A_W7.save/


     Subspace diagonalization in iterative solution of the eigenvalue problem:
     a serial algorithm will be used


     Parallelization info
     --------------------
     sticks:   dense  smooth     PW     G-vecs:    dense   smooth      PW
     Min        2556     852    221               292339    56256    7469
     Max        2558     853    222               292343    56259    7472
     Sum       40909   13645   3551              4677435   900119  119529



     bravais-lattice index     =            0
     lattice parameter (alat)  =       1.8897  a.u.
     unit-cell volume          =   26338.7495 (a.u.)^3
     number of atoms/cell      =           52
     number of atomic types    =            2
     number of electrons       =       172.00
     number of Kohn-Sham states=          500
     kinetic-energy cutoff     =      40.0000  Ry
     charge density cutoff     =     480.0000  Ry
     Exchange-correlation      = PBE ( 1  4  3  4 0 0)

     celldm(1)=  18.897261  celldm(2)=   3.000000  celldm(3)=   1.301000
     celldm(4)=   0.000000  celldm(5)=   0.000000  celldm(6)=   0.000000

     crystal axes: (cart. coord. in units of alat)
               a(1) = (  10.000000   0.000000   0.000000 )  
               a(2) = (   0.000000  30.000000   0.000000 )  
               a(3) = (   0.000000   0.000000  13.010000 )  

     reciprocal axes: (cart. coord. in units 2 pi/alat)
               b(1) = (  0.100000  0.000000  0.000000 )  
               b(2) = (  0.000000  0.033333  0.000000 )  
               b(3) = (  0.000000  0.000000  0.076864 )  


     PseudoPot. # 1 for C  read from file:
     /home/zfwang/hp_home/MySoftware/qe-6.3/pseudo/C.pbe-n-rrkjus_psl.0.1.UPF
     MD5 check sum: fff530ed632a789b3b184014e67dd7f1
     Pseudo is Ultrasoft + core correction, Zval =  4.0
     Generated using "atomic" code by A. Dal Corso v.5.0.2 svn rev. 9415
     Using radial grid of 1073 points,  4 beta functions with: 
                l(1) =   0
                l(2) =   0
                l(3) =   1
                l(4) =   1
     Q(r) pseudized with 0 coefficients 


     PseudoPot. # 2 for H  read from file:
     /home/zfwang/hp_home/MySoftware/qe-6.3/pseudo/H.pbe-rrkjus_psl.0.1.UPF
     MD5 check sum: e164a6907b691c6980f16942be34de84
     Pseudo is Ultrasoft, Zval =  1.0
     Generated using "atomic" code by A. Dal Corso v.5.0.2 svn rev. 9415
     Using radial grid of  929 points,  2 beta functions with: 
                l(1) =   0
                l(2) =   0
     Q(r) pseudized with 0 coefficients 


     atomic species   valence    mass     pseudopotential
        C              4.00    12.01070     C ( 1.00)
        H              1.00     1.00794     H ( 1.00)

     No symmetry found



   Cartesian axes

     site n.     atom                  positions (alat units)
         1           C   tau(   1) = (   5.0000004  10.8350158   3.7022775  )
         2           C   tau(   2) = (   4.9999992  11.6575089   7.9085131  )
         3           C   tau(   3) = (   5.0000001  12.4821425  12.0895317  )
         4           C   tau(   4) = (   5.0000002  11.8988883   2.7560452  )
         5           C   tau(   5) = (   4.9999998  12.6996483   6.9556411  )
         6           C   tau(   6) = (   4.9999998  13.5118934  11.1651280  )
         7           C   tau(   7) = (   5.0000007  13.2490707   3.2400492  )
         8           C   tau(   8) = (   4.9999998  14.0477752   7.4240365  )
         9           C   tau(   9) = (   5.0000000  14.8725041  11.6233322  )
        10           C   tau(  10) = (   5.0000004  11.0892741   5.0416837  )
        11           C   tau(  11) = (   4.9999991  11.9227484   9.2494303  )
        12           C   tau(  12) = (   5.0000001  11.6628503   1.3846930  )
        13           C   tau(  13) = (   5.0000005  12.4228588   5.5518862  )
        14           C   tau(  14) = (   4.9999994  13.2470683   9.7416195  )
        15           C   tau(  15) = (   5.0000008  14.3256358   2.3210838  )
        16           C   tau(  16) = (   5.0000001  15.1271567   6.4972963  )
        17           C   tau(  17) = (   4.9999999  15.9519139  10.6964692  )
        18           C   tau(  18) = (   5.0000009  15.6738363   2.7897754  )
        19           C   tau(  19) = (   4.9999998  16.4876671   6.9555213  )
        20           C   tau(  20) = (   5.0000001  17.3000734  11.1650139  )
        21           C   tau(  21) = (   5.0000002  12.7201599   0.4638378  )
        22           C   tau(  22) = (   5.0000010  13.5026620   4.6383707  )
        23           C   tau(  23) = (   4.9999995  14.3172316   8.8263918  )
        24           C   tau(  24) = (   5.0000005  14.0723705   0.9319391  )
        25           C   tau(  25) = (   5.0000005  14.8555322   5.1092743  )
        26           C   tau(  26) = (   4.9999996  15.6821949   9.2941224  )
        27           C   tau(  27) = (   5.0000006  16.7504527   1.8708913  )
        28           C   tau(  28) = (   4.9999997  17.5173806   6.0311928  )
        29           C   tau(  29) = (   5.0000000  18.3423377  10.2121670  )
        30           C   tau(  30) = (   5.0000004  18.1006644   2.3549020  )
        31           C   tau(  31) = (   5.0000002  15.1439927  13.0114794  )
        32           C   tau(  32) = (   5.0000007  15.9270494   4.1788928  )
        33           C   tau(  33) = (   4.9999996  16.7523679   8.3789950  )
        34           C   tau(  34) = (   5.0000003  17.5767333  12.5689489  )
        35           C   tau(  35) = (   5.0000004  16.4969018   0.4724592  )
        36           C   tau(  36) = (   5.0000003  17.2791861   4.6469877  )
        37           C   tau(  37) = (   4.9999999  18.0766424   8.8712999  )
        38           C   tau(  38) = (   5.0000001  18.9103827   0.0691291  )
        39           C   tau(  39) = (   5.0000003  19.1645759   1.4085841  )
        40           C   tau(  40) = (   5.0000002  18.3365951   3.7262815  )
        41           H   tau(  41) = (   5.0000006   9.8072271   3.3351019  )
        42           H   tau(  42) = (   4.9999989  10.6195735   7.5849841  )
        43           H   tau(  43) = (   4.9999997  11.4419445  11.7691807  )
        44           H   tau(  44) = (   5.0000004  10.2470349   5.7295785  )
        45           H   tau(  45) = (   4.9999980  11.0819768   9.9388415  )
        46           H   tau(  46) = (   5.0000000  10.6346459   1.0152882  )
        47           H   tau(  47) = (   4.9999993  18.5575949   6.3513026  )
        48           H   tau(  48) = (   4.9999998  19.3803926  10.5354976  )
        49           H   tau(  49) = (   4.9999993  18.9172103   8.1817782  )
        50           H   tau(  50) = (   4.9999999  19.7524208  12.3909143  )
        51           H   tau(  51) = (   5.0000002  20.1923909   1.7757316  )
        52           H   tau(  52) = (   5.0000000  19.3646784   4.0958664  )

     number of k points=    26  Marzari-Vanderbilt smearing, width (Ry)=  0.0100
                       cart. coord. in units 2pi/alat
        k(    1) = (   0.0000000   0.0000000   0.0000000), wk =   0.0400000
        k(    2) = (   0.0000000   0.0000000   0.0015373), wk =   0.0800000
        k(    3) = (   0.0000000   0.0000000   0.0030746), wk =   0.0800000
        k(    4) = (   0.0000000   0.0000000   0.0046118), wk =   0.0800000
        k(    5) = (   0.0000000   0.0000000   0.0061491), wk =   0.0800000
        k(    6) = (   0.0000000   0.0000000   0.0076864), wk =   0.0800000
        k(    7) = (   0.0000000   0.0000000   0.0092237), wk =   0.0800000
        k(    8) = (   0.0000000   0.0000000   0.0107610), wk =   0.0800000
        k(    9) = (   0.0000000   0.0000000   0.0122982), wk =   0.0800000
        k(   10) = (   0.0000000   0.0000000   0.0138355), wk =   0.0800000
        k(   11) = (   0.0000000   0.0000000   0.0153728), wk =   0.0800000
        k(   12) = (   0.0000000   0.0000000   0.0169101), wk =   0.0800000
        k(   13) = (   0.0000000   0.0000000   0.0184473), wk =   0.0800000
        k(   14) = (   0.0000000   0.0000000   0.0199846), wk =   0.0800000
        k(   15) = (   0.0000000   0.0000000   0.0215219), wk =   0.0800000
        k(   16) = (   0.0000000   0.0000000   0.0230592), wk =   0.0800000
        k(   17) = (   0.0000000   0.0000000   0.0245965), wk =   0.0800000
        k(   18) = (   0.0000000   0.0000000   0.0261337), wk =   0.0800000
        k(   19) = (   0.0000000   0.0000000   0.0276710), wk =   0.0800000
        k(   20) = (   0.0000000   0.0000000   0.0292083), wk =   0.0800000
        k(   21) = (   0.0000000   0.0000000   0.0307456), wk =   0.0800000
        k(   22) = (   0.0000000   0.0000000   0.0322829), wk =   0.0800000
        k(   23) = (   0.0000000   0.0000000   0.0338201), wk =   0.0800000
        k(   24) = (   0.0000000   0.0000000   0.0353574), wk =   0.0800000
        k(   25) = (   0.0000000   0.0000000   0.0368947), wk =   0.0800000
        k(   26) = (   0.0000000   0.0000000  -0.0384320), wk =   0.0400000

     Dense  grid:  4677435 G-vectors     FFT dimensions: ( 135, 400, 180)

     Smooth grid:   900119 G-vectors     FFT dimensions: (  80, 240, 100)

     Estimated max dynamical RAM per process >    1012.79 MB

     Estimated total dynamical RAM >      15.82 GB

     The potential is recalculated from file :
     /home/zfwang/scratch/GNRDATASET/AGNR/C_2Z_2A_W7/C_2Z_2A_W7.save/charge-density.dat


     negative rho (up, down):  3.158E-04 0.000E+00
     Starting wfcs are  172 randomized atomic wfcs +  328 random wfcs

     Band Structure Calculation
     Davidson diagonalization with overlap

     ethr =  5.81E-09,  avg # of iterations = 52.8

     total cpu time spent up to now is     7468.9 secs

     End of band structure calculation

          k = 0.0000 0.0000 0.0000 (112509 PWs)   bands (ev):

   -21.8965 -21.2681 -21.2620 -20.9546 -20.3367 -20.2903 -19.5918 -19.3932
   -19.3788 -18.8623 -18.8225 -18.5216 -18.2648 -17.8405 -17.3310 -17.2454
   -17.0803 -16.7355 -16.5173 -16.1607 -15.4186 -15.3560 -15.0295 -14.9608
   -14.6703 -14.5608 -14.4823 -13.3925 -13.2292 -12.8384 -12.8243 -12.4924
   -12.3830 -12.1904 -12.1051 -12.0383 -11.5258 -11.4011 -11.1408 -10.9912
   -10.7213 -10.4907 -10.2878 -10.0601  -9.9558  -9.8788  -9.8245  -9.7637
    -9.4406  -9.3365  -9.2105  -9.2094  -9.1414  -9.0263  -8.9712  -8.8937
    -8.8377  -8.7178  -8.6145  -8.5915  -8.2992  -8.2044  -8.1681  -8.1381
    -7.8522  -7.7677  -7.6582  -7.4112  -7.3743  -7.1642  -7.1460  -7.0452
    -7.0417  -6.5758  -6.5612  -6.3111  -6.1910  -6.1236  -5.9243  -5.7307
    -5.1433  -4.9547  -4.8237  -4.6279  -4.1054  -3.2431  -2.3513  -1.4167
    -1.1588  -0.8333  -0.7466  -0.7427  -0.2678   0.3150   0.3693   0.4958
     0.6751   0.7169   0.9369   1.0879   1.1346   1.1551   1.1585   1.1759
     1.1860   1.2772   1.4976   1.5431   1.5762   1.6140   1.7553   1.7834
     1.7984   1.8761   1.9739   2.0465   2.1027   2.1194   2.1243   2.2382
     2.2534   2.3098   2.3637   2.3709   2.4501   2.5825   2.6130   2.6573
     2.6888   2.6957   2.7701   2.7721   2.7794   2.9854   3.0138   3.0206
     3.0599   3.1226   3.1884   3.1892   3.2089   3.2096   3.2788   3.2881
     3.3111   3.3259   3.3647   3.3752   3.4242   3.4365   3.4427   3.4520
     3.5038   3.5460   3.5593   3.5760   3.6706   3.6765   3.7011   3.7936
     4.0273   4.0292   4.0657   4.0876   4.0942   4.1220   4.1465   4.1933
     4.2211   4.2668   4.2936   4.3134   4.3201   4.3736   4.3737   4.3828
     4.3989   4.3995   4.4630   4.5012   4.5852   4.6399   4.6796   4.7081
     4.7780   4.8024   4.8311   4.9042   4.9107   4.9642   5.0307   5.0307
     5.0460   5.1372   5.1503   5.1615   5.1933   5.2693   5.2950   5.3310
     5.3406   5.3411   5.3623   5.3788   5.4069   5.4398   5.4581   5.4922
     5.5340   5.5637   5.5711   5.6379   5.6746   5.6968   5.7198   5.7986
     5.7991   5.8073   5.8108   5.8229   5.8614   5.8785   5.8897   5.8973
     5.9104   5.9204   5.9785   5.9787   5.9797   6.0594   6.0602   6.1204
     6.1435   6.1724   6.1766   6.2006   6.2318   6.2523   6.2535   6.3087
     6.3395   6.3470   6.4667   6.4829   6.6112   6.6352   6.6512   6.6746
     6.6873   6.7024   6.7036   6.7082   6.7216   6.7265   6.7329   6.8047
     6.8066   6.8163   6.8502   6.8762   6.8817   6.8971   6.9028   6.9110
     6.9217   6.9326   6.9928   7.0085   7.0211   7.0229   7.0469   7.1017
     7.1871   7.2219   7.2594   7.2837   7.3137   7.3374   7.3484   7.3512
     7.3718   7.3903   7.4336   7.4439   7.5149   7.5331   7.5855   7.6206
     7.6437   7.6522   7.6674   7.6842   7.6934   7.6952   7.7432   7.7779
     7.8029   7.8287   7.8449   7.8745   7.9004   7.9070   7.9171   7.9676
     7.9751   7.9817   7.9960   8.0573   8.0606   8.1036   8.1058   8.1159
     8.1455   8.1558   8.2005   8.2088   8.2140   8.2420   8.2704   8.2952
     8.2993   8.3264   8.3460   8.3754   8.4232   8.4366   8.4387   8.4839
     8.4849   8.5603   8.5920   8.6535   8.6663   8.6787   8.7012   8.7557
     8.7659   8.7912   8.8003   8.8116   8.8202   8.8469   8.8702   8.8810
     8.8838   8.9384   8.9613   9.0266   9.0572   9.0640   9.1032   9.1089
     9.1157   9.1471   9.1614   9.1650   9.1866   9.2012   9.2280   9.2413
     9.2657   9.2706   9.2975   9.3235   9.3645   9.3898   9.3972   9.4101
     9.4398   9.4930   9.4980   9.5256   9.5546   9.5674   9.5995   9.6138
     9.6541   9.6887   9.7276   9.7312   9.7920   9.8154   9.8253   9.8462
     9.8510   9.8538   9.9038   9.9227   9.9426   9.9568   9.9756  10.0056
    10.0172  10.0368  10.0771  10.1086  10.1215  10.1356  10.1763  10.1819
    10.1884  10.2247  10.2305  10.2554  10.2562  10.2664  10.2804  10.2885
    10.3202  10.3213  10.3444  10.3809  10.3943  10.3988  10.4316  10.4322
    10.4437  10.4745  10.5001  10.5304  10.5384  10.5630  10.5637  10.5972
    10.6108  10.6389  10.6572  10.6844  10.6847  10.6935  10.7054  10.7302
    10.7331  10.7342  10.7891  10.7965  10.7975  10.8066  10.8072  10.8627
    10.8753  10.8969  10.9029  10.9879  10.9889  10.9969  11.0029  11.0231
    11.0405  11.0423  11.0441  11.0442  11.0557  11.0961  11.1011  11.1073
    11.1182  11.1366  11.1377  11.1543  11.2022  11.2429  11.2526  11.2547
    11.2765  11.3358  11.3438  11.4042  11.4440  11.4578  11.4779  11.5086
    11.5357  11.5430  11.5730  11.5857  11.6065  11.6211  11.6418  11.6707
    11.6833  11.6972  11.7340  11.7442  11.7761  11.7826  11.7892  11.8014
    11.8335  11.8836  11.8917  11.8942  11.9090  11.9095  11.9313  11.9457
    11.9727  11.9758  12.0204  12.0722

          k = 0.0000 0.0000 0.0015 (112527 PWs)   bands (ev):

   -21.8962 -21.2886 -21.2412 -20.9543 -20.3447 -20.2818 -19.5937 -19.4252
   -19.3449 -18.8687 -18.8161 -18.5254 -18.2596 -17.8404 -17.3372 -17.2405
   -17.0796 -16.7422 -16.5165 -16.1563 -15.4398 -15.3325 -15.0341 -14.9564
   -14.6740 -14.5627 -14.4757 -13.3959 -13.2312 -12.8365 -12.8227 -12.4985
   -12.3837 -12.2086 -12.0959 -12.0210 -11.5374 -11.3922 -11.1394 -10.9922
   -10.7200 -10.4885 -10.2899 -10.0599  -9.9555  -9.8784  -9.8452  -9.7415
    -9.4433  -9.3340  -9.2375  -9.1821  -9.1437  -9.0288  -8.9733  -8.8932
    -8.8398  -8.7162  -8.6135  -8.5903  -8.3038  -8.1988  -8.1825  -8.1233
    -7.8557  -7.7680  -7.6540  -7.4115  -7.3741  -7.1882  -7.1218  -7.0926
    -6.9942  -6.5886  -6.5479  -6.3117  -6.1915  -6.1306  -5.9182  -5.7288
    -5.1460  -4.9550  -4.8220  -4.6293  -4.1057  -3.2446  -2.3496  -1.4180
    -1.1553  -0.8337  -0.7685  -0.7192  -0.2681   0.3153   0.3696   0.4826
     0.6872   0.7172   0.9371   1.0793   1.1094   1.1389   1.1823   1.1843
     1.2025   1.2806   1.4950   1.5411   1.5620   1.6317   1.7525   1.7617
     1.8151   1.8820   1.9443   2.0776   2.0826   2.1117   2.1525   2.2408
     2.2515   2.3102   2.3485   2.3870   2.4527   2.5826   2.6054   2.6466
     2.6929   2.7005   2.7658   2.7757   2.7898   2.9661   3.0163   3.0345
     3.0548   3.1302   3.1544   3.2083   3.2106   3.2239   3.2643   3.2772
     3.3024   3.3384   3.3737   3.3749   3.4208   3.4269   3.4489   3.4597
     3.5072   3.5414   3.5615   3.5779   3.6541   3.6816   3.7220   3.8009
     4.0047   4.0269   4.0508   4.0764   4.0967   4.1254   4.1728   4.1957
     4.2352   4.2510   4.2769   4.3236   4.3266   4.3379   4.3565   4.3804
     4.4105   4.4544   4.4748   4.5016   4.5857   4.6362   4.6427   4.7276
     4.7582   4.8086   4.8595   4.8715   4.9421   4.9660   5.0141   5.0288
     5.0629   5.1166   5.1300   5.1578   5.2333   5.2628   5.3000   5.3162
     5.3346   5.3347   5.3618   5.3914   5.4048   5.4358   5.4849   5.4891
     5.5104   5.5622   5.5905   5.6266   5.6654   5.6974   5.7424   5.7486
     5.7798   5.8023   5.8081   5.8465   5.8716   5.8779   5.8878   5.8959
     5.9070   5.9481   5.9541   5.9983   6.0083   6.0393   6.0849   6.0883
     6.1415   6.1538   6.1724   6.2149   6.2495   6.2591   6.2735   6.3102
     6.3446   6.3563   6.4645   6.4828   6.5965   6.6264   6.6399   6.6617
     6.6715   6.6721   6.6843   6.7070   6.7204   6.7652   6.7812   6.7822
     6.7977   6.8301   6.8376   6.8753   6.8839   6.8964   6.9027   6.9048
     6.9264   6.9436   6.9928   7.0022   7.0344   7.0469   7.0606   7.1088
     7.1894   7.2198   7.2572   7.2841   7.2980   7.3277   7.3588   7.3701
     7.3710   7.3883   7.4294   7.4441   7.5026   7.5345   7.5897   7.6120
     7.6158   7.6605   7.6734   7.6886   7.6938   7.7307   7.7352   7.7640
     7.8044   7.8319   7.8412   7.8618   7.8830   7.8914   7.9366   7.9610
     7.9788   7.9997   8.0093   8.0282   8.0676   8.0943   8.1093   8.1393
     8.1434   8.1636   8.1674   8.2029   8.2107   8.2529   8.2829   8.2842
     8.3013   8.3360   8.3524   8.3760   8.4153   8.4397   8.4495   8.4796
     8.5132   8.5514   8.5819   8.6319   8.6732   8.6889   8.6911   8.7135
     8.7582   8.7891   8.8111   8.8158   8.8229   8.8602   8.8713   8.8921
     8.8964   8.9137   8.9913   9.0254   9.0513   9.0572   9.0969   9.1026
     9.1053   9.1097   9.1606   9.1728   9.2016   9.2027   9.2202   9.2590
     9.2637   9.2905   9.2990   9.3335   9.3693   9.3912   9.3942   9.4250
     9.4378   9.4919   9.4997   9.5321   9.5487   9.5563   9.5989   9.6124
     9.6719   9.6842   9.7205   9.7247   9.7825   9.8037   9.8218   9.8297
     9.8535   9.8590   9.8935   9.9280   9.9585   9.9638   9.9797   9.9925
     9.9972  10.0396  10.1007  10.1078  10.1149  10.1522  10.1543  10.1673
    10.1976  10.2063  10.2084  10.2300  10.2410  10.2520  10.2795  10.3151
    10.3247  10.3297  10.3495  10.3629  10.3867  10.4055  10.4304  10.4502
    10.4619  10.5064  10.5254  10.5386  10.5442  10.5523  10.5653  10.6025
    10.6032  10.6221  10.6325  10.6787  10.6846  10.7054  10.7214  10.7235
    10.7317  10.7645  10.7815  10.7830  10.8031  10.8055  10.8282  10.8655
    10.8824  10.9035  10.9084  10.9243  10.9682  10.9778  10.9964  10.9965
    11.0109  11.0175  11.0677  11.0709  11.0809  11.0990  11.1077  11.1239
    11.1247  11.1447  11.1784  11.1796  11.2040  11.2340  11.2497  11.2551
    11.2755  11.3454  11.3529  11.4074  11.4345  11.4509  11.4802  11.5173
    11.5203  11.5532  11.5684  11.5926  11.6029  11.6126  11.6379  11.6709
    11.6863  11.7050  11.7062  11.7609  11.7731  11.7749  11.7871  11.7942
    11.8450  11.8545  11.8723  11.9004  11.9056  11.9301  11.9513  11.9625
    11.9821  12.0016  12.0294  12.0699

          k = 0.0000 0.0000 0.0031 (112495 PWs)   bands (ev):

   -21.8955 -21.3115 -21.2173 -20.9534 -20.3611 -20.2643 -19.6004 -19.4599
   -19.3042 -18.8819 -18.8032 -18.5358 -18.2450 -17.8402 -17.3526 -17.2291
   -17.0774 -16.7612 -16.5144 -16.1439 -15.4745 -15.2910 -15.0452 -14.9459
   -14.6844 -14.5660 -14.4589 -13.4059 -13.2372 -12.8315 -12.8177 -12.5158
   -12.3866 -12.2432 -12.0797 -11.9777 -11.5649 -11.3728 -11.1353 -10.9944
   -10.7161 -10.4819 -10.2961 -10.0602  -9.9546  -9.8827  -9.8733  -9.7027
    -9.4505  -9.3272  -9.2647  -9.1541  -9.1504  -9.0360  -8.9793  -8.8917
    -8.8456  -8.7117  -8.6107  -8.5871  -8.3144  -8.2054  -8.1848  -8.0989
    -7.8654  -7.7687  -7.6425  -7.4128  -7.3735  -7.2190  -7.1411  -7.0904
    -6.9456  -6.6058  -6.5292  -6.3137  -6.1929  -6.1491  -5.9027  -5.7226
    -5.1538  -4.9557  -4.8175  -4.6335  -4.1066  -3.2492  -2.3445  -1.4215
    -1.1450  -0.8356  -0.7893  -0.6928  -0.2689   0.3163   0.3706   0.4502
     0.7158   0.7182   0.9378   1.0594   1.0763   1.1128   1.1958   1.2196
     1.2285   1.2912   1.4854   1.5347   1.5442   1.6622   1.7322   1.7428
     1.8295   1.9000   1.9012   2.0515   2.1105   2.1244   2.1855   2.2458
     2.2513   2.3114   2.3339   2.4039   2.4613   2.5826   2.5876   2.6255
     2.6970   2.7102   2.7617   2.7864   2.8106   2.9357   3.0214   3.0233
     3.0758   3.1207   3.1419   3.2055   3.2136   3.2414   3.2524   3.2596
     3.2832   3.3583   3.3663   3.3960   3.4026   3.4354   3.4474   3.4782
     3.4999   3.5444   3.5632   3.5811   3.6396   3.6976   3.7546   3.8203
     3.9617   4.0146   4.0254   4.0350   4.1242   4.1512   4.1605   4.2222
     4.2397   4.2533   4.2572   4.2768   4.3060   4.3454   4.3763   4.3985
     4.4437   4.4640   4.5029   4.5348   4.5859   4.5871   4.6359   4.6939
     4.7663   4.8303   4.8356   4.9006   4.9614   4.9727   5.0126   5.0229
     5.0579   5.0720   5.1321   5.1638   5.2522   5.2574   5.2894   5.3016
     5.3262   5.3296   5.3737   5.4036   5.4173   5.4302   5.4817   5.4841
     5.5297   5.5373   5.6014   5.6301   5.6660   5.6802   5.7022   5.7516
     5.7582   5.7697   5.8087   5.8220   5.8704   5.8946   5.8980   5.9168
     5.9293   5.9499   5.9861   5.9958   6.0291   6.0481   6.0635   6.0973
     6.1035   6.1502   6.1753   6.2413   6.2723   6.2747   6.3051   6.3174
     6.3723   6.3786   6.4579   6.4834   6.5677   6.5766   6.5940   6.6360
     6.6514   6.6564   6.6903   6.7044   6.7345   6.7440   6.7596   6.8033
     6.8264   6.8297   6.8388   6.8671   6.8691   6.8871   6.9156   6.9399
     6.9424   6.9435   7.0010   7.0327   7.0387   7.0689   7.1165   7.1261
     7.1959   7.2137   7.2516   7.2717   7.2840   7.3216   7.3595   7.3741
     7.3904   7.4026   7.4179   7.4457   7.4710   7.5307   7.5941   7.5989
     7.6108   7.6308   7.6769   7.6987   7.7240   7.7308   7.7418   7.7742
     7.8018   7.8154   7.8230   7.8300   7.8892   7.8892   7.9187   7.9617
     7.9833   7.9963   8.0297   8.0357   8.0717   8.0838   8.1174   8.1193
     8.1347   8.1619   8.1820   8.1884   8.2106   8.2385   8.2841   8.3072
     8.3107   8.3479   8.3773   8.3777   8.4127   8.4431   8.4596   8.4831
     8.5183   8.5674   8.5746   8.6055   8.6201   8.6684   8.7034   8.7123
     8.7598   8.7730   8.7780   8.8210   8.8283   8.8498   8.8845   8.9120
     8.9123   8.9377   8.9510   9.0401   9.0470   9.0658   9.0810   9.0914
     9.0971   9.1064   9.1541   9.1692   9.1867   9.1941   9.2085   9.2595
     9.2712   9.3253   9.3368   9.3679   9.3729   9.3894   9.4132   9.4359
     9.4460   9.4877   9.5027   9.5206   9.5505   9.5634   9.5859   9.6125
     9.6701   9.6836   9.7081   9.7212   9.7680   9.7860   9.7901   9.8091
     9.8338   9.8576   9.9298   9.9334   9.9438   9.9561   9.9711  10.0046
    10.0055  10.0463  10.0732  10.0895  10.1001  10.1329  10.1438  10.1443
    10.1658  10.2015  10.2118  10.2250  10.2430  10.2492  10.2797  10.2808
    10.3006  10.3069  10.3465  10.3737  10.4110  10.4451  10.4640  10.4870
    10.4894  10.5108  10.5269  10.5298  10.5442  10.5754  10.5895  10.5905
    10.6119  10.6193  10.6582  10.6617  10.6913  10.7033  10.7119  10.7270
    10.7426  10.7596  10.7609  10.8051  10.8118  10.8289  10.8419  10.8649
    10.8744  10.8886  10.8967  10.9074  10.9130  10.9378  10.9773  10.9823
    11.0008  11.0218  11.0542  11.0778  11.1050  11.1068  11.1090  11.1374
    11.1596  11.1846  11.1997  11.2145  11.2247  11.2373  11.2524  11.2588
    11.2960  11.3589  11.3889  11.4046  11.4245  11.4388  11.4849  11.5023
    11.5230  11.5546  11.5637  11.5740  11.6058  11.6249  11.6263  11.6486
    11.6817  11.6834  11.7269  11.7402  11.7568  11.7723  11.8010  11.8029
    11.8193  11.8615  11.8832  11.8854  11.9038  11.9479  11.9889  11.9970
    12.0026  12.0359  12.0619  12.0710

          k = 0.0000 0.0000 0.0046 (112455 PWs)   bands (ev):

   -21.8944 -21.3341 -21.1932 -20.9517 -20.3794 -20.2441 -19.6136 -19.4886
   -19.2635 -18.8964 -18.7891 -18.5503 -18.2230 -17.8400 -17.3727 -17.2158
   -17.0738 -16.7902 -16.5117 -16.1259 -15.5075 -15.2465 -15.0593 -14.9327
   -14.6996 -14.5678 -14.4364 -13.4218 -13.2469 -12.8264 -12.8077 -12.5413
   -12.3939 -12.2760 -12.0611 -11.9224 -11.5991 -11.3524 -11.1291 -10.9963
   -10.7097 -10.4715 -10.3057 -10.0633  -9.9532  -9.9127  -9.8721  -9.6616
    -9.4605  -9.3178  -9.2916  -9.1615  -9.1261  -9.0475  -8.9890  -8.8891
    -8.8541  -8.7050  -8.6062  -8.5835  -8.3256  -8.2290  -8.1670  -8.0730
    -7.8796  -7.7694  -7.6262  -7.4152  -7.3723  -7.2493  -7.1884  -7.0586
    -6.8984  -6.6217  -6.5102  -6.3170  -6.1951  -6.1741  -5.8832  -5.7114
    -5.1662  -4.9566  -4.8114  -4.6397  -4.1082  -3.2567  -2.3362  -1.4269
    -1.1285  -0.8417  -0.8044  -0.6654  -0.2704   0.3180   0.3723   0.4086
     0.7199   0.7502   0.9386   1.0352   1.0446   1.0856   1.2085   1.2555
     1.2568   1.3088   1.4666   1.5220   1.5348   1.6945   1.7029   1.7248
     1.8375   1.8678   1.9272   2.0205   2.1091   2.1591   2.2183   2.2360
     2.2766   2.3137   2.3253   2.4161   2.4761   2.5664   2.5801   2.6043
     2.6976   2.7191   2.7587   2.8035   2.8370   2.9044   2.9962   3.0341
     3.0882   3.1045   3.1451   3.1920   3.2174   3.2188   3.2339   3.2671
     3.2956   3.3474   3.3735   3.3939   3.4238   3.4387   3.4461   3.4799
     3.4990   3.5451   3.5567   3.5976   3.6463   3.7223   3.7879   3.8469
     3.9120   3.9805   3.9919   4.0261   4.1215   4.1602   4.1856   4.1912
     4.2008   4.2399   4.2757   4.2767   4.3027   4.3664   4.4087   4.4237
     4.4674   4.4763   4.5066   4.5326   4.5894   4.5984   4.6215   4.6633
     4.7645   4.8060   4.8510   4.9345   4.9500   4.9969   5.0004   5.0139
     5.0385   5.0678   5.1519   5.1619   5.2323   5.2463   5.2533   5.2811
     5.3402   5.3701   5.3704   5.4100   5.4147   5.4365   5.4777   5.4846
     5.5019   5.5712   5.5872   5.6202   5.6543   5.6726   5.7019   5.7086
     5.7408   5.7493   5.7743   5.8512   5.8519   5.9016   5.9018   5.9333
     5.9475   5.9807   5.9829   6.0158   6.0168   6.0429   6.0632   6.1022
     6.1329   6.1546   6.1989   6.2350   6.2938   6.3095   6.3306   6.3330
     6.4063   6.4199   6.4471   6.4894   6.5170   6.5247   6.5497   6.6050
     6.6325   6.6532   6.6811   6.6845   6.7015   6.7470   6.7614   6.7959
     6.7985   6.8274   6.8393   6.8577   6.8974   6.9099   6.9262   6.9594
     6.9737   6.9809   7.0085   7.0343   7.0869   7.1018   7.1478   7.1694
     7.2051   7.2075   7.2439   7.2488   7.2805   7.3208   7.3450   7.3910
     7.3918   7.4013   7.4359   7.4403   7.4488   7.5210   7.5731   7.5898
     7.6202   7.6300   7.6561   7.6866   7.7256   7.7305   7.7597   7.7817
     7.7865   7.7986   7.8215   7.8227   7.8689   7.8995   7.9215   7.9404
     7.9689   7.9994   8.0309   8.0523   8.0643   8.0885   8.1006   8.1133
     8.1487   8.1488   8.1662   8.2058   8.2264   8.2441   8.2796   8.3107
     8.3446   8.3573   8.3808   8.3901   8.4184   8.4501   8.4609   8.4805
     8.4976   8.5450   8.5813   8.6019   8.6212   8.6599   8.6781   8.7134
     8.7424   8.7736   8.7794   8.8092   8.8135   8.8441   8.8575   8.8727
     8.9374   8.9458   9.0036   9.0164   9.0337   9.0537   9.0785   9.0829
     9.1007   9.1316   9.1515   9.1635   9.1684   9.2052   9.2053   9.2442
     9.2827   9.3362   9.3647   9.3747   9.3978   9.4244   9.4369   9.4422
     9.4567   9.4711   9.5146   9.5265   9.5499   9.5767   9.5795   9.6022
     9.6513   9.6699   9.6969   9.7125   9.7339   9.7542   9.7919   9.7980
     9.8369   9.8432   9.9092   9.9300   9.9431   9.9665   9.9673   9.9811
    10.0283  10.0387  10.0425  10.0580  10.0585  10.1109  10.1110  10.1341
    10.1622  10.1696  10.2144  10.2307  10.2312  10.2558  10.2655  10.2783
    10.2926  10.3065  10.3630  10.3895  10.4289  10.4532  10.4702  10.4897
    10.5010  10.5140  10.5328  10.5479  10.5558  10.5775  10.5950  10.6040
    10.6388  10.6622  10.6774  10.6796  10.6818  10.7105  10.7132  10.7237
    10.7363  10.7508  10.7630  10.7833  10.7881  10.8120  10.8426  10.8479
    10.8702  10.8809  10.8946  10.9207  10.9227  10.9341  10.9560  10.9822
    11.0145  11.0377  11.0414  11.0772  11.1018  11.1181  11.1234  11.1327
    11.1741  11.1978  11.2002  11.2320  11.2556  11.2557  11.2752  11.2794
    11.3553  11.3903  11.3925  11.4139  11.4356  11.4485  11.4800  11.4915
    11.5250  11.5323  11.5438  11.5528  11.5824  11.6148  11.6412  11.6465
    11.6685  11.6956  11.7037  11.7379  11.7457  11.7690  11.7895  11.8085
    11.8464  11.8568  11.8890  11.9084  11.9235  11.9621  11.9982  12.0213
    12.0291  12.0553  12.0650  12.0879

          k = 0.0000 0.0000 0.0061 (112409 PWs)   bands (ev):

   -21.8928 -21.3563 -21.1689 -20.9494 -20.3982 -20.2228 -19.6351 -19.5092
   -19.2241 -18.9102 -18.7759 -18.5659 -18.1961 -17.8395 -17.3952 -17.2031
   -17.0687 -16.8265 -16.5088 -16.1054 -15.5351 -15.2025 -15.0736 -14.9189
   -14.7170 -14.5671 -14.4110 -13.4428 -13.2600 -12.8247 -12.7922 -12.5710
   -12.4089 -12.2995 -12.0404 -11.8622 -11.6349 -11.3357 -11.1230 -10.9946
   -10.7012 -10.4581 -10.3178 -10.0726  -9.9512  -9.9375  -9.8673  -9.6214
    -9.4710  -9.3180  -9.3074  -9.1766  -9.0982  -9.0629  -9.0019  -8.8852
    -8.8641  -8.6974  -8.5999  -8.5818  -8.3334  -8.2524  -8.1481  -8.0464
    -7.8964  -7.7701  -7.6076  -7.4197  -7.3708  -7.2781  -7.2334  -7.0269
    -6.8545  -6.6346  -6.4917  -6.3216  -6.2019  -6.1984  -5.8642  -5.6942
    -5.1824  -4.9576  -4.8056  -4.6468  -4.1103  -3.2670  -2.3248  -1.4333
    -1.1069  -0.8546  -0.8110  -0.6372  -0.2724   0.3203   0.3629   0.3746
     0.7223   0.7835   0.9393   1.0101   1.0169   1.0582   1.2182   1.2869
     1.2911   1.3317   1.4419   1.5006   1.5323   1.6713   1.7008   1.7304
     1.8426   1.8481   1.9589   1.9904   2.1066   2.1756   2.2227   2.2501
     2.3115   2.3241   2.3241   2.4243   2.4920   2.5484   2.5665   2.5948
     2.6958   2.7262   2.7567   2.8236   2.8660   2.8736   2.9706   3.0436
     3.0610   3.1153   3.1503   3.1634   3.1891   3.2237   3.2288   3.2694
     3.3199   3.3332   3.3852   3.3909   3.4248   3.4548   3.4571   3.4574
     3.5021   3.5389   3.5622   3.6268   3.6700   3.7524   3.8144   3.8655
     3.8770   3.9463   3.9573   4.0194   4.0994   4.1328   4.1601   4.1845
     4.2029   4.2460   4.2474   4.2930   4.3408   4.3959   4.4383   4.4428
     4.4653   4.4984   4.5103   4.5229   4.5699   4.5928   4.6529   4.6748
     4.7413   4.7973   4.8502   4.9273   4.9377   4.9861   4.9977   5.0178
     5.0517   5.0932   5.1488   5.1813   5.1895   5.2242   5.2477   5.2551
     5.3350   5.3611   5.3823   5.4239   5.4320   5.4334   5.4696   5.4887
     5.5119   5.5526   5.5773   5.6102   5.6338   5.6681   5.6751   5.7129
     5.7184   5.7440   5.7721   5.8188   5.8594   5.8921   5.9058   5.9368
     5.9650   5.9799   5.9862   6.0093   6.0414   6.0512   6.0786   6.1472
     6.1592   6.1752   6.2184   6.2465   6.3077   6.3180   6.3446   6.3885
     6.4194   6.4312   6.4515   6.4709   6.4806   6.5130   6.5202   6.5724
     6.6137   6.6320   6.6493   6.6659   6.6902   6.7121   6.7770   6.7937
     6.8012   6.8056   6.8328   6.8450   6.9123   6.9237   6.9664   6.9863
     6.9965   7.0188   7.0234   7.0647   7.1298   7.1383   7.1677   7.1791
     7.2131   7.2139   7.2376   7.2595   7.2715   7.3260   7.3406   7.3476
     7.4095   7.4105   7.4283   7.4537   7.4698   7.5114   7.5509   7.5633
     7.6201   7.6285   7.6400   7.6718   7.7038   7.7424   7.7452   7.7600
     7.7795   7.7914   7.8221   7.8336   7.8710   7.8983   7.9195   7.9465
     7.9715   7.9798   8.0148   8.0182   8.0597   8.0838   8.1135   8.1261
     8.1532   8.1586   8.1779   8.2080   8.2258   8.2754   8.2797   8.3227
     8.3415   8.3582   8.3767   8.3867   8.4190   8.4565   8.4641   8.4720
     8.5145   8.5366   8.5609   8.6136   8.6222   8.6491   8.6791   8.6939
     8.7314   8.7668   8.7809   8.7822   8.7962   8.8108   8.8466   8.8631
     8.9594   8.9848   8.9912   9.0184   9.0244   9.0512   9.0533   9.0637
     9.0874   9.1218   9.1550   9.1703   9.1964   9.1987   9.2215   9.2696
     9.2989   9.3437   9.3614   9.3911   9.4102   9.4271   9.4310   9.4481
     9.4521   9.5057   9.5075   9.5396   9.5486   9.5884   9.5943   9.6002
     9.6392   9.6501   9.6768   9.6883   9.7091   9.7532   9.7841   9.8010
     9.8176   9.8423   9.8947   9.8993   9.9147   9.9320   9.9510   9.9590
    10.0087  10.0275  10.0519  10.0569  10.0771  10.0872  10.0996  10.1066
    10.1107  10.1563  10.1639  10.2129  10.2188  10.2750  10.2881  10.2979
    10.3095  10.3487  10.3590  10.3862  10.4139  10.4222  10.4897  10.4905
    10.5247  10.5300  10.5366  10.5532  10.5582  10.5766  10.5957  10.6267
    10.6337  10.6648  10.6654  10.6792  10.6957  10.7111  10.7181  10.7316
    10.7362  10.7542  10.7757  10.7807  10.8018  10.8051  10.8249  10.8482
    10.8600  10.8844  10.9100  10.9201  10.9397  10.9458  10.9811  10.9892
    11.0193  11.0251  11.0582  11.0894  11.1056  11.1230  11.1296  11.1429
    11.1638  11.2017  11.2116  11.2472  11.2548  11.2709  11.3166  11.3228
    11.3722  11.3976  11.4210  11.4297  11.4523  11.4779  11.4804  11.4839
    11.5078  11.5120  11.5375  11.5517  11.5525  11.6128  11.6178  11.6571
    11.6778  11.7009  11.7074  11.7127  11.7310  11.7697  11.8050  11.8266
    11.8372  11.8920  11.8987  11.9187  11.9525  11.9731  12.0031  12.0205
    12.0374  12.0480  12.0886  12.1095

          k = 0.0000 0.0000 0.0077 (112391 PWs)   bands (ev):

   -21.8907 -21.3780 -21.1445 -20.9462 -20.4168 -20.2009 -19.6644 -19.5218
   -19.1876 -18.9217 -18.7650 -18.5800 -18.1659 -17.8389 -17.4188 -17.1923
   -17.0627 -16.8676 -16.5061 -16.0858 -15.5550 -15.1631 -15.0849 -14.9054
   -14.7342 -14.5643 -14.3843 -13.4681 -13.2761 -12.8289 -12.7722 -12.6003
   -12.4323 -12.3117 -12.0189 -11.8018 -11.6681 -11.3240 -11.1204 -10.9853
   -10.6909 -10.4427 -10.3316 -10.0905  -9.9525  -9.9486  -9.8605  -9.5855
    -9.4790  -9.3439  -9.2976  -9.1947  -9.0818  -9.0707  -9.0169  -8.8799
    -8.8743  -8.6902  -8.5917  -8.5839  -8.3352  -8.2753  -8.1297  -8.0193
    -7.9144  -7.7708  -7.5890  -7.4278  -7.3701  -7.3030  -7.2744  -6.9954
    -6.8172  -6.6411  -6.4743  -6.3274  -6.2296  -6.2025  -5.8482  -5.6705
    -5.2018  -4.9586  -4.8028  -4.6530  -4.1131  -3.2799  -2.3105  -1.4401
    -1.0809  -0.8711  -0.8118  -0.6085  -0.2750   0.3154   0.3233   0.3776
     0.7253   0.8090   0.9383   0.9866   0.9975   1.0312   1.2255   1.3184
     1.3251   1.3574   1.4157   1.4692   1.5333   1.6414   1.6778   1.7655
     1.8389   1.8467   1.9610   1.9935   2.1021   2.1807   2.2096   2.2757
     2.3180   2.3328   2.3698   2.4307   2.4924   2.5470   2.5489   2.5947
     2.6936   2.7321   2.7558   2.8362   2.8490   2.8955   2.9492   3.0214
     3.0688   3.0944   3.1283   3.1547   3.1757   3.2259   3.2349   3.2855
     3.2935   3.3650   3.3862   3.3965   3.4118   3.4365   3.4630   3.4809
     3.4940   3.5342   3.5900   3.6606   3.7003   3.7855   3.7898   3.8682
     3.9082   3.9143   3.9245   4.0052   4.0685   4.0863   4.1295   4.1786
     4.2163   4.2194   4.2793   4.3116   4.3608   4.3914   4.4376   4.4746
     4.4982   4.5084   4.5162   4.5317   4.5554   4.5972   4.6469   4.7104
     4.7368   4.8029   4.8335   4.8783   4.9183   4.9751   5.0056   5.0331
     5.0719   5.1357   5.1373   5.1469   5.1968   5.2013   5.2344   5.2571
     5.2925   5.3512   5.3700   5.4223   5.4482   5.4500   5.4605   5.5053
     5.5067   5.5574   5.5637   5.5842   5.6064   5.6430   5.6867   5.6962
     5.7246   5.7557   5.7765   5.7900   5.8566   5.8769   5.8809   5.9221
     5.9803   5.9957   6.0046   6.0115   6.0458   6.0789   6.1403   6.1444
     6.2107   6.2185   6.2188   6.2745   6.3024   6.3470   6.3503   6.3819
     6.3921   6.4231   6.4616   6.4712   6.4747   6.4904   6.5471   6.5720
     6.5801   6.5985   6.6367   6.6587   6.6763   6.6775   6.7761   6.7821
     6.7933   6.8008   6.8436   6.8510   6.9184   6.9310   6.9767   6.9950
     7.0275   7.0549   7.0732   7.1104   7.1511   7.1684   7.1699   7.1832
     7.2120   7.2128   7.2327   7.2749   7.2950   7.3136   7.3401   7.3532
     7.4042   7.4294   7.4354   7.4614   7.5019   7.5034   7.5285   7.5390
     7.5809   7.5976   7.6434   7.6678   7.6907   7.7240   7.7365   7.7392
     7.7638   7.7822   7.8147   7.8567   7.8770   7.9030   7.9218   7.9348
     7.9610   7.9909   7.9927   8.0060   8.0555   8.0735   8.0990   8.1444
     8.1693   8.1826   8.1831   8.2096   8.2453   8.2502   8.2926   8.3102
     8.3408   8.3532   8.3882   8.3932   8.4059   8.4577   8.4664   8.4900
     8.5242   8.5479   8.5661   8.5934   8.6293   8.6368   8.6692   8.6746
     8.6886   8.7295   8.7672   8.7801   8.7983   8.8279   8.8417   8.8812
     8.9475   8.9828   9.0004   9.0009   9.0226   9.0296   9.0447   9.0464
     9.0984   9.1158   9.1329   9.1905   9.2004   9.2061   9.2386   9.3145
     9.3270   9.3381   9.3777   9.3807   9.4033   9.4219   9.4313   9.4541
     9.4674   9.4719   9.4767   9.5689   9.5730   9.5733   9.5820   9.6018
     9.6287   9.6605   9.6872   9.6948   9.7106   9.7509   9.7620   9.7788
     9.8073   9.8158   9.8416   9.8442   9.9066   9.9243   9.9330   9.9740
     9.9930  10.0086  10.0354  10.0405  10.0544  10.0711  10.0932  10.1048
    10.1111  10.1315  10.1384  10.1958  10.2063  10.2845  10.2910  10.3234
    10.3384  10.3481  10.3563  10.3824  10.4183  10.4299  10.4553  10.5070
    10.5151  10.5258  10.5446  10.5548  10.5560  10.5773  10.5807  10.6025
    10.6077  10.6512  10.6523  10.6679  10.7139  10.7259  10.7307  10.7335
    10.7499  10.7815  10.7864  10.7935  10.8135  10.8278  10.8450  10.8686
    10.8709  10.8971  10.9077  10.9263  10.9631  10.9724  10.9812  11.0062
    11.0190  11.0237  11.0749  11.0882  11.1086  11.1232  11.1629  11.1640
    11.1779  11.2088  11.2213  11.2473  11.2629  11.2836  11.3217  11.3620
    11.3771  11.3957  11.4075  11.4401  11.4566  11.4635  11.4807  11.4965
    11.5026  11.5248  11.5531  11.5799  11.5834  11.5930  11.6218  11.6454
    11.6587  11.6861  11.7160  11.7299  11.7535  11.7745  11.7955  11.8377
    11.8582  11.9088  11.9113  11.9308  11.9573  11.9772  12.0038  12.0115
    12.0476  12.0494  12.1031  12.1127

          k = 0.0000 0.0000 0.0092 (112387 PWs)   bands (ev):

   -21.8882 -21.3993 -21.1204 -20.9420 -20.4351 -20.1787 -19.6987 -19.5289
   -19.1564 -18.9287 -18.7576 -18.5901 -18.1338 -17.8380 -17.4430 -17.1837
   -17.0572 -16.9103 -16.5038 -16.0704 -15.5649 -15.1406 -15.0828 -14.8922
   -14.7486 -14.5595 -14.3572 -13.4970 -13.2948 -12.8427 -12.7488 -12.6238
   -12.4612 -12.3154 -11.9985 -11.7553 -11.6839 -11.3172 -11.1238 -10.9661
   -10.6792 -10.4270 -10.3459 -10.1153  -9.9592  -9.9455  -9.8517  -9.5609
    -9.4775  -9.3693  -9.2906  -9.2141  -9.1041  -9.0441  -9.0331  -8.8842
    -8.8728  -8.6850  -8.5919  -8.5799  -8.3298  -8.2977  -8.1129  -7.9919
    -7.9323  -7.7717  -7.5728  -7.4422  -7.3746  -7.3184  -7.3085  -6.9642
    -6.7925  -6.6360  -6.4588  -6.3347  -6.2547  -6.2075  -5.8359  -5.6408
    -5.2235  -4.9594  -4.8057  -4.6563  -4.1164  -3.2952  -2.2936  -1.4468
    -1.0517  -0.8876  -0.8099  -0.5793  -0.2783   0.2672   0.3269   0.3812
     0.7290   0.8192   0.9313   0.9691   0.9930   1.0050   1.2316   1.3504
     1.3510   1.3753   1.3987   1.4349   1.5363   1.6123   1.6608   1.8000
     1.8359   1.8509   1.9345   2.0282   2.0951   2.1804   2.1983   2.2915
     2.3224   2.3540   2.4101   2.4368   2.4745   2.5356   2.5696   2.5963
     2.6937   2.7370   2.7558   2.8112   2.8520   2.9229   2.9400   2.9923
     3.0632   3.0867   3.0933   3.1203   3.1966   3.2282   3.2506   3.2665
     3.3052   3.3680   3.3802   3.4081   3.4196   3.4259   3.4518   3.4788
     3.5289   3.5329   3.6231   3.6964   3.7185   3.7535   3.8205   3.8759
     3.8921   3.9053   3.9386   3.9779   4.0189   4.0691   4.0997   4.1654
     4.1933   4.2331   4.3165   4.3296   4.3342   4.3819   4.4631   4.4803
     4.4936   4.5292   4.5390   4.5609   4.5902   4.6040   4.6295   4.6914
     4.7733   4.8125   4.8197   4.8327   4.9120   4.9446   4.9888   5.0633
     5.0952   5.1092   5.1337   5.1656   5.1699   5.1995   5.2371   5.2428
     5.2884   5.3169   5.3569   5.4102   5.4199   5.4437   5.4883   5.4951
     5.5149   5.5554   5.5640   5.5650   5.6057   5.6383   5.6780   5.7092
     5.7170   5.7263   5.7960   5.7966   5.8198   5.8499   5.8833   5.9428
     5.9811   5.9940   5.9993   6.0340   6.0841   6.1080   6.1535   6.1990
     6.2187   6.2385   6.2735   6.2886   6.2994   6.3142   6.3347   6.3634
     6.3955   6.4224   6.4315   6.4705   6.4989   6.5123   6.5378   6.5419
     6.5769   6.6247   6.6378   6.6580   6.6589   6.6658   6.7542   6.7587
     6.7916   6.8134   6.8581   6.8641   6.9295   6.9299   6.9805   6.9948
     7.0622   7.0867   7.1130   7.1332   7.1537   7.1691   7.1800   7.2017
     7.2229   7.2299   7.2300   7.2413   7.3096   7.3516   7.3641   7.3809
     7.4004   7.4442   7.4483   7.4655   7.4986   7.5006   7.5208   7.5253
     7.5604   7.5614   7.5981   7.6776   7.6844   7.6943   7.7119   7.7139
     7.7504   7.8012   7.8240   7.8621   7.8721   7.8994   7.9154   7.9164
     7.9468   7.9868   8.0212   8.0235   8.0501   8.0624   8.0828   8.1330
     8.1567   8.1897   8.2060   8.2081   8.2325   8.2681   8.2786   8.3331
     8.3345   8.3655   8.3871   8.3939   8.4210   8.4384   8.4678   8.5168
     8.5188   8.5545   8.5550   8.5958   8.6147   8.6239   8.6448   8.6664
     8.6798   8.7230   8.7407   8.7604   8.8034   8.8426   8.8608   8.9148
     8.9152   8.9536   8.9852   8.9865   9.0084   9.0315   9.0327   9.0603
     9.0974   9.1102   9.1394   9.1771   9.2116   9.2424   9.2608   9.3064
     9.3197   9.3425   9.3455   9.3876   9.3882   9.4323   9.4372   9.4520
     9.4627   9.4730   9.5114   9.5422   9.5438   9.5585   9.5872   9.6208
     9.6299   9.6411   9.6906   9.7016   9.7060   9.7413   9.7550   9.7679
     9.7692   9.7990   9.8152   9.8412   9.8879   9.9108   9.9481   9.9499
     9.9890   9.9963   9.9992  10.0165  10.0494  10.0520  10.0690  10.0938
    10.1091  10.1313  10.1456  10.1856  10.2097  10.2648  10.2791  10.3228
    10.3459  10.3540  10.3662  10.4034  10.4133  10.4330  10.4383  10.4698
    10.4816  10.5102  10.5282  10.5401  10.5458  10.5525  10.5763  10.6148
    10.6348  10.6412  10.6492  10.6774  10.6999  10.7286  10.7340  10.7604
    10.7673  10.7789  10.8064  10.8087  10.8366  10.8487  10.8729  10.8751
    10.8905  10.9156  10.9224  10.9487  10.9810  10.9936  11.0140  11.0146
    11.0321  11.0385  11.0624  11.0826  11.1217  11.1619  11.1802  11.1841
    11.2051  11.2177  11.2214  11.2560  11.2724  11.2799  11.3076  11.3555
    11.3813  11.3869  11.4068  11.4614  11.4710  11.4711  11.4743  11.4842
    11.5082  11.5347  11.5522  11.5772  11.6078  11.6325  11.6327  11.6462
    11.6693  11.6976  11.7347  11.7511  11.7643  11.7808  11.7932  11.8498
    11.8578  11.9233  11.9333  11.9362  11.9473  11.9721  11.9950  12.0201
    12.0568  12.0574  12.0930  12.1145

          k = 0.0000 0.0000 0.0108 (112393 PWs)   bands (ev):

   -21.8852 -21.4201 -21.0967 -20.9367 -20.4529 -20.1565 -19.7357 -19.5327
   -19.1337 -18.9288 -18.7544 -18.5942 -18.1006 -17.8367 -17.4672 -17.1774
   -17.0567 -16.9496 -16.5021 -16.0615 -15.5630 -15.1436 -15.0615 -14.8785
   -14.7579 -14.5530 -14.3303 -13.5288 -13.3154 -12.8684 -12.7228 -12.6382
   -12.4921 -12.3142 -11.9815 -11.7586 -11.6451 -11.3144 -11.1323 -10.9382
   -10.6668 -10.4135 -10.3590 -10.1424  -9.9614  -9.9418  -9.8409  -9.5551
    -9.4599  -9.3942  -9.2910  -9.2299  -9.1295  -9.0488  -9.0188  -8.8933
    -8.8634  -8.6834  -8.6028  -8.5662  -8.3195  -8.3178  -8.0991  -7.9643
    -7.9487  -7.7729  -7.5608  -7.4658  -7.3891  -7.3329  -7.3178  -6.9332
    -6.7846  -6.6160  -6.4463  -6.3432  -6.2747  -6.2135  -5.8270  -5.6063
    -5.2470  -4.9602  -4.8162  -4.6552  -4.1202  -3.3124  -2.2745  -1.4532
    -1.0213  -0.9013  -0.8067  -0.5497  -0.2823   0.2190   0.3312   0.3856
     0.7334   0.8103   0.9138   0.9604   0.9819   1.0063   1.2370   1.3360
     1.3553   1.3846   1.4207   1.4315   1.5401   1.5847   1.6500   1.8277
     1.8364   1.8594   1.9123   2.0595   2.0887   2.1776   2.1908   2.3001
     2.3272   2.3831   2.4250   2.4429   2.4531   2.5449   2.5962   2.5977
     2.7003   2.7399   2.7567   2.7834   2.8419   2.9410   2.9483   2.9686
     3.0275   3.0608   3.0864   3.1068   3.2106   3.2319   3.2406   3.2743
     3.3241   3.3516   3.3603   3.4122   3.4248   3.4373   3.4547   3.4899
     3.5345   3.5664   3.6444   3.6882   3.7332   3.7771   3.8480   3.8568
     3.8613   3.9181   3.9476   3.9664   3.9829   4.0529   4.0713   4.1587
     4.1704   4.2392   4.2818   4.3480   4.3576   4.3899   4.4357   4.5000
     4.5087   4.5593   4.5619   4.5912   4.6070   4.6252   4.6310   4.6873
     4.7622   4.7682   4.8036   4.8779   4.9064   4.9174   4.9723   5.0600
     5.0770   5.1202   5.1315   5.1431   5.1679   5.1903   5.2220   5.2594
     5.2804   5.3200   5.3449   5.3549   5.4144   5.4339   5.4531   5.4946
     5.5222   5.5332   5.5719   5.5890   5.6427   5.6572   5.6629   5.6631
     5.6969   5.7602   5.7666   5.7901   5.8209   5.8420   5.8995   5.9755
     5.9773   5.9895   5.9986   6.0548   6.1102   6.1284   6.1834   6.2220
     6.2394   6.2512   6.2558   6.2761   6.2801   6.3376   6.3413   6.3625
     6.3709   6.4131   6.4371   6.4556   6.4989   6.5163   6.5472   6.5543
     6.5744   6.6295   6.6549   6.6565   6.6605   6.7053   6.7334   6.7423
     6.7927   6.8211   6.8644   6.8801   6.9246   6.9488   6.9789   7.0034
     7.0815   7.1000   7.1176   7.1178   7.1607   7.1736   7.1775   7.2000
     7.2365   7.2510   7.2515   7.2697   7.3447   7.3633   7.3755   7.4119
     7.4193   7.4494   7.4514   7.4679   7.4856   7.4993   7.5023   7.5248
     7.5277   7.5571   7.5872   7.6330   7.6426   7.6865   7.6931   7.7259
     7.7508   7.8185   7.8220   7.8562   7.8626   7.8927   7.9028   7.9042
     7.9690   7.9858   8.0124   8.0406   8.0412   8.0620   8.0749   8.0865
     8.1506   8.1801   8.2157   8.2263   8.2434   8.2692   8.2930   8.3333
     8.3486   8.3590   8.3973   8.3987   8.4192   8.4330   8.4641   8.4922
     8.5273   8.5433   8.5610   8.5899   8.6078   8.6119   8.6291   8.6826
     8.6994   8.7083   8.7255   8.7437   8.8262   8.8382   8.8757   8.8806
     8.9217   8.9408   8.9619   8.9707   8.9895   9.0346   9.0422   9.0592
     9.1022   9.1056   9.1516   9.1900   9.2223   9.2395   9.2717   9.2888
     9.3021   9.3034   9.3538   9.3564   9.3692   9.4272   9.4451   9.4514
     9.4800   9.5080   9.5173   9.5193   9.5453   9.5704   9.5903   9.6036
     9.6091   9.6217   9.6406   9.6513   9.7158   9.7211   9.7397   9.7611
     9.7916   9.8107   9.8142   9.8537   9.8872   9.9108   9.9189   9.9408
     9.9670   9.9707  10.0015  10.0168  10.0407  10.0455  10.0570  10.0853
    10.0889  10.1273  10.1455  10.1766  10.2262  10.2522  10.2794  10.2974
    10.3190  10.3245  10.3606  10.3938  10.4054  10.4158  10.4345  10.4562
    10.4768  10.4872  10.5197  10.5268  10.5351  10.5573  10.5837  10.5874
    10.6408  10.6562  10.6910  10.6911  10.6979  10.7257  10.7424  10.7594
    10.7700  10.7801  10.7908  10.8453  10.8614  10.8709  10.8856  10.8932
    10.9147  10.9228  10.9269  10.9752  11.0056  11.0136  11.0339  11.0352
    11.0589  11.0736  11.0797  11.1019  11.1175  11.1764  11.1947  11.1957
    11.2142  11.2235  11.2368  11.2482  11.2580  11.3095  11.3173  11.3413
    11.3721  11.4002  11.4308  11.4366  11.4671  11.4686  11.4888  11.5041
    11.5335  11.5364  11.5476  11.5808  11.5824  11.6285  11.6699  11.6814
    11.6841  11.7381  11.7553  11.7745  11.7833  11.7936  11.8204  11.8370
    11.8637  11.9182  11.9254  11.9444  11.9691  11.9810  11.9956  12.0129
    12.0610  12.0628  12.0743  12.1184

          k = 0.0000 0.0000 0.0123 (112395 PWs)   bands (ev):

   -21.8818 -21.4405 -21.0737 -20.9299 -20.4702 -20.1346 -19.7737 -19.5345
   -19.1223 -18.9202 -18.7544 -18.5918 -18.0672 -17.8349 -17.4910 -17.1732
   -17.0717 -16.9746 -16.5014 -16.0600 -15.5489 -15.1562 -15.0409 -14.8620
   -14.7596 -14.5449 -14.3041 -13.5628 -13.3375 -12.9054 -12.6952 -12.6435
   -12.5226 -12.3102 -11.9711 -11.7783 -11.5832 -11.3142 -11.1439 -10.9041
   -10.6542 -10.4078 -10.3673 -10.1668  -9.9620  -9.9376  -9.8284  -9.5624
    -9.4334  -9.4186  -9.3042  -9.2361  -9.1574  -9.0628  -8.9954  -8.9014
    -8.8511  -8.6868  -8.6151  -8.5497  -8.3406  -8.3005  -8.0902  -7.9617
    -7.9366  -7.7746  -7.5550  -7.4985  -7.4083  -7.3475  -7.3050  -6.9026
    -6.7903  -6.5865  -6.4372  -6.3530  -6.2865  -6.2202  -5.8204  -5.5681
    -5.2719  -4.9608  -4.8345  -4.6499  -4.1244  -3.3314  -2.2535  -1.4588
    -0.9944  -0.9075  -0.8026  -0.5201  -0.2870   0.1714   0.3362   0.3905
     0.7384   0.7877   0.8906   0.9452   0.9725   1.0312   1.2417   1.2845
     1.3297   1.4183   1.4497   1.4605   1.5401   1.5637   1.6437   1.8319
     1.8394   1.8818   1.9018   2.0608   2.1093   2.1732   2.1873   2.3062
     2.3327   2.4084   2.4148   2.4338   2.4550   2.5687   2.5984   2.6238
     2.7192   2.7353   2.7583   2.7610   2.8236   2.9261   2.9597   2.9711
     2.9901   3.0363   3.0547   3.1294   3.2160   3.2203   3.2366   3.3003
     3.3307   3.3380   3.3426   3.3999   3.4308   3.4447   3.4916   3.5061
     3.5394   3.6011   3.6100   3.7063   3.7706   3.8016   3.8252   3.8320
     3.8716   3.8935   3.9544   3.9719   3.9882   4.0331   4.0452   4.1530
     4.1565   4.2151   4.2571   4.3419   4.3956   4.4090   4.4255   4.5034
     4.5386   4.5571   4.5806   4.5946   4.6172   4.6673   4.6821   4.6917
     4.7078   4.7459   4.8066   4.8626   4.8818   4.9456   4.9809   5.0405
     5.0492   5.0968   5.1157   5.1268   5.1606   5.1973   5.2297   5.2399
     5.2823   5.3017   5.3267   5.3746   5.4012   5.4015   5.4155   5.4611
     5.5431   5.5485   5.5898   5.6033   5.6230   5.6319   5.6725   5.6871
     5.7018   5.7151   5.7758   5.8070   5.8376   5.8422   5.9076   5.9684
     5.9909   6.0070   6.0223   6.0661   6.1246   6.1324   6.1879   6.1965
     6.2229   6.2334   6.2687   6.2862   6.2887   6.3263   6.3623   6.3673
     6.3771   6.4012   6.4371   6.4446   6.5084   6.5430   6.5522   6.5560
     6.5900   6.6446   6.6599   6.6654   6.6797   6.7120   6.7285   6.7800
     6.7983   6.8246   6.8670   6.8907   6.9194   6.9738   6.9746   7.0164
     7.0745   7.0786   7.1093   7.1211   7.1297   7.1702   7.1937   7.1971
     7.2616   7.2683   7.3059   7.3233   7.3511   7.3762   7.3776   7.4174
     7.4238   7.4288   7.4585   7.4705   7.4725   7.4877   7.5014   7.5318
     7.5352   7.5505   7.5905   7.5958   7.6341   7.6711   7.6742   7.7237
     7.7596   7.8131   7.8228   7.8504   7.8655   7.8874   7.8901   7.9064
     7.9775   7.9882   7.9936   8.0031   8.0269   8.0381   8.0894   8.1008
     8.1489   8.1921   8.2158   8.2330   8.2418   8.2613   8.3091   8.3271
     8.3581   8.3622   8.3671   8.3976   8.4414   8.4445   8.4492   8.4937
     8.5191   8.5405   8.5531   8.5844   8.6001   8.6022   8.6457   8.6667
     8.6788   8.7167   8.7325   8.7889   8.8097   8.8411   8.8519   8.8876
     8.8995   8.9378   8.9439   8.9593   8.9956   9.0170   9.0187   9.0722
     9.1128   9.1229   9.1618   9.1808   9.2090   9.2177   9.2413   9.2673
     9.2816   9.3270   9.3355   9.3570   9.3943   9.4193   9.4211   9.4624
     9.4806   9.4820   9.5109   9.5144   9.5232   9.5380   9.5475   9.6005
     9.6037   9.6179   9.6386   9.6687   9.6712   9.7271   9.7454   9.7697
     9.7835   9.8009   9.8368   9.8461   9.8502   9.9000   9.9196   9.9529
     9.9534  10.0010  10.0070  10.0172  10.0272  10.0507  10.0526  10.0582
    10.0675  10.1304  10.1479  10.1740  10.2193  10.2406  10.2419  10.2646
    10.2829  10.3190  10.3205  10.3280  10.4077  10.4254  10.4383  10.4658
    10.4754  10.4784  10.5130  10.5348  10.5354  10.5557  10.5749  10.5808
    10.6553  10.6647  10.6949  10.7068  10.7194  10.7234  10.7484  10.7531
    10.7592  10.7913  10.8111  10.8397  10.8531  10.8789  10.9058  10.9181
    10.9283  10.9609  10.9664  10.9861  11.0222  11.0273  11.0403  11.0645
    11.0687  11.0877  11.1085  11.1271  11.1479  11.1585  11.1755  11.1919
    11.2320  11.2501  11.2624  11.2662  11.2674  11.3175  11.3345  11.3597
    11.3798  11.4039  11.4112  11.4411  11.4660  11.4682  11.4988  11.5236
    11.5287  11.5441  11.5514  11.5900  11.5982  11.6147  11.6752  11.7065
    11.7248  11.7466  11.7697  11.7860  11.8097  11.8371  11.8398  11.8622
    11.8930  11.8999  11.9050  11.9551  11.9789  11.9943  12.0069  12.0149
    12.0605  12.0613  12.0793  12.1213

          k = 0.0000 0.0000 0.0138 (112381 PWs)   bands (ev):

   -21.8779 -21.4603 -21.0520 -20.9211 -20.4869 -20.1132 -19.8116 -19.5352
   -19.1224 -18.9052 -18.7542 -18.5836 -18.0345 -17.8322 -17.5141 -17.1710
   -17.1075 -16.9796 -16.5020 -16.0650 -15.5235 -15.1709 -15.0317 -14.8418
   -14.7519 -14.5353 -14.2791 -13.5987 -13.3607 -12.9505 -12.6674 -12.6417
   -12.5515 -12.3045 -11.9707 -11.7918 -11.5190 -11.3147 -11.1563 -10.8664
   -10.6422 -10.4147 -10.3683 -10.1838  -9.9625  -9.9328  -9.8145  -9.5745
    -9.4424  -9.4099  -9.3257  -9.2362  -9.1854  -9.0737  -8.9747  -8.9082
    -8.8354  -8.6968  -8.6259  -8.5309  -8.3609  -8.2793  -8.0884  -7.9691
    -7.9091  -7.7770  -7.5564  -7.5372  -7.4267  -7.3551  -7.2846  -6.8725
    -6.8038  -6.5582  -6.4280  -6.3641  -6.2885  -6.2279  -5.8155  -5.5276
    -5.2977  -4.9615  -4.8592  -4.6419  -4.1289  -3.3518  -2.2310  -1.4636
    -0.9807  -0.8966  -0.7976  -0.4906  -0.2924   0.1251   0.3418   0.3961
     0.7441   0.7578   0.8658   0.9218   0.9744   1.0592   1.2246   1.2449
     1.3056   1.4516   1.4786   1.4968   1.5221   1.5644   1.6403   1.8187
     1.8439   1.8885   1.9266   2.0447   2.1449   2.1680   2.1873   2.3113
     2.3389   2.3941   2.3999   2.4429   2.4757   2.5847   2.6017   2.6506
     2.7151   2.7472   2.7510   2.7632   2.8095   2.8995   2.9439   2.9604
     2.9755   3.0192   3.0421   3.1557   3.1924   3.2284   3.2423   3.3044
     3.3188   3.3365   3.3401   3.4022   3.4400   3.4557   3.5241   3.5278
     3.5519   3.5522   3.6445   3.7343   3.7816   3.8004   3.8079   3.8175
     3.8537   3.9292   3.9293   3.9977   4.0013   4.0100   4.0254   4.1370
     4.1448   4.1948   4.2383   4.3255   4.4278   4.4352   4.4396   4.5056
     4.5145   4.5745   4.5987   4.6139   4.6300   4.6625   4.6940   4.7083
     4.7234   4.7427   4.8142   4.8162   4.8729   4.9358   5.0116   5.0242
     5.0407   5.0619   5.0870   5.0918   5.1744   5.1928   5.1994   5.2437
     5.2556   5.2946   5.3470   5.3498   5.3619   5.3907   5.4171   5.4584
     5.5451   5.5564   5.5700   5.6104   5.6217   5.6338   5.6690   5.6804
     5.6949   5.7615   5.7687   5.8441   5.8494   5.8546   5.9008   5.9554
     6.0119   6.0182   6.0681   6.0719   6.1030   6.1214   6.1486   6.1689
     6.2286   6.2405   6.2557   6.2736   6.2800   6.3368   6.3377   6.3958
     6.3984   6.4010   6.4500   6.4825   6.5028   6.5453   6.5697   6.5941
     6.5954   6.6552   6.6709   6.6730   6.6826   6.7201   6.7540   6.8129
     6.8252   6.8425   6.8670   6.8999   6.9135   6.9666   7.0003   7.0239
     7.0540   7.0600   7.0741   7.1190   7.1228   7.1692   7.1989   7.2226
     7.2782   7.2835   7.3363   7.3364   7.3392   7.3897   7.3941   7.4080
     7.4144   7.4148   7.4338   7.4661   7.4710   7.4949   7.4989   7.5265
     7.5573   7.5691   7.5930   7.6136   7.6452   7.6510   7.6749   7.7014
     7.7633   7.8154   7.8173   7.8400   7.8656   7.8790   7.8846   7.8934
     7.9546   7.9742   7.9911   7.9934   8.0296   8.0341   8.1036   8.1102
     8.1553   8.1918   8.2005   8.2118   8.2381   8.2670   8.3014   8.3082
     8.3644   8.3727   8.3764   8.3982   8.4490   8.4565   8.4685   8.4752
     8.5142   8.5480   8.5549   8.5689   8.5940   8.5985   8.6222   8.6363
     8.7010   8.7310   8.7649   8.7703   8.8329   8.8401   8.8437   8.8569
     8.9121   8.9269   8.9327   8.9609   8.9880   8.9956   9.0177   9.0639
     9.1026   9.1232   9.1401   9.1672   9.1723   9.1918   9.2614   9.2653
     9.2861   9.3255   9.3345   9.3588   9.3861   9.3935   9.4319   9.4518
     9.4555   9.4556   9.4772   9.4882   9.4906   9.5288   9.5402   9.5559
     9.6046   9.6192   9.6508   9.6597   9.6952   9.7353   9.7433   9.7733
     9.7905   9.7981   9.8172   9.8268   9.8652   9.8993   9.9006   9.9466
     9.9754   9.9878   9.9884  10.0111  10.0153  10.0553  10.0705  10.0767
    10.0980  10.1212  10.1486  10.1515  10.1646  10.2025  10.2101  10.2159
    10.2597  10.2823  10.3268  10.3452  10.4005  10.4156  10.4231  10.4553
    10.4787  10.4839  10.4954  10.5447  10.5475  10.5541  10.5905  10.5949
    10.6548  10.6742  10.6759  10.7216  10.7232  10.7345  10.7360  10.7568
    10.7626  10.7939  10.8335  10.8404  10.8642  10.8844  10.9215  10.9267
    10.9452  10.9770  10.9903  11.0180  11.0294  11.0370  11.0474  11.0681
    11.0927  11.0941  11.1027  11.1544  11.1547  11.1658  11.1869  11.2207
    11.2341  11.2507  11.2664  11.2987  11.3156  11.3272  11.3686  11.3829
    11.3894  11.4043  11.4069  11.4194  11.4673  11.4746  11.5069  11.5250
    11.5286  11.5536  11.5680  11.5888  11.6181  11.6434  11.6577  11.7391
    11.7553  11.7717  11.7787  11.7903  11.8261  11.8473  11.8667  11.8867
    11.8932  11.8978  11.9471  11.9674  11.9691  12.0089  12.0364  12.0400
    12.0637  12.0639  12.0939  12.1181

          k = 0.0000 0.0000 0.0154 (112407 PWs)   bands (ev):

   -21.8736 -21.4796 -21.0321 -20.9100 -20.5030 -20.0932 -19.8482 -19.5352
   -19.1313 -18.8904 -18.7482 -18.5712 -18.0036 -17.8281 -17.5361 -17.1737
   -17.1512 -16.9742 -16.5041 -16.0748 -15.4886 -15.1858 -15.0346 -14.8209
   -14.7322 -14.5243 -14.2559 -13.6358 -13.3846 -13.0007 -12.6493 -12.6275
   -12.5767 -12.2981 -11.9813 -11.7953 -11.4588 -11.3123 -11.1679 -10.8269
   -10.6317 -10.4302 -10.3680 -10.1897  -9.9639  -9.9275  -9.7999  -9.5883
    -9.4656  -9.4028  -9.3421  -9.2439  -9.2039  -9.0799  -8.9570  -8.9138
    -8.8158  -8.7129  -8.6340  -8.5104  -8.3805  -8.2555  -8.0950  -7.9697
    -7.8821  -7.7803  -7.5788  -7.5653  -7.4418  -7.3586  -7.2590  -6.8427
    -6.8215  -6.5427  -6.4098  -6.3766  -6.2815  -6.2364  -5.8116  -5.4853
    -5.3242  -4.9622  -4.8891  -4.6329  -4.1334  -3.3734  -2.2074  -1.4673
    -0.9825  -0.8669  -0.7916  -0.4617  -0.2986   0.0807   0.3481   0.4024
     0.7243   0.7503   0.8409   0.8973   0.9793   1.0781   1.1719   1.2431
     1.2872   1.4798   1.4987   1.5090   1.5351   1.5766   1.6391   1.7985
     1.8499   1.8920   1.9636   2.0257   2.1620   2.1805   2.1914   2.3152
     2.3457   2.3701   2.3816   2.4539   2.5085   2.5842   2.6125   2.6747
     2.6889   2.7277   2.7597   2.8022   2.8069   2.8736   2.9075   2.9341
     2.9701   2.9910   3.0638   3.1652   3.1904   3.2356   3.2486   3.2778
     3.3083   3.3396   3.3504   3.4252   3.4517   3.4607   3.5025   3.5404
     3.5551   3.5829   3.6838   3.7227   3.7623   3.7789   3.7872   3.8437
     3.8836   3.9083   3.9561   3.9831   3.9959   4.0167   4.0292   4.0942
     4.1487   4.2003   4.2088   4.3194   4.4342   4.4583   4.4736   4.4942
     4.5057   4.5922   4.6024   4.6131   4.6237   4.6820   4.6919   4.7138
     4.7397   4.7778   4.7786   4.8396   4.8648   4.9251   4.9729   5.0006
     5.0251   5.0557   5.0593   5.1055   5.1396   5.1737   5.1944   5.2169
     5.2644   5.2987   5.3000   5.3270   5.3522   5.3978   5.4237   5.4871
     5.4966   5.5477   5.5810   5.5969   5.6130   5.6415   5.6810   5.7004
     5.7193   5.7544   5.8128   5.8606   5.8698   5.8886   5.8890   5.9397
     6.0321   6.0364   6.0522   6.0600   6.0765   6.1171   6.1396   6.1673
     6.2006   6.2399   6.2438   6.2495   6.2688   6.2925   6.3599   6.4222
     6.4327   6.4471   6.4556   6.5022   6.5056   6.5798   6.5855   6.5974
     6.6191   6.6625   6.6629   6.6866   6.6973   6.7356   6.8111   6.8203
     6.8407   6.8699   6.8878   6.9038   6.9226   6.9516   7.0171   7.0220
     7.0305   7.0326   7.0690   7.1142   7.1311   7.1587   7.2105   7.2509
     7.2793   7.2868   7.2998   7.3091   7.3264   7.3771   7.3920   7.4005
     7.4118   7.4194   7.4364   7.4650   7.4798   7.5138   7.5199   7.5216
     7.5673   7.5941   7.6176   7.6293   7.6351   7.6726   7.6741   7.7118
     7.7410   7.7960   7.8096   7.8305   7.8557   7.8609   7.8804   7.9168
     7.9404   7.9619   7.9920   8.0058   8.0257   8.0364   8.1085   8.1221
     8.1377   8.1579   8.1801   8.2104   8.2354   8.2510   8.2958   8.3351
     8.3636   8.3792   8.3925   8.4058   8.4395   8.4657   8.4708   8.4818
     8.5285   8.5323   8.5529   8.5597   8.5832   8.5944   8.6151   8.6223
     8.7093   8.7424   8.7451   8.8000   8.8050   8.8303   8.8615   8.8870
     8.8897   8.9100   8.9346   8.9625   8.9729   8.9921   9.0380   9.0383
     9.0480   9.0860   9.1208   9.1548   9.1657   9.1975   9.2535   9.2738
     9.2942   9.2993   9.3327   9.3394   9.3692   9.3729   9.3768   9.4092
     9.4421   9.4477   9.4799   9.4904   9.4976   9.5181   9.5378   9.5530
     9.5604   9.6414   9.6534   9.6770   9.6790   9.7007   9.7483   9.7606
     9.7930   9.8009   9.8059   9.8599   9.8821   9.8953   9.9028   9.9482
     9.9486   9.9592   9.9856  10.0043  10.0158  10.0576  10.0672  10.0737
    10.0853  10.1037  10.1361  10.1444  10.1513  10.1617  10.1748  10.2084
    10.2678  10.2707  10.3486  10.3629  10.3773  10.4023  10.4074  10.4461
    10.4629  10.4743  10.5105  10.5432  10.5542  10.5548  10.6107  10.6127
    10.6486  10.6794  10.6893  10.7022  10.7108  10.7241  10.7514  10.7681
    10.7772  10.7829  10.8477  10.8586  10.8736  10.9064  10.9276  10.9351
    10.9367  10.9766  10.9776  11.0335  11.0369  11.0403  11.0736  11.0948
    11.1025  11.1183  11.1278  11.1521  11.1666  11.1679  11.1956  11.2424
    11.2578  11.2586  11.2882  11.2956  11.3357  11.3625  11.3723  11.3945
    11.3999  11.4034  11.4164  11.4363  11.4859  11.4864  11.4903  11.5077
    11.5494  11.5734  11.5914  11.6037  11.6390  11.6532  11.6808  11.7461
    11.7642  11.7817  11.8063  11.8222  11.8383  11.8539  11.8756  11.8833
    11.9124  11.9305  11.9363  11.9720  12.0222  12.0335  12.0514  12.0531
    12.0833  12.1019  12.1138  12.1236

          k = 0.0000 0.0000 0.0169 (112413 PWs)   bands (ev):

   -21.8689 -21.4984 -21.0145 -20.8959 -20.5183 -20.0759 -19.8820 -19.5346
   -19.1460 -18.8826 -18.7310 -18.5559 -17.9758 -17.8221 -17.5564 -17.2126
   -17.1645 -16.9656 -16.5083 -16.0869 -15.4466 -15.2005 -15.0460 -14.8040
   -14.7001 -14.5119 -14.2350 -13.6735 -13.4089 -13.0540 -12.6489 -12.6000
   -12.5932 -12.2917 -12.0001 -11.7910 -11.4128 -11.2969 -11.1773 -10.7873
   -10.6229 -10.4511 -10.3691 -10.1838  -9.9664  -9.9216  -9.7855  -9.6025
    -9.4882  -9.4218  -9.3448  -9.2689  -9.2033  -9.0798  -8.9422  -8.9181
    -8.7927  -8.7331  -8.6399  -8.4885  -8.3991  -8.2302  -8.1087  -7.9649
    -7.8561  -7.7848  -7.6209  -7.5802  -7.4534  -7.3597  -7.2296  -6.8418
    -6.8134  -6.5443  -6.3903  -6.3775  -6.2679  -6.2458  -5.8085  -5.4419
    -5.3512  -4.9636  -4.9223  -4.6243  -4.1375  -3.3958  -2.1830  -1.4700
    -0.9907  -0.8297  -0.7828  -0.4342  -0.3052   0.0390   0.3551   0.4093
     0.6887   0.7570   0.8162   0.8732   0.9857   1.0528   1.1611   1.2302
     1.2807   1.4673   1.5138   1.5370   1.5734   1.5950   1.6401   1.7766
     1.8570   1.8983   1.9962   2.0115   2.1558   2.1932   2.2190   2.3168
     2.3445   2.3537   2.3679   2.4628   2.5452   2.5783   2.6233   2.6609
     2.6908   2.7059   2.7606   2.8087   2.8353   2.8653   2.8756   2.9064
     2.9580   2.9628   3.0943   3.1412   3.2246   3.2410   3.2536   3.2555
     3.2866   3.3500   3.3646   3.4310   3.4561   3.4661   3.4890   3.5501
     3.5854   3.6227   3.6726   3.7214   3.7361   3.7507   3.8005   3.8735
     3.8973   3.9125   3.9543   3.9562   3.9976   4.0281   4.0350   4.0695
     4.1620   4.1638   4.2237   4.3173   4.4296   4.4454   4.4985   4.5099
     4.5256   4.5514   4.6174   4.6252   4.6305   4.6851   4.6886   4.7206
     4.7440   4.7821   4.7952   4.8542   4.8928   4.9192   4.9263   4.9777
     4.9984   5.0208   5.0352   5.0834   5.1227   5.1746   5.1826   5.2105
     5.2535   5.2697   5.2938   5.2984   5.3598   5.4181   5.4298   5.4428
     5.5245   5.5249   5.5373   5.6060   5.6273   5.6726   5.6898   5.7357
     5.7432   5.7591   5.8365   5.8641   5.8863   5.9083   5.9245   5.9269
     5.9920   6.0113   6.0482   6.0487   6.0736   6.1293   6.1353   6.1578
     6.1795   6.2087   6.2288   6.2476   6.2731   6.2731   6.3725   6.4500
     6.4549   6.4657   6.5038   6.5072   6.5147   6.5964   6.5983   6.6326
     6.6353   6.6676   6.6733   6.6867   6.7056   6.7888   6.8157   6.8577
     6.8638   6.8782   6.8993   6.9060   6.9320   6.9623   6.9978   7.0130
     7.0154   7.0452   7.0752   7.1136   7.1421   7.1517   7.2224   7.2350
     7.2538   7.2649   7.2756   7.3089   7.3162   7.3430   7.3831   7.3842
     7.3973   7.4070   7.4288   7.4753   7.5165   7.5330   7.5367   7.5548
     7.5864   7.6032   7.6199   7.6229   7.6433   7.6714   7.6953   7.7330
     7.7445   7.7638   7.8085   7.8318   7.8541   7.8694   7.8779   7.9088
     7.9391   7.9791   7.9913   8.0106   8.0188   8.0292   8.0752   8.1125
     8.1185   8.1591   8.1792   8.2127   8.2311   8.2589   8.2820   8.3511
     8.3542   8.3720   8.4133   8.4150   8.4396   8.4669   8.4788   8.4799
     8.5055   8.5397   8.5516   8.5559   8.5655   8.6006   8.6243   8.6443
     8.6795   8.7304   8.7565   8.7772   8.8010   8.8422   8.8606   8.8735
     8.9015   8.9062   8.9346   8.9457   8.9512   8.9878   9.0142   9.0323
     9.0501   9.0667   9.1050   9.1322   9.1695   9.2145   9.2182   9.2553
     9.2571   9.2851   9.2858   9.3013   9.3164   9.3730   9.3829   9.4234
     9.4239   9.4378   9.4663   9.4728   9.4992   9.5065   9.5482   9.5797
     9.5885   9.6204   9.6498   9.6593   9.6824   9.7093   9.7132   9.7458
     9.7963   9.8081   9.8229   9.8441   9.8534   9.8984   9.9139   9.9307
     9.9341   9.9632   9.9672   9.9896  10.0239  10.0248  10.0398  10.0595
    10.0607  10.0911  10.1209  10.1321  10.1385  10.1580  10.1804  10.2469
    10.2755  10.3018  10.3392  10.3725  10.3783  10.3922  10.4000  10.4329
    10.4457  10.4828  10.5114  10.5291  10.5549  10.5577  10.6180  10.6258
    10.6495  10.6726  10.6887  10.7060  10.7156  10.7267  10.7437  10.7741
    10.7841  10.7886  10.8392  10.8803  10.8929  10.8991  10.9102  10.9236
    10.9531  10.9877  11.0167  11.0214  11.0327  11.0599  11.0778  11.0869
    11.1119  11.1372  11.1474  11.1642  11.2005  11.2007  11.2140  11.2482
    11.2595  11.2680  11.2932  11.3205  11.3378  11.3589  11.3602  11.3763
    11.4029  11.4177  11.4528  11.4529  11.4841  11.4905  11.5143  11.5558
    11.5672  11.5983  11.6092  11.6096  11.6602  11.6991  11.7175  11.7258
    11.7771  11.7832  11.8316  11.8356  11.8553  11.8566  11.8836  11.9045
    11.9302  11.9353  11.9738  11.9923  12.0408  12.0570  12.0593  12.0757
    12.1077  12.1094  12.1561  12.1635

          k = 0.0000 0.0000 0.0184 (112459 PWs)   bands (ev):

   -21.8638 -21.5166 -20.9995 -20.8787 -20.5328 -20.0644 -19.9098 -19.5336
   -19.1645 -18.8835 -18.7019 -18.5387 -17.9526 -17.8134 -17.5741 -17.2666
   -17.1653 -16.9567 -16.5148 -16.0994 -15.3994 -15.2145 -15.0625 -14.7914
   -14.6588 -14.4981 -14.2173 -13.7111 -13.4333 -13.1089 -12.6602 -12.6005
   -12.5669 -12.2863 -12.0225 -11.7830 -11.3935 -11.2561 -11.1836 -10.7496
   -10.6156 -10.4767 -10.3685 -10.1688  -9.9704  -9.9152  -9.7725  -9.6162
    -9.5103  -9.4532  -9.3506  -9.2965  -9.1964  -9.0721  -8.9298  -8.9210
    -8.7665  -8.7551  -8.6448  -8.4658  -8.4168  -8.2044  -8.1267  -7.9571
    -7.8329  -7.7905  -7.6611  -7.5992  -7.4625  -7.3593  -7.1975  -6.8640
    -6.7846  -6.5567  -6.4053  -6.3360  -6.2560  -6.2497  -5.8057  -5.3977
    -5.3783  -4.9713  -4.9525  -4.6172  -4.1411  -3.4187  -2.1585  -1.4715
    -1.0001  -0.7998  -0.7616  -0.4100  -0.3111   0.0010   0.3627   0.4169
     0.6520   0.7637   0.7923   0.8497   0.9919   0.9930   1.1840   1.2094
     1.2832   1.4428   1.5323   1.5694   1.6073   1.6185   1.6471   1.7552
     1.8653   1.9064   1.9816   2.0448   2.1493   2.1996   2.2481   2.3174
     2.3194   2.3617   2.3634   2.4714   2.5709   2.5816   2.6332   2.6333
     2.6683   2.7147   2.7590   2.7959   2.8174   2.8610   2.8856   2.8962
     2.9355   2.9567   3.1157   3.1274   3.2234   3.2368   3.2624   3.2706
     3.2730   3.3653   3.3678   3.3908   3.4821   3.4835   3.5059   3.5596
     3.6068   3.6288   3.6648   3.7058   3.7189   3.7682   3.7986   3.8853
     3.8979   3.9242   3.9412   3.9534   3.9920   4.0022   4.0630   4.0809
     4.1317   4.1789   4.2445   4.3082   4.4097   4.4520   4.4709   4.5328
     4.5439   4.5664   4.6073   4.6253   4.6431   4.6615   4.6843   4.7330
     4.7748   4.7766   4.8338   4.8481   4.8748   4.9106   4.9413   4.9545
     4.9820   4.9867   5.0226   5.0273   5.0882   5.1505   5.1832   5.2108
     5.2231   5.2483   5.2979   5.3165   5.3735   5.3745   5.4350   5.4685
     5.4700   5.5063   5.5560   5.6016   5.6562   5.6958   5.7175   5.7657
     5.7700   5.7735   5.8487   5.8534   5.8945   5.9170   5.9354   5.9511
     5.9597   5.9663   6.0353   6.0635   6.0696   6.1119   6.1133   6.1542
     6.1597   6.1853   6.2260   6.2501   6.2769   6.2989   6.3831   6.4475
     6.4781   6.4912   6.5012   6.5240   6.5688   6.6004   6.6020   6.6531
     6.6582   6.6775   6.6872   6.7173   6.7271   6.8010   6.8433   6.8607
     6.8721   6.8872   6.9056   6.9385   6.9418   6.9673   6.9794   7.0088
     7.0218   7.0766   7.0793   7.1155   7.1238   7.1733   7.1900   7.1968
     7.2193   7.2538   7.2910   7.2947   7.3131   7.3148   7.3672   7.3720
     7.3804   7.4112   7.4286   7.4502   7.5121   7.5499   7.5577   7.5743
     7.5898   7.6091   7.6233   7.6328   7.6491   7.6939   7.6960   7.7489
     7.7671   7.7749   7.8192   7.8418   7.8665   7.8721   7.8790   7.8855
     7.9555   7.9598   7.9921   7.9977   8.0072   8.0397   8.0562   8.1051
     8.1072   8.1833   8.1863   8.2028   8.2278   8.2735   8.2794   8.3372
     8.3416   8.3612   8.4083   8.4221   8.4521   8.4664   8.4751   8.4797
     8.4964   8.5291   8.5389   8.5764   8.5825   8.6205   8.6332   8.6370
     8.6851   8.7041   8.7580   8.7629   8.7651   8.8276   8.8367   8.8711
     8.8747   8.9093   8.9180   8.9568   8.9644   8.9791   8.9924   9.0148
     9.0610   9.0854   9.1072   9.1129   9.1546   9.1784   9.1966   9.2099
     9.2252   9.2483   9.2553   9.2862   9.3128   9.3466   9.3703   9.3937
     9.4130   9.4401   9.4566   9.4791   9.5107   9.5345   9.5419   9.5765
     9.6169   9.6327   9.6361   9.6486   9.6813   9.7044   9.7197   9.7554
     9.7781   9.7954   9.8235   9.8259   9.8405   9.8774   9.8854   9.9014
     9.9070   9.9159   9.9362  10.0051  10.0084  10.0140  10.0169  10.0355
    10.0577  10.0992  10.1111  10.1540  10.1632  10.1802  10.1989  10.2571
    10.2657  10.3184  10.3467  10.3718  10.3888  10.3905  10.3980  10.4318
    10.4378  10.4881  10.5050  10.5358  10.5502  10.5507  10.6059  10.6340
    10.6545  10.6611  10.6868  10.6898  10.7164  10.7403  10.7527  10.7750
    10.7861  10.7906  10.8357  10.8813  10.8959  10.9057  10.9227  10.9311
    10.9621  10.9859  11.0157  11.0384  11.0494  11.0740  11.0759  11.0825
    11.0934  11.1563  11.1692  11.1931  11.2088  11.2320  11.2407  11.2462
    11.2523  11.2850  11.2968  11.3198  11.3277  11.3412  11.3626  11.3844
    11.4145  11.4276  11.4460  11.4758  11.5012  11.5116  11.5462  11.5745
    11.6012  11.6261  11.6340  11.6543  11.6703  11.7197  11.7542  11.7602
    11.7864  11.7968  11.8224  11.8350  11.8661  11.8811  11.8843  11.9176
    11.9403  11.9864  11.9979  12.0482  12.0482  12.0716  12.0741  12.0831
    12.1267  12.1352  12.1727  12.1941

          k = 0.0000 0.0000 0.0200 (112454 PWs)   bands (ev):

   -21.8584 -21.5342 -20.9872 -20.8585 -20.5464 -20.0638 -19.9266 -19.5322
   -19.1854 -18.8903 -18.6644 -18.5203 -17.9353 -17.8021 -17.5881 -17.3226
   -17.1657 -16.9487 -16.5237 -16.1107 -15.3490 -15.2275 -15.0813 -14.7817
   -14.6127 -14.4826 -14.2038 -13.7476 -13.4575 -13.1648 -12.6784 -12.5975
   -12.5347 -12.2829 -12.0447 -11.7745 -11.3935 -11.1999 -11.1835 -10.7174
   -10.6076 -10.5055 -10.3636 -10.1480  -9.9760  -9.9084  -9.7629  -9.6290
    -9.5316  -9.4870  -9.3719  -9.3160  -9.1905  -9.0565  -8.9225  -8.9194
    -8.7768  -8.7380  -8.6495  -8.4426  -8.4333  -8.1807  -8.1451  -7.9483
    -7.8168  -7.7976  -7.6947  -7.6202  -7.4699  -7.3577  -7.1637  -6.8876
    -6.7563  -6.5739  -6.4215  -6.2915  -6.2671  -6.2270  -5.8032  -5.4055
    -5.3532  -5.0044  -4.9597  -4.6125  -4.1439  -3.4417  -2.1340  -1.4718
    -1.0089  -0.7872  -0.7203  -0.3930  -0.3131  -0.0321   0.3709   0.4250
     0.6145   0.7639   0.7753   0.8275   0.9232   1.0012   1.1861   1.2127
     1.2890   1.4186   1.5459   1.6033   1.6241   1.6444   1.6723   1.7370
     1.8748   1.9160   1.9606   2.0846   2.1427   2.2068   2.2589   2.2941
     2.3297   2.3685   2.3706   2.4801   2.5629   2.6032   2.6085   2.6427
     2.6480   2.7225   2.7520   2.7682   2.7967   2.8468   2.8906   2.8925
     2.9091   2.9963   3.0902   3.1607   3.2001   3.2161   3.2692   3.2756
     3.3141   3.3253   3.3831   3.3964   3.4943   3.5039   3.5397   3.5581
     3.5706   3.6562   3.6793   3.6929   3.7078   3.7800   3.8094   3.8701
     3.8753   3.9234   3.9456   3.9623   3.9836   4.0076   4.0605   4.1015
     4.1384   4.1942   4.2648   4.2850   4.4068   4.4329   4.4604   4.5283
     4.5706   4.5868   4.5910   4.6087   4.6596   4.6605   4.6792   4.7446
     4.7777   4.8127   4.8173   4.8526   4.8733   4.9030   4.9278   4.9411
     4.9446   4.9750   4.9829   5.0403   5.0615   5.1188   5.1671   5.1724
     5.1960   5.2550   5.3067   5.3187   5.3646   5.3912   5.4171   5.4570
     5.4721   5.4991   5.5638   5.6028   5.6834   5.7104   5.7539   5.7866
     5.7940   5.8015   5.8445   5.8592   5.8757   5.8853   5.9085   5.9447
     5.9809   6.0108   6.0159   6.0411   6.0499   6.0980   6.0983   6.1189
     6.1816   6.1891   6.2252   6.2499   6.2833   6.3468   6.3946   6.4405
     6.4904   6.4996   6.5107   6.5318   6.5933   6.6053   6.6234   6.6740
     6.6849   6.6902   6.6996   6.7373   6.7872   6.7951   6.8214   6.8725
     6.8836   6.8912   6.9278   6.9434   6.9499   6.9840   6.9952   7.0098
     7.0322   7.0753   7.1022   7.1130   7.1179   7.1433   7.1524   7.1858
     7.2275   7.2491   7.2719   7.2917   7.2934   7.3026   7.3582   7.3608
     7.3949   7.4016   7.4108   7.4418   7.4881   7.5218   7.5513   7.5647
     7.5747   7.6202   7.6433   7.6678   7.6973   7.7019   7.7367   7.7379
     7.7911   7.7978   7.8087   7.8416   7.8562   7.8820   7.8891   7.9065
     7.9396   7.9657   7.9698   7.9920   8.0278   8.0577   8.0602   8.0929
     8.1136   8.1764   8.1863   8.2145   8.2327   8.2770   8.2918   8.3208
     8.3239   8.3591   8.3835   8.4274   8.4337   8.4453   8.4634   8.4936
     8.5140   8.5397   8.5410   8.5829   8.6022   8.6167   8.6392   8.6503
     8.6630   8.7209   8.7227   8.7379   8.7550   8.7859   8.8146   8.8321
     8.8733   8.8896   8.9230   8.9482   8.9527   8.9748   9.0226   9.0289
     9.0421   9.0743   9.0954   9.1017   9.1333   9.1581   9.1724   9.1726
     9.1955   9.2323   9.2377   9.3008   9.3030   9.3128   9.3228   9.3910
     9.4189   9.4348   9.4583   9.4802   9.5142   9.5202   9.5311   9.5795
     9.5975   9.6539   9.6599   9.6651   9.6845   9.7203   9.7327   9.7412
     9.7621   9.7752   9.7775   9.8142   9.8259   9.8434   9.8545   9.8754
     9.8805   9.9010   9.9171   9.9575   9.9705   9.9986  10.0241  10.0471
    10.0594  10.0985  10.1172  10.1842  10.1938  10.2123  10.2474  10.2572
    10.2702  10.3059  10.3588  10.3609  10.3781  10.3820  10.3947  10.4163
    10.4661  10.5009  10.5033  10.5295  10.5508  10.5701  10.5907  10.6291
    10.6406  10.6541  10.6666  10.6865  10.6969  10.7479  10.7627  10.7867
    10.8019  10.8140  10.8439  10.8713  10.8913  10.9034  10.9201  10.9489
    10.9741  10.9947  11.0102  11.0399  11.0526  11.0681  11.0795  11.1064
    11.1234  11.1450  11.1884  11.1936  11.2154  11.2240  11.2375  11.2517
    11.2627  11.2727  11.3062  11.3076  11.3444  11.3546  11.3664  11.3933
    11.4409  11.4449  11.4672  11.4979  11.5149  11.5156  11.5788  11.5980
    11.6074  11.6454  11.6509  11.6744  11.7502  11.7508  11.7705  11.7787
    11.8005  11.8037  11.8309  11.8621  11.8718  11.8825  11.9205  11.9394
    11.9650  12.0124  12.0319  12.0519  12.0707  12.0845  12.0943  12.1392
    12.1467  12.1664  12.1763  12.2220

          k = 0.0000 0.0000 0.0215 (112462 PWs)   bands (ev):

   -21.8526 -21.5513 -20.9770 -20.8359 -20.5590 -20.0777 -19.9285 -19.5306
   -19.2078 -18.8999 -18.6221 -18.5009 -17.9243 -17.7895 -17.5968 -17.3794
   -17.1662 -16.9424 -16.5349 -16.1198 -15.2981 -15.2387 -15.0999 -14.7738
   -14.5653 -14.4645 -14.1959 -13.7816 -13.4814 -13.2210 -12.6979 -12.5915
   -12.5023 -12.2830 -12.0639 -11.7675 -11.4008 -11.1873 -11.1292 -10.6960
   -10.5968 -10.5329 -10.3539 -10.1238  -9.9834  -9.9010  -9.7594  -9.6404
    -9.5523  -9.5184  -9.4050  -9.3294  -9.1882  -9.0352  -8.9218  -8.9104
    -8.7969  -8.7079  -8.6543  -8.4484  -8.4194  -8.1794  -8.1424  -7.9401
    -7.8184  -7.8061  -7.7109  -7.6415  -7.4765  -7.3551  -7.1287  -6.9126
    -6.7285  -6.5924  -6.4389  -6.2789  -6.2500  -6.1977  -5.8007  -5.4325
    -5.3087  -5.0457  -4.9609  -4.6109  -4.1454  -3.4648  -2.1102  -1.4710
    -1.0164  -0.7804  -0.6716  -0.3885  -0.3068  -0.0589   0.3798   0.4338
     0.5764   0.7431   0.7776   0.8088   0.8525   1.0102   1.1624   1.2415
     1.2958   1.3955   1.5564   1.6281   1.6355   1.6675   1.7107   1.7276
     1.8856   1.9267   1.9398   2.1242   2.1363   2.2134   2.2527   2.2693
     2.3525   2.3802   2.3844   2.4891   2.5549   2.5749   2.5914   2.6515
     2.6599   2.7209   2.7373   2.7458   2.7788   2.8324   2.8726   2.8832
     2.9173   3.0492   3.0658   3.1778   3.1786   3.2029   3.2632   3.2836
     3.2933   3.3605   3.4018   3.4093   3.4961   3.5071   3.5266   3.5807
     3.5839   3.6537   3.6676   3.6882   3.7516   3.7589   3.8251   3.8523
     3.8568   3.9092   3.9277   3.9749   3.9978   4.0323   4.0411   4.1384
     4.1632   4.2045   4.2504   4.2851   4.4002   4.4179   4.4690   4.5184
     4.5468   4.5667   4.5908   4.6506   4.6635   4.6687   4.6842   4.7469
     4.7687   4.7919   4.8477   4.8527   4.8832   4.8882   4.8957   4.9242
     4.9366   4.9446   4.9663   5.0043   5.0861   5.1165   5.1382   5.1430
     5.1656   5.2657   5.2668   5.3152   5.3672   5.3834   5.4432   5.4529
     5.4810   5.5025   5.5742   5.6067   5.7023   5.7225   5.7711   5.7912
     5.8230   5.8271   5.8331   5.8441   5.8524   5.8723   5.9026   5.9681
     5.9861   5.9904   6.0108   6.0132   6.0463   6.0789   6.0973   6.1279
     6.1883   6.2157   6.2346   6.2479   6.2952   6.3943   6.4067   6.4335
     6.4799   6.5098   6.5284   6.5370   6.5812   6.6113   6.6497   6.6900
     6.7091   6.7175   6.7196   6.7637   6.7813   6.8162   6.8550   6.8643
     6.8792   6.8904   6.9251   6.9262   6.9827   7.0050   7.0104   7.0152
[...]
     3.3937   3.4320   3.4723   3.4844   3.4876   3.5334   3.5355   3.5857
     3.5978   3.6289   3.7078   3.7083   3.7452   3.7571   3.7730   3.8593
     3.8787   3.9422   3.9507   4.0400   4.1043   4.1091   4.1319   4.2289
     4.2605   4.2881   4.3084   4.3403   4.3565   4.4076   4.4108   4.4482
     4.4490   4.4725   4.5353   4.5380   4.5841   4.6229   4.6272   4.6470
     4.6987   4.7224   4.7268   4.7717   4.7827   4.8168   4.8397   4.8776
     4.9471   4.9529   4.9890   5.0275   5.0483   5.0591   5.0901   5.1929
     5.2443   5.2680   5.2906   5.3013   5.3385   5.3544   5.3667   5.4331
     5.4504   5.5221   5.5568   5.5694   5.5963   5.6117   5.6760   5.6985
     5.7523   5.7692   5.8392   5.9094   5.9103   5.9392   5.9696   5.9779
     5.9936   6.0442   6.1232   6.1290   6.1740   6.1963   6.2642   6.2870
     6.2962   6.3306   6.3878   6.4007   6.4243   6.4402   6.4515   6.4891
     6.5098   6.5565   6.5587   6.5841   6.5849   6.6041   6.6329   6.6393
     6.6467   6.6872   6.7215   6.7525   6.7555   6.7571   6.7932   6.7998
     6.8375   6.8820   6.8904   6.9482   6.9662   6.9847   7.0031   7.0163
     7.0436   7.0455   7.0635   7.0873   7.0975   7.1243   7.1708   7.1974
     7.2072   7.2647   7.2653   7.3013   7.3373   7.3400   7.3674   7.3792
     7.4151   7.4249   7.4860   7.4897   7.5108   7.5331   7.5688   7.6066
     7.6148   7.6299   7.6609   7.7047   7.7260   7.7361   7.7670   7.7916
     7.8036   7.8420   7.8432   7.8691   7.8776   7.8810   7.9189   7.9392
     7.9631   7.9945   8.0170   8.0410   8.0959   8.1278   8.1444   8.1586
     8.1866   8.2185   8.2414   8.2422   8.2804   8.2864   8.3337   8.3384
     8.3534   8.3660   8.3850   8.3858   8.4183   8.4273   8.4418   8.4727
     8.4886   8.5165   8.5222   8.5329   8.5426   8.5828   8.5934   8.6116
     8.6214   8.6349   8.6352   8.6521   8.6811   8.6820   8.7073   8.7116
     8.7285   8.7684   8.7763   8.8248   8.8404   8.8623   8.8839   8.9337
     8.9487   8.9548   8.9631   8.9917   9.0185   9.0422   9.0470   9.0662
     9.0887   9.1122   9.1444   9.1669   9.2245   9.2761   9.2935   9.3175
     9.3394   9.3730   9.3959   9.4075   9.4450   9.4589   9.4924   9.5050
     9.5423   9.5736   9.5843   9.6029   9.6097   9.6512   9.6978   9.7043
     9.7273   9.7485   9.7823   9.8069   9.8120   9.8450   9.8749   9.8786
     9.9149   9.9543   9.9809   9.9919  10.0179  10.0383  10.0632  10.0800
    10.0893  10.1077  10.1548  10.1652  10.1725  10.1761  10.2136  10.2166
    10.2370  10.2403  10.2932  10.3157  10.3305  10.3353  10.3963  10.4297
    10.4336  10.4465  10.4731  10.4964  10.5178  10.5365  10.5606  10.5699
    10.6103  10.6267  10.6635  10.6657  10.7327  10.7384  10.7742  10.7908
    10.8125  10.8304  10.8510  10.8628  10.8846  10.9000  10.9267  10.9313
    10.9795  11.0021  11.0168  11.0479  11.0871  11.1187  11.1295  11.1503
    11.1562  11.1953  11.2097  11.2147  11.2257  11.2585  11.2984  11.3177
    11.3625  11.3975  11.4260  11.4321  11.4462  11.4972  11.5189  11.5493
    11.5918  11.6223  11.6443  11.6811  11.7023  11.7152  11.7260  11.7718
    11.7874  11.7969  11.8005  11.8585  11.8758  11.8897  11.9294  11.9489
    11.9622  11.9799  12.0237  12.0261  12.0626  12.0894  12.0995  12.1172
    12.1332  12.1499  12.1654  12.1718  12.1915  12.2056  12.2227  12.2628
    12.2682  12.3098  12.3211  12.3247

          k = 0.0000 0.0000 0.0354 (112488 PWs)   bands (ev):

   -21.7973 -21.6637 -20.9331 -20.6767 -20.5333 -20.3753 -19.7891 -19.4998
   -19.4057 -18.9690 -18.3810 -18.1497 -17.9745 -17.8767 -17.7769 -17.4446
   -17.1614 -16.9973 -16.6317 -16.1186 -15.3029 -15.2733 -14.7419 -14.7290
   -14.4860 -14.3837 -14.0555 -13.8940 -13.7046 -13.6139 -12.7973 -12.5340
   -12.4113 -12.2666 -12.0643 -11.8177 -11.4621 -11.0420 -10.8685 -10.7439
   -10.5082 -10.3011 -10.2492 -10.1351  -9.9920  -9.9084  -9.8270  -9.7708
    -9.7102  -9.6945  -9.4603  -9.4063  -9.3059  -9.0234  -8.8626  -8.8329
    -8.7342  -8.6285  -8.5743  -8.4797  -8.3494  -8.1754  -8.1592  -8.0383
    -7.9374  -7.8297  -7.7945  -7.5595  -7.5137  -7.2776  -7.1570  -6.8329
    -6.6998  -6.6319  -6.5035  -6.4209  -6.0798  -5.8008  -5.7040  -5.6274
    -5.4962  -4.9681  -4.9096  -4.7664  -4.1124  -3.6177  -1.9725  -1.4387
    -1.0041  -0.7731  -0.5917  -0.2691  -0.1093   0.0365   0.1783   0.3046
     0.4863   0.5333   0.5625   0.6273   0.8976   0.9731   1.1215   1.1941
     1.4116   1.4177   1.4833   1.6177   1.6928   1.7584   1.9288   1.9768
     1.9849   2.0582   2.0801   2.1104   2.1281   2.1363   2.2252   2.2921
     2.3273   2.3994   2.4193   2.4752   2.4984   2.5087   2.5572   2.5676
     2.5720   2.6160   2.6834   2.7569   2.7702   2.7783   2.8728   2.8938
     2.9022   2.9732   2.9969   3.0405   3.1204   3.2494   3.3176   3.3822
     3.3988   3.4163   3.4660   3.4819   3.5257   3.5281   3.5531   3.5831
     3.6129   3.6228   3.6973   3.7073   3.7359   3.7455   3.8181   3.8311
     3.8474   3.9605   3.9949   4.0806   4.0833   4.1118   4.1787   4.2017
     4.2620   4.2674   4.2858   4.3438   4.3641   4.3944   4.4254   4.4452
     4.4534   4.4834   4.4965   4.5671   4.5763   4.6183   4.6229   4.6331
     4.6873   4.6888   4.7435   4.7684   4.7723   4.7854   4.8402   4.8800
     4.9305   4.9403   4.9822   5.0444   5.0859   5.0864   5.0934   5.2247
     5.2384   5.2913   5.2949   5.3143   5.3204   5.3467   5.3485   5.4159
     5.4467   5.5138   5.5175   5.5454   5.5514   5.6095   5.6837   5.7091
     5.7573   5.7735   5.8657   5.9186   5.9205   5.9456   5.9610   5.9906
     6.0029   6.0698   6.1354   6.1402   6.1677   6.2186   6.2382   6.2686
     6.2834   6.3708   6.3877   6.4135   6.4488   6.4621   6.4627   6.5130
     6.5198   6.5521   6.5665   6.5757   6.5866   6.6034   6.6269   6.6373
     6.6521   6.6874   6.6987   6.7357   6.7414   6.7422   6.7747   6.7798
     6.8402   6.8769   6.8829   6.9326   6.9415   6.9686   6.9870   7.0266
     7.0289   7.0617   7.0654   7.0865   7.1202   7.1405   7.1700   7.2042
     7.2117   7.2490   7.2502   7.3148   7.3188   7.3422   7.3627   7.3812
     7.4299   7.4653   7.4792   7.4991   7.5216   7.5470   7.5773   7.6264
     7.6333   7.6375   7.7039   7.7234   7.7257   7.7522   7.7639   7.7865
     7.8010   7.8173   7.8436   7.8747   7.8891   7.9116   7.9221   7.9345
     7.9688   7.9801   7.9948   8.0079   8.0570   8.1188   8.1377   8.1393
     8.1753   8.1843   8.2060   8.2228   8.2514   8.2994   8.3210   8.3275
     8.3534   8.3875   8.3965   8.4041   8.4416   8.4605   8.4846   8.5003
     8.5076   8.5268   8.5425   8.5492   8.5728   8.5793   8.5979   8.6060
     8.6082   8.6373   8.6511   8.6745   8.6814   8.6818   8.7076   8.7240
     8.7242   8.7744   8.8013   8.8118   8.8159   8.8387   8.8549   8.8865
     8.8896   8.9123   8.9507   8.9602   9.0021   9.0194   9.0261   9.0355
     9.0658   9.1112   9.1809   9.1901   9.2304   9.2401   9.2721   9.3319
     9.3629   9.3668   9.3831   9.4086   9.4189   9.4491   9.4801   9.5279
     9.5496   9.5976   9.6147   9.6202   9.6274   9.6679   9.6985   9.7049
     9.7263   9.7500   9.7535   9.7766   9.7916   9.8542   9.8710   9.8893
     9.9628   9.9630   9.9654   9.9794  10.0423  10.0431  10.0677  10.0751
    10.1054  10.1245  10.1258  10.1666  10.1671  10.1866  10.2026  10.2041
    10.2354  10.2558  10.2618  10.3059  10.3152  10.3418  10.3629  10.3938
    10.4104  10.4551  10.4770  10.5187  10.5227  10.5332  10.5558  10.5925
    10.6117  10.6413  10.6743  10.6804  10.7229  10.7336  10.7682  10.7925
    10.8195  10.8236  10.8313  10.8509  10.8857  10.8909  10.9233  10.9348
    10.9580  10.9633  10.9969  11.0485  11.1108  11.1254  11.1320  11.1371
    11.1829  11.1935  11.1985  11.2026  11.2439  11.2749  11.3278  11.3330
    11.3840  11.4325  11.4526  11.4530  11.4603  11.5034  11.5235  11.5733
    11.5954  11.6090  11.6675  11.6855  11.7200  11.7329  11.7503  11.7869
    11.8164  11.8201  11.8266  11.8469  11.8774  11.8836  11.9202  11.9271
    11.9581  11.9847  12.0056  12.0188  12.0292  12.1150  12.1213  12.1406
    12.1500  12.1503  12.1619  12.1685  12.2117  12.2266  12.2298  12.2669
    12.2669  12.3095  12.3260  12.3314

          k = 0.0000 0.0000 0.0369 (112482 PWs)   bands (ev):

   -21.7944 -21.6680 -20.9319 -20.6758 -20.5121 -20.4009 -19.7826 -19.4956
   -19.4165 -18.9710 -18.3759 -18.1004 -18.0010 -17.9027 -17.7793 -17.4343
   -17.1599 -17.0049 -16.6342 -16.1172 -15.3031 -15.2795 -14.7407 -14.6718
   -14.5390 -14.3811 -14.0152 -13.9077 -13.7278 -13.6209 -12.7995 -12.5307
   -12.4190 -12.2575 -12.0618 -11.8233 -11.4634 -11.0243 -10.8897 -10.7465
   -10.4529 -10.3239 -10.2459 -10.1377 -10.0051  -9.9012  -9.8227  -9.7692
    -9.7299  -9.7006  -9.4562  -9.3962  -9.3231  -9.0262  -8.8611  -8.8305
    -8.7323  -8.6002  -8.5759  -8.5099  -8.3154  -8.2122  -8.1382  -8.0589
    -7.9270  -7.8248  -7.8062  -7.5533  -7.5148  -7.2646  -7.1760  -6.8151
    -6.7025  -6.6467  -6.4821  -6.4403  -6.0745  -5.7928  -5.6569  -5.6351
    -5.5485  -4.9668  -4.8732  -4.7988  -4.1100  -3.6228  -1.9688  -1.4370
    -1.0001  -0.7758  -0.5994  -0.2690  -0.0536   0.0466   0.1305   0.2808
     0.4984   0.5410   0.5494   0.6168   0.9110   0.9576   1.1356   1.1782
     1.4168   1.4331   1.4663   1.6166   1.7056   1.7436   1.9462   1.9807
     2.0030   2.0402   2.1005   2.1083   2.1410   2.1667   2.1917   2.2781
     2.3270   2.3690   2.4079   2.4869   2.5060   2.5160   2.5527   2.5531
     2.6046   2.6325   2.6648   2.7078   2.7796   2.8230   2.8613   2.8959
     2.9093   2.9404   2.9872   3.0271   3.1630   3.2523   3.3023   3.3636
     3.4053   3.4273   3.4514   3.4743   3.5293   3.5535   3.5745   3.5746
     3.6147   3.6314   3.6902   3.6940   3.7407   3.7455   3.7977   3.8215
     3.8642   3.9522   4.0386   4.0937   4.1113   4.1177   4.1649   4.1936
     4.2380   4.2471   4.3080   4.3422   4.3570   4.3803   4.4328   4.4466
     4.4691   4.4780   4.5087   4.5343   4.5836   4.6261   4.6313   4.6334
     4.6639   4.6809   4.7287   4.7572   4.7649   4.7809   4.8509   4.8835
     4.9121   4.9334   4.9759   5.0458   5.0830   5.1297   5.1400   5.2116
     5.2364   5.2784   5.2812   5.3062   5.3400   5.3616   5.3801   5.3932
     5.4603   5.4675   5.4954   5.5022   5.5488   5.6093   5.6903   5.7160
     5.7465   5.7811   5.8912   5.9275   5.9420   5.9523   5.9527   5.9898
     6.0306   6.0538   6.1312   6.1441   6.1487   6.2144   6.2642   6.2739
     6.2909   6.3754   6.4121   6.4292   6.4411   6.4605   6.4872   6.4938
     6.5127   6.5424   6.5486   6.5797   6.5869   6.6316   6.6401   6.6591
     6.6706   6.6822   6.6911   6.7151   6.7217   6.7439   6.7552   6.7721
     6.8401   6.8609   6.8874   6.8939   6.9277   6.9497   6.9695   7.0215
     7.0359   7.0598   7.0814   7.1032   7.1526   7.1530   7.1835   7.2036
     7.2138   7.2331   7.2350   7.2970   7.3180   7.3410   7.3476   7.3891
     7.4311   7.4478   7.4938   7.5419   7.5502   7.5639   7.5831   7.6263
     7.6521   7.6645   7.7094   7.7161   7.7231   7.7367   7.7733   7.7887
     7.7989   7.8201   7.8496   7.8643   7.8909   7.9014   7.9322   7.9560
     7.9611   7.9741   7.9908   8.0310   8.0542   8.0806   8.1005   8.1401
     8.1408   8.1830   8.1943   8.1973   8.2289   8.2559   8.3380   8.3391
     8.3628   8.3957   8.3960   8.4291   8.4600   8.4678   8.5009   8.5071
     8.5203   8.5455   8.5467   8.5656   8.5847   8.5905   8.5972   8.6117
     8.6364   8.6374   8.6587   8.6825   8.6895   8.6970   8.7385   8.7462
     8.7469   8.7622   8.7814   8.7935   8.7953   8.8153   8.8293   8.8360
     8.8735   8.8788   8.9180   8.9186   8.9821   8.9845   9.0149   9.0695
     9.0747   9.1066   9.1828   9.1933   9.2373   9.2410   9.2683   9.3275
     9.3335   9.3500   9.3787   9.4106   9.4465   9.4607   9.4727   9.5370
     9.5548   9.6211   9.6309   9.6345   9.6399   9.6799   9.6852   9.6925
     9.7143   9.7315   9.7581   9.7726   9.7864   9.8457   9.8595   9.8893
     9.9620   9.9757   9.9820  10.0231  10.0296  10.0490  10.0707  10.0788
    10.0892  10.1262  10.1446  10.1512  10.1696  10.1758  10.1911  10.2142
    10.2308  10.2699  10.2777  10.2845  10.3051  10.3153  10.3497  10.3581
    10.4062  10.4484  10.4678  10.4962  10.5275  10.5567  10.5885  10.6106
    10.6244  10.6604  10.6753  10.6889  10.7042  10.7357  10.7513  10.7969
    10.8118  10.8158  10.8309  10.8442  10.8859  10.8957  10.9184  10.9279
    10.9374  10.9470  10.9882  11.0446  11.1153  11.1193  11.1301  11.1435
    11.1821  11.1894  11.2000  11.2150  11.2676  11.2710  11.3360  11.3412
    11.3962  11.4393  11.4677  11.4689  11.5084  11.5161  11.5288  11.5796
    11.5899  11.6017  11.6821  11.7004  11.7465  11.7516  11.7596  11.7952
    11.8109  11.8329  11.8455  11.8486  11.8688  11.8845  11.9019  11.9174
    11.9272  11.9777  12.0012  12.0112  12.0487  12.0981  12.1208  12.1218
    12.1494  12.1626  12.1843  12.1880  12.2394  12.2410  12.2498  12.2624
    12.2758  12.3053  12.3183  12.3257

          k = 0.0000 0.0000-0.0384 (112454 PWs)   bands (ev):

   -21.7934 -21.6695 -20.9315 -20.6756 -20.5022 -20.4123 -19.7804 -19.4940
   -19.4205 -18.9716 -18.3742 -18.0683 -18.0262 -17.9109 -17.7800 -17.4308
   -17.1594 -17.0076 -16.6351 -16.1167 -15.3030 -15.2817 -14.7404 -14.6344
   -14.5750 -14.3801 -13.9963 -13.9171 -13.7362 -13.6232 -12.8002 -12.5295
   -12.4217 -12.2544 -12.0610 -11.8252 -11.4639 -11.0169 -10.8983 -10.7474
   -10.4219 -10.3467 -10.2423 -10.1381 -10.0095  -9.8991  -9.8211  -9.7655
    -9.7394  -9.7027  -9.4552  -9.3902  -9.3310  -9.0271  -8.8606  -8.8297
    -8.7320  -8.5838  -8.5764  -8.5267  -8.2961  -8.2324  -8.1279  -8.0691
    -7.9232  -7.8205  -7.8132  -7.5512  -7.5152  -7.2587  -7.1840  -6.8084
    -6.7035  -6.6524  -6.4648  -6.4569  -6.0726  -5.7905  -5.6394  -5.6149
    -5.5901  -4.9664  -4.8455  -4.8250  -4.1091  -3.6245  -1.9675  -1.4364
    -0.9986  -0.7769  -0.6019  -0.2690  -0.0217   0.0409   0.1110   0.2722
     0.5043   0.5400   0.5473   0.6127   0.9182   0.9498   1.1436   1.1695
     1.4185   1.4469   1.4520   1.6162   1.7134   1.7352   1.9544   1.9789
     2.0183   2.0248   2.1076   2.1138   2.1471   2.1746   2.1792   2.2702
     2.3290   2.3565   2.4035   2.4921   2.5058   2.5288   2.5393   2.5468
     2.6422   2.6441   2.6519   2.6700   2.7834   2.8536   2.8567   2.8833
     2.9122   2.9269   2.9835   3.0223   3.2028   3.2163   3.3260   3.3374
     3.4145   3.4290   3.4509   3.4634   3.5344   3.5615   3.5692   3.5864
     3.6114   3.6398   3.6847   3.6868   3.7406   3.7628   3.7735   3.8107
     3.8950   3.9300   4.0668   4.1011   4.1165   4.1362   4.1491   4.1677
     4.2210   4.2911   4.2915   4.3123   4.3751   4.3985   4.4047   4.4421
     4.4820   4.4935   4.5017   4.5456   4.5528   4.6278   4.6315   4.6570
     4.6685   4.6779   4.6913   4.7626   4.7632   4.7801   4.8571   4.8852
     4.9037   4.9304   4.9733   5.0462   5.0819   5.1586   5.1824   5.1897
     5.1990   5.2663   5.3016   5.3131   5.3293   5.3604   5.3996   5.4185
     5.4452   5.4526   5.4686   5.4942   5.5484   5.6093   5.6931   5.7197
     5.7406   5.7829   5.8973   5.9328   5.9467   5.9470   5.9827   5.9877
     6.0236   6.0492   6.1084   6.1474   6.1628   6.1974   6.2690   6.2704
     6.3584   6.3595   6.3849   6.4421   6.4469   6.4511   6.4709   6.5029
     6.5164   6.5385   6.5517   6.5703   6.5899   6.6423   6.6558   6.6562
     6.6789   6.6836   6.7024   6.7032   6.7051   6.7372   6.7726   6.7749
     6.8127   6.8471   6.8898   6.8917   6.9238   6.9353   6.9696   7.0180
     7.0427   7.0533   7.0804   7.1206   7.1557   7.1763   7.1965   7.1978
     7.2135   7.2208   7.2239   7.2905   7.3184   7.3298   7.3498   7.3928
     7.4293   7.4418   7.4925   7.5464   7.5760   7.5864   7.5917   7.6373
     7.6458   7.6740   7.6907   7.7057   7.7111   7.7343   7.7811   7.7960
     7.8151   7.8252   7.8399   7.8585   7.9014   7.9018   7.9064   7.9527
     7.9699   7.9860   8.0123   8.0200   8.0634   8.0642   8.0971   8.1293
     8.1342   8.1506   8.2062   8.2118   8.2139   8.2219   8.3455   8.3607
     8.3646   8.3736   8.4023   8.4582   8.4627   8.4668   8.4893   8.5078
     8.5347   8.5398   8.5485   8.5758   8.5813   8.5879   8.5894   8.6218
     8.6633   8.6669   8.6823   8.6969   8.6970   8.7066   8.7123   8.7282
     8.7429   8.7672   8.7689   8.7912   8.7948   8.8093   8.8255   8.8392
     8.8458   8.8496   8.8957   8.9441   8.9510   8.9630   9.0183   9.0735
     9.1035   9.1250   9.1288   9.1977   9.2487   9.2668   9.2764   9.2956
     9.3197   9.3473   9.3725   9.4228   9.4460   9.4569   9.4893   9.5567
     9.5593   9.5937   9.6427   9.6429   9.6430   9.6671   9.6865   9.6995
     9.7212   9.7318   9.7491   9.7621   9.7949   9.8397   9.8519   9.8850
     9.9652   9.9943  10.0074  10.0126  10.0146  10.0564  10.0721  10.0830
    10.0875  10.1294  10.1426  10.1464  10.1666  10.1741  10.1841  10.2183
    10.2395  10.2651  10.2904  10.2942  10.3019  10.3038  10.3262  10.3359
    10.4252  10.4387  10.4647  10.4785  10.5295  10.5690  10.6079  10.6101
    10.6373  10.6756  10.6810  10.6829  10.6891  10.7386  10.7388  10.8016
    10.8073  10.8101  10.8326  10.8418  10.8885  10.8989  10.9143  10.9160
    10.9383  10.9432  10.9851  11.0411  11.1079  11.1161  11.1409  11.1473
    11.1729  11.1873  11.2008  11.2352  11.2593  11.2777  11.3387  11.3396
    11.4027  11.4438  11.4712  11.4755  11.5103  11.5326  11.5331  11.5658
    11.5856  11.6452  11.6779  11.7057  11.7267  11.7517  11.7800  11.8063
    11.8069  11.8184  11.8551  11.8703  11.8736  11.8782  11.8812  11.8939
    11.9418  11.9835  11.9905  12.0075  12.0517  12.0789  12.1285  12.1412
    12.1477  12.1527  12.1823  12.1968  12.2335  12.2464  12.2603  12.2683
    12.2841  12.2980  12.3165  12.3329

     the Fermi energy is    -3.1596 ev

     Writing output data file C_2Z_2A_W7.save/

     init_run     :     14.77s CPU     15.11s WALL (       1 calls)
     electrons    :   7348.47s CPU   7452.98s WALL (       1 calls)

     Called by init_run:
     wfcinit      :      0.00s CPU      0.00s WALL (       1 calls)
     potinit      :      1.10s CPU      1.20s WALL (       1 calls)
     hinit0       :     11.47s CPU     11.59s WALL (       1 calls)

     Called by electrons:
     c_bands      :   7348.46s CPU   7452.79s WALL (       1 calls)
     v_of_rho     :      0.82s CPU      0.87s WALL (       1 calls)
     newd         :      0.66s CPU      0.76s WALL (       1 calls)

     Called by c_bands:
     init_us_2    :      0.32s CPU      0.36s WALL (      26 calls)
     cegterg      :   7166.63s CPU   7263.94s WALL (      82 calls)

     Called by sum_band:

     Called by *egterg:
     h_psi        :   2260.21s CPU   2318.65s WALL (    1481 calls)
     s_psi        :    126.89s CPU    127.02s WALL (    1481 calls)
     g_psi        :     10.45s CPU     10.46s WALL (    1373 calls)
     cdiaghg      :   2382.36s CPU   2384.08s WALL (    1399 calls)

     Called by h_psi:
     h_psi:pot    :   2255.16s CPU   2310.78s WALL (    1481 calls)
     h_psi:calbec :    156.51s CPU    158.55s WALL (    1481 calls)
     vloc_psi     :   1971.64s CPU   2025.12s WALL (    1481 calls)
     add_vuspsi   :    126.99s CPU    127.09s WALL (    1481 calls)

     General routines
     calbec       :    156.50s CPU    158.51s WALL (    1481 calls)
     fft          :      1.37s CPU      1.43s WALL (      14 calls)
     ffts         :      0.01s CPU      0.01s WALL (       1 calls)
     fftw         :   1875.16s CPU   1928.13s WALL (  517282 calls)
     interpolate  :      0.09s CPU      0.09s WALL (       1 calls)
     davcio       :      0.00s CPU      2.66s WALL (      52 calls)

     Parallel routines
     fft_scatt_xy :    128.74s CPU    129.26s WALL (  517297 calls)
     fft_scatt_yz :   1337.22s CPU   1388.11s WALL (  517297 calls)

     PWSCF        :     2h 3m CPU        3h 2m WALL

       9h

   This run was terminated on:   1: 8:55  29Apr2021            

=------------------------------------------------------------------------------=
   JOB DONE.
=------------------------------------------------------------------------------=
