
     Program PWSCF v.6.3 starts on 17May2021 at 19:37:46 

     This program is part of the open-source Quantum ESPRESSO suite
     for quantum simulation of materials; please cite
         "P. Giannozzi et al., J. Phys.:Condens. Matter 21 395502 (2009);
         "P. Giannozzi et al., J. Phys.:Condens. Matter 29 465901 (2017);
          URL http://www.quantum-espresso.org", 
     in publications or presentations arising from this work. More details at
     http://www.quantum-espresso.org/quote

     Parallel version (MPI), running on    16 processors
     R & G space division:  proc/nbgrp/npool/nimage =      16
     Waiting for input...
     Reading input from standard input
     Message from routine read_cards :
     DEPRECATED: no units specified in CELL_PARAMETERS card

     Current dimensions of program PWSCF are:
     Max number of different atomic species (ntypx) = 10
     Max number of k-points (npk) =  40000
     Max angular momentum in pseudopotentials (lmaxx) =  3

     Atomic positions and unit cell read from directory:
     /home/zfwang/scratch/GNRDATASET/AGNR/C_2Z_3A_W7/C_2Z_3A_W7.save/


     Subspace diagonalization in iterative solution of the eigenvalue problem:
     a serial algorithm will be used


     Parallelization info
     --------------------
     sticks:   dense  smooth     PW     G-vecs:    dense   smooth      PW
     Min        2556     852    219               386920    74458    9737
     Max        2557     853    220               386925    74461    9740
     Sum       40909   13645   3513              6190751  1191359  155811



     bravais-lattice index     =            0
     lattice parameter (alat)  =       1.8897  a.u.
     unit-cell volume          =   34861.8960 (a.u.)^3
     number of atoms/cell      =           68
     number of atomic types    =            2
     number of electrons       =       224.00
     number of Kohn-Sham states=          500
     kinetic-energy cutoff     =      40.0000  Ry
     charge density cutoff     =     480.0000  Ry
     Exchange-correlation      = PBE ( 1  4  3  4 0 0)

     celldm(1)=  18.897261  celldm(2)=   3.000000  celldm(3)=   1.722000
     celldm(4)=   0.000000  celldm(5)=   0.000000  celldm(6)=   0.000000

     crystal axes: (cart. coord. in units of alat)
               a(1) = (  10.000000   0.000000   0.000000 )  
               a(2) = (   0.000000  30.000000   0.000000 )  
               a(3) = (   0.000000   0.000000  17.220000 )  

     reciprocal axes: (cart. coord. in units 2 pi/alat)
               b(1) = (  0.100000  0.000000  0.000000 )  
               b(2) = (  0.000000  0.033333  0.000000 )  
               b(3) = (  0.000000  0.000000  0.058072 )  


     PseudoPot. # 1 for C  read from file:
     /home/zfwang/hp_home/MySoftware/qe-6.3/pseudo/C.pbe-n-rrkjus_psl.0.1.UPF
     MD5 check sum: fff530ed632a789b3b184014e67dd7f1
     Pseudo is Ultrasoft + core correction, Zval =  4.0
     Generated using "atomic" code by A. Dal Corso v.5.0.2 svn rev. 9415
     Using radial grid of 1073 points,  4 beta functions with: 
                l(1) =   0
                l(2) =   0
                l(3) =   1
                l(4) =   1
     Q(r) pseudized with 0 coefficients 


     PseudoPot. # 2 for H  read from file:
     /home/zfwang/hp_home/MySoftware/qe-6.3/pseudo/H.pbe-rrkjus_psl.0.1.UPF
     MD5 check sum: e164a6907b691c6980f16942be34de84
     Pseudo is Ultrasoft, Zval =  1.0
     Generated using "atomic" code by A. Dal Corso v.5.0.2 svn rev. 9415
     Using radial grid of  929 points,  2 beta functions with: 
                l(1) =   0
                l(2) =   0
     Q(r) pseudized with 0 coefficients 


     atomic species   valence    mass     pseudopotential
        C              4.00    12.01070     C ( 1.00)
        H              1.00     1.00794     H ( 1.00)

     No symmetry found



   Cartesian axes

     site n.     atom                  positions (alat units)
         1           C   tau(   1) = (   4.9999994  10.7839981   3.4131390  )
         2           C   tau(   2) = (   4.9999992  11.4128653   7.6526609  )
         3           C   tau(   3) = (   5.0000006  12.0326109  11.8732480  )
         4           C   tau(   4) = (   4.9999998  12.6458017  16.0952796  )
         5           C   tau(   5) = (   4.9999998  11.8912467   2.5179010  )
         6           C   tau(   6) = (   4.9999998  12.4984457   6.7472595  )
         7           C   tau(   7) = (   5.0000002  13.1200201  10.9822424  )
         8           C   tau(   8) = (   5.0000001  13.7171826  15.2207428  )
         9           C   tau(   9) = (   5.0000002  13.2182902   3.0626752  )
        10           C   tau(  10) = (   4.9999999  13.8231244   7.2752839  )
        11           C   tau(  11) = (   5.0000002  14.4355859  11.5110167  )
        12           C   tau(  12) = (   5.0000002  15.0549973  15.7397901  )
        13           C   tau(  13) = (   4.9999996  10.9775719   4.7626726  )
        14           C   tau(  14) = (   4.9999994  11.6156128   9.0032923  )
        15           C   tau(  15) = (   5.0000008  12.2270695  13.2318269  )
        16           C   tau(  16) = (   4.9999997  11.7190583   1.1377631  )
        17           C   tau(  17) = (   4.9999998  12.2865433   5.3329728  )
        18           C   tau(  18) = (   4.9999999  12.9178559   9.5564805  )
        19           C   tau(  19) = (   5.0000003  13.5178726  13.7861753  )
        20           C   tau(  20) = (   5.0000003  14.3367111   2.1951296  )
        21           C   tau(  21) = (   5.0000001  14.9443748   6.4001287  )
        22           C   tau(  22) = (   5.0000002  15.5635655  10.6290587  )
        23           C   tau(  23) = (   5.0000003  16.1762440  14.8646820  )
        24           C   tau(  24) = (   5.0000001  15.6626805   2.7246713  )
        25           C   tau(  25) = (   5.0000001  16.2821950   6.9191618  )
        26           C   tau(  26) = (   5.0000001  16.8791328  11.1578116  )
        27           C   tau(  27) = (   5.0000000  17.5009048  15.3926325  )
        28           C   tau(  28) = (   5.0000000  12.8185211   0.2683965  )
        29           C   tau(  29) = (   5.0000000  13.4076151   4.4700068  )
        30           C   tau(  30) = (   4.9999998  14.0282065   8.6879499  )
        31           C   tau(  31) = (   5.0000004  14.6358297  12.9203282  )
        32           C   tau(  32) = (   5.0000002  14.1480464   0.7971846  )
        33           C   tau(  33) = (   5.0000002  14.7375531   5.0017528  )
        34           C   tau(  34) = (   5.0000000  15.3634900   9.2197253  )
        35           C   tau(  35) = (   5.0000005  15.9711199  13.4520580  )
        36           C   tau(  36) = (   5.0000003  16.7811005   1.8571454  )
        37           C   tau(  37) = (   5.0000001  17.3535889   6.0445881  )
        38           C   tau(  38) = (   5.0000002  17.9665307  10.2668037  )
        39           C   tau(  39) = (   4.9999998  18.5864437  14.4872267  )
        40           C   tau(  40) = (   5.0000003  18.1081278   2.4018877  )
        41           C   tau(  41) = (   5.0000001  15.2618651  17.1380967  )
        42           C   tau(  42) = (   5.0000002  15.8513737   4.1226350  )
        43           C   tau(  43) = (   4.9999999  16.4814457   8.3537987  )
        44           C   tau(  44) = (   5.0000001  17.0814311  12.5835255  )
        45           C   tau(  45) = (   5.0000002  17.7128560  16.8068844  )
        46           C   tau(  46) = (   5.0000003  16.5917909   0.4498179  )
        47           C   tau(  47) = (   5.0000003  17.1809015   4.6514204  )
        48           C   tau(  48) = (   5.0000001  17.7722423   8.9081922  )
        49           C   tau(  49) = (   4.9999999  18.3837286  13.1365782  )
        50           C   tau(  50) = (   5.0000001  19.0218099   0.1571699  )
        51           C   tau(  51) = (   5.0000002  19.2153735   1.5066578  )
        52           C   tau(  52) = (   5.0000004  18.2803677   3.7820193  )
        53           H   tau(  53) = (   4.9999992   9.7745542   2.9976612  )
        54           H   tau(  54) = (   4.9999991  10.3912991   7.2803784  )
        55           H   tau(  55) = (   5.0000009  11.0124724  11.4982770  )
        56           H   tau(  56) = (   4.9999997  11.6217410  15.7267678  )
        57           H   tau(  57) = (   4.9999993  10.1056304   5.4123838  )
        58           H   tau(  58) = (   4.9999988  10.7458205   9.6548322  )
        59           H   tau(  59) = (   5.0000014  11.3510667  13.8758853  )
        60           H   tau(  60) = (   4.9999993  10.7092987   0.7202233  )
        61           H   tau(  61) = (   4.9999997  18.3776061   6.4131845  )
        62           H   tau(  62) = (   5.0000006  18.9866165  10.6418668  )
        63           H   tau(  63) = (   4.9999992  19.6079552  14.8595502  )
        64           H   tau(  64) = (   5.0000006  18.6483198   8.2642117  )
        65           H   tau(  65) = (   4.9999992  19.2535253  12.4850462  )
        66           H   tau(  66) = (   5.0000000  19.8937745  16.7274930  )
        67           H   tau(  67) = (   5.0000004  20.2248738   1.9220268  )
        68           H   tau(  68) = (   5.0000003  19.2902096   4.1993038  )

     number of k points=    26  Marzari-Vanderbilt smearing, width (Ry)=  0.0100
                       cart. coord. in units 2pi/alat
        k(    1) = (   0.0000000   0.0000000   0.0000000), wk =   0.0400000
        k(    2) = (   0.0000000   0.0000000   0.0011614), wk =   0.0800000
        k(    3) = (   0.0000000   0.0000000   0.0023229), wk =   0.0800000
        k(    4) = (   0.0000000   0.0000000   0.0034843), wk =   0.0800000
        k(    5) = (   0.0000000   0.0000000   0.0046458), wk =   0.0800000
        k(    6) = (   0.0000000   0.0000000   0.0058072), wk =   0.0800000
        k(    7) = (   0.0000000   0.0000000   0.0069686), wk =   0.0800000
        k(    8) = (   0.0000000   0.0000000   0.0081301), wk =   0.0800000
        k(    9) = (   0.0000000   0.0000000   0.0092915), wk =   0.0800000
        k(   10) = (   0.0000000   0.0000000   0.0104530), wk =   0.0800000
        k(   11) = (   0.0000000   0.0000000   0.0116144), wk =   0.0800000
        k(   12) = (   0.0000000   0.0000000   0.0127758), wk =   0.0800000
        k(   13) = (   0.0000000   0.0000000   0.0139373), wk =   0.0800000
        k(   14) = (   0.0000000   0.0000000   0.0150987), wk =   0.0800000
        k(   15) = (   0.0000000   0.0000000   0.0162602), wk =   0.0800000
        k(   16) = (   0.0000000   0.0000000   0.0174216), wk =   0.0800000
        k(   17) = (   0.0000000   0.0000000   0.0185830), wk =   0.0800000
        k(   18) = (   0.0000000   0.0000000   0.0197445), wk =   0.0800000
        k(   19) = (   0.0000000   0.0000000   0.0209059), wk =   0.0800000
        k(   20) = (   0.0000000   0.0000000   0.0220674), wk =   0.0800000
        k(   21) = (   0.0000000   0.0000000   0.0232288), wk =   0.0800000
        k(   22) = (   0.0000000   0.0000000   0.0243902), wk =   0.0800000
        k(   23) = (   0.0000000   0.0000000   0.0255517), wk =   0.0800000
        k(   24) = (   0.0000000   0.0000000   0.0267131), wk =   0.0800000
        k(   25) = (   0.0000000   0.0000000   0.0278746), wk =   0.0800000
        k(   26) = (   0.0000000   0.0000000  -0.0290360), wk =   0.0400000

     Dense  grid:  6190751 G-vectors     FFT dimensions: ( 135, 400, 240)

     Smooth grid:  1191359 G-vectors     FFT dimensions: (  80, 240, 135)

     Estimated max dynamical RAM per process >       1.26 GB

     Estimated total dynamical RAM >      20.20 GB

     The potential is recalculated from file :
     /home/zfwang/scratch/GNRDATASET/AGNR/C_2Z_3A_W7/C_2Z_3A_W7.save/charge-density.dat


     negative rho (up, down):  4.208E-04 0.000E+00
     Starting wfcs are  224 randomized atomic wfcs +  276 random wfcs

     Band Structure Calculation
     Davidson diagonalization with overlap

     ethr =  4.46E-09,  avg # of iterations = 59.0

     total cpu time spent up to now is    11744.3 secs

     End of band structure calculation

          k = 0.0000 0.0000 0.0000 (148769 PWs)   bands (ev):

   -21.9004 -21.5527 -21.5035 -20.9701 -20.5835 -20.5755 -20.4592 -20.3587
   -19.7224 -19.4678 -19.4675 -18.9761 -18.8526 -18.6727 -18.6141 -18.3180
   -17.9602 -17.9224 -17.7798 -17.5296 -17.1365 -16.9493 -16.9477 -16.6701
   -16.4474 -16.0359 -15.5359 -15.4296 -15.2801 -15.1003 -14.7830 -14.5358
   -14.4433 -14.4099 -14.2512 -13.7116 -13.6092 -13.2300 -13.2078 -12.8373
   -12.5953 -12.5041 -12.4736 -12.3379 -12.2043 -11.9760 -11.9211 -11.7064
   -11.2244 -11.1081 -10.7694 -10.6360 -10.5183 -10.4159 -10.4033 -10.3364
   -10.2046 -10.0435  -9.9773  -9.9576  -9.8318  -9.7807  -9.6389  -9.5584
    -9.5428  -9.4973  -9.3940  -9.3215  -9.2853  -9.2277  -8.9333  -8.9098
    -8.7693  -8.7187  -8.6757  -8.6241  -8.4561  -8.4350  -8.2938  -8.2547
    -8.2201  -8.1830  -8.1558  -8.0994  -7.9411  -7.9128  -7.7694  -7.5009
    -7.4963  -7.2236  -7.2184  -7.1792  -7.1422  -6.8282  -6.7968  -6.6732
    -6.5860  -6.3313  -6.2897  -6.2360  -6.1973  -5.9906  -5.7709  -5.7399
    -5.2861  -5.2762  -5.0059  -4.7425  -4.6314  -4.4915  -4.0030  -3.2543
    -2.3490  -1.5560  -1.2481  -1.0356  -1.0267  -0.8413  -0.4402  -0.3437
    -0.0759   0.0362   0.1305   0.2985   0.3478   0.7022   0.7523   0.7885
     0.8083   0.8250   0.8389   0.8456   0.9284   1.1836   1.1969   1.2123
     1.2421   1.3857   1.4167   1.4258   1.5062   1.6038   1.6776   1.7312
     1.7917   1.8284   1.9522   1.9667   2.0380   2.0428   2.0531   2.0920
     2.1748   2.1894   2.2062   2.2156   2.2732   2.2850   2.2982   2.3218
     2.3560   2.3795   2.3952   2.4296   2.5839   2.6049   2.6094   2.6409
     2.6790   2.6893   2.6961   2.7446   2.7585   2.7999   2.8029   2.8165
     2.8989   2.9091   2.9119   2.9135   3.0720   3.1177   3.1266   3.1613
     3.1782   3.2008   3.2075   3.2095   3.2252   3.2402   3.3366   3.3734
     3.4007   3.4163   3.4436   3.4520   3.6299   3.6364   3.6603   3.6927
     3.7020   3.7084   3.7122   3.7193   3.7557   3.8081   3.8338   3.8638
     3.8932   3.9133   3.9153   3.9235   3.9559   3.9629   3.9935   4.0636
     4.0724   4.1037   4.1091   4.1105   4.1535   4.2073   4.2200   4.2340
     4.2394   4.2482   4.2890   4.3112   4.3314   4.3445   4.3865   4.4274
     4.4298   4.4711   4.5647   4.5650   4.5856   4.5861   4.5868   4.6465
     4.6690   4.6763   4.6971   4.7188   4.7729   4.7851   4.8808   4.9121
     4.9308   4.9457   4.9512   4.9703   5.0279   5.0418   5.0989   5.1088
     5.1357   5.1426   5.1568   5.1676   5.1983   5.2020   5.2111   5.2240
     5.2873   5.3006   5.3197   5.3266   5.3576   5.3864   5.3994   5.4201
     5.4241   5.4292   5.4430   5.4568   5.4596   5.4690   5.4709   5.5578
     5.6361   5.6409   5.6860   5.7223   5.7316   5.7804   5.7959   5.8497
     5.8567   5.8729   5.8861   5.9190   5.9249   5.9472   5.9586   5.9627
     6.0414   6.0531   6.0611   6.0952   6.1278   6.1463   6.1723   6.1806
     6.2080   6.2607   6.2709   6.3162   6.3182   6.3184   6.3977   6.4217
     6.4301   6.4322   6.4733   6.4939   6.5001   6.5137   6.5283   6.5464
     6.5521   6.5545   6.5992   6.5996   6.6133   6.6311   6.6478   6.6614
     6.6762   6.7214   6.7308   6.7351   6.7722   6.7889   6.7889   6.8094
     6.8098   6.8170   6.8293   6.8303   6.8813   6.9007   6.9113   6.9187
     6.9270   6.9417   6.9455   6.9773   6.9870   7.0058   7.0283   7.0373
     7.0610   7.0689   7.0985   7.1029   7.1190   7.1471   7.1590   7.1682
     7.2105   7.2185   7.2223   7.2607   7.2733   7.2786   7.3235   7.3291
     7.3392   7.3551   7.3605   7.3702   7.4547   7.4740   7.4950   7.5167
     7.5376   7.5436   7.5507   7.5721   7.6382   7.6523   7.6527   7.6842
     7.6885   7.7102   7.7220   7.7241   7.7353   7.7360   7.7505   7.7717
     7.7806   7.8062   7.8094   7.8356   7.8443   7.8639   7.8782   7.8801
     7.8920   7.9173   7.9718   7.9931   7.9976   8.0000   8.0460   8.0471
     8.0868   8.0943   8.1104   8.1198   8.1553   8.1910   8.1987   8.2251
     8.2534   8.2874   8.3452   8.3486   8.3511   8.3851   8.3926   8.4211
     8.4302   8.4482   8.4708   8.4714   8.4769   8.5151   8.5258   8.5549
     8.5582   8.5586   8.5756   8.5764   8.5924   8.5987   8.6459   8.6703
     8.6736   8.6834   8.6869   8.7230   8.7397   8.7451   8.7575   8.8065
     8.8160   8.8189   8.8207   8.8379   8.8441   8.8550   8.8715   8.8902
     8.8974   8.9025   8.9076   8.9231   8.9352   8.9411   8.9509   8.9767
     8.9771   8.9777   9.0075   9.0226   9.0428   9.0751   9.0985   9.1379
     9.1392   9.1860   9.1947   9.2006   9.2319   9.2571   9.2618   9.2723
     9.2987   9.2997   9.3457   9.3532   9.3678   9.3684   9.4048   9.4485
     9.4582   9.4874   9.5063   9.5197   9.5222   9.5346   9.5642   9.5681
     9.5764   9.5771   9.5871   9.6200

          k = 0.0000 0.0000 0.0012 (148797 PWs)   bands (ev):

   -21.9003 -21.5562 -21.4998 -20.9701 -20.5961 -20.5636 -20.4628 -20.3538
   -19.7238 -19.4814 -19.4523 -18.9775 -18.8520 -18.6881 -18.5972 -18.3197
   -17.9621 -17.9202 -17.7805 -17.5274 -17.1365 -16.9561 -16.9420 -16.6731
   -16.4471 -16.0341 -15.5394 -15.4254 -15.2806 -15.0980 -14.7833 -14.5381
   -14.4514 -14.4013 -14.2506 -13.7178 -13.6032 -13.2661 -13.1711 -12.8382
   -12.5987 -12.5035 -12.4709 -12.3397 -12.2026 -11.9769 -11.9215 -11.7028
   -11.2253 -11.1071 -10.7718 -10.6391 -10.5162 -10.4432 -10.3786 -10.3371
   -10.2006 -10.0420  -9.9788  -9.9574  -9.8431  -9.7672  -9.6439  -9.5536
    -9.5480  -9.4918  -9.3955  -9.3214  -9.2872  -9.2250  -8.9325  -8.9097
    -8.7703  -8.7288  -8.6667  -8.6227  -8.4653  -8.4261  -8.2987  -8.2640
    -8.2158  -8.1727  -8.1639  -8.0909  -7.9418  -7.9126  -7.7691  -7.5019
    -7.4969  -7.2429  -7.1980  -7.1937  -7.1274  -6.8397  -6.7855  -6.6747
    -6.5846  -6.3316  -6.3110  -6.2143  -6.1976  -5.9920  -5.7766  -5.7328
    -5.3134  -5.2488  -5.0060  -4.7437  -4.6320  -4.4912  -4.0028  -3.2555
    -2.3478  -1.5566  -1.2464  -1.0384  -1.0233  -0.8414  -0.4454  -0.3406
    -0.0745   0.0264   0.1415   0.2987   0.3480   0.7022   0.7449   0.7788
     0.7931   0.8047   0.8527   0.8844   0.9287   1.1734   1.2040   1.2088
     1.2457   1.3893   1.4019   1.4409   1.5064   1.6037   1.6727   1.7356
     1.7919   1.8294   1.9418   1.9770   2.0327   2.0335   2.0538   2.0842
     2.1752   2.1981   2.2131   2.2185   2.2737   2.2849   2.2930   2.3191
     2.3617   2.3839   2.3957   2.4312   2.5841   2.5931   2.6102   2.6481
     2.6646   2.6783   2.7207   2.7461   2.7587   2.7815   2.8211   2.8217
     2.8691   2.8909   2.9304   2.9441   3.0648   3.1224   3.1250   3.1559
     3.1633   3.2004   3.2066   3.2154   3.2276   3.2581   3.3346   3.3738
     3.3811   3.4371   3.4461   3.4509   3.6135   3.6227   3.6665   3.6891
     3.6962   3.7090   3.7205   3.7321   3.7635   3.8017   3.8368   3.8566
     3.8835   3.9102   3.9222   3.9231   3.9586   3.9753   3.9900   4.0475
     4.0768   4.0937   4.1116   4.1164   4.1631   4.1916   4.2195   4.2346
     4.2435   4.2518   4.2893   4.2953   4.3520   4.3587   4.3781   4.4050
     4.4634   4.4713   4.5556   4.5590   4.5803   4.5807   4.5985   4.6530
     4.6583   4.6741   4.6901   4.7472   4.7745   4.7836   4.8827   4.9097
     4.9253   4.9413   4.9518   4.9806   5.0104   5.0425   5.1020   5.1028
     5.1251   5.1593   5.1595   5.1690   5.1721   5.1835   5.2366   5.2512
     5.2798   5.2885   5.3159   5.3332   5.3464   5.3724   5.3917   5.4127
     5.4255   5.4370   5.4453   5.4530   5.4727   5.4779   5.5028   5.5550
     5.6309   5.6433   5.6857   5.7128   5.7254   5.7915   5.7958   5.8420
     5.8564   5.8706   5.9003   5.9160   5.9331   5.9451   5.9477   5.9639
     6.0430   6.0456   6.0685   6.0898   6.1275   6.1433   6.1767   6.1851
     6.2082   6.2663   6.2715   6.2994   6.3151   6.3315   6.3984   6.4164
     6.4240   6.4430   6.4734   6.4866   6.4977   6.5198   6.5269   6.5343
     6.5454   6.5737   6.5883   6.6009   6.6086   6.6200   6.6297   6.6809
     6.6940   6.7162   6.7372   6.7429   6.7633   6.7663   6.7746   6.8101
     6.8156   6.8278   6.8287   6.8660   6.8694   6.8899   6.9094   6.9269
     6.9305   6.9388   6.9405   6.9887   6.9935   7.0089   7.0140   7.0263
     7.0547   7.0760   7.0985   7.1061   7.1283   7.1451   7.1483   7.1742
     7.2153   7.2196   7.2340   7.2630   7.2759   7.2771   7.3259   7.3351
     7.3359   7.3540   7.3661   7.3764   7.4479   7.4733   7.4965   7.5137
     7.5315   7.5350   7.5570   7.5767   7.6384   7.6483   7.6498   7.6575
     7.6617   7.7081   7.7105   7.7240   7.7398   7.7540   7.7678   7.7772
     7.7889   7.8017   7.8106   7.8387   7.8438   7.8452   7.8734   7.8932
     7.9028   7.9371   7.9733   7.9899   8.0038   8.0047   8.0412   8.0414
     8.0922   8.1018   8.1122   8.1220   8.1490   8.1865   8.2046   8.2310
     8.2516   8.2809   8.3334   8.3455   8.3515   8.3672   8.3912   8.4261
     8.4272   8.4642   8.4666   8.4765   8.4809   8.5169   8.5239   8.5481
     8.5509   8.5569   8.5701   8.5718   8.6059   8.6153   8.6438   8.6515
     8.6678   8.6896   8.7037   8.7133   8.7413   8.7560   8.7618   8.7905
     8.8079   8.8084   8.8319   8.8331   8.8417   8.8476   8.8545   8.8654
     8.8984   8.8992   8.9138   8.9349   8.9366   8.9425   8.9505   8.9752
     8.9815   9.0046   9.0172   9.0295   9.0609   9.0758   9.0985   9.1098
     9.1550   9.1607   9.1958   9.2017   9.2241   9.2455   9.2646   9.2672
     9.3059   9.3282   9.3499   9.3568   9.3654   9.3677   9.4098   9.4417
     9.4565   9.4939   9.5009   9.5177   9.5219   9.5457   9.5600   9.5685
     9.5687   9.5826   9.5933   9.6229

          k = 0.0000 0.0000 0.0023 (148799 PWs)   bands (ev):

   -21.8999 -21.5645 -21.4906 -20.9700 -20.6126 -20.5496 -20.4717 -20.3409
   -19.7277 -19.4937 -19.4357 -18.9817 -18.8505 -18.7153 -18.5655 -18.3245
   -17.9673 -17.9144 -17.7824 -17.5210 -17.1364 -16.9646 -16.9367 -16.6819
   -16.4460 -16.0291 -15.5481 -15.4144 -15.2817 -15.0910 -14.7842 -14.5448
   -14.4660 -14.3848 -14.2489 -13.7333 -13.5883 -13.3104 -13.1250 -12.8410
   -12.6080 -12.5020 -12.4632 -12.3447 -12.1977 -11.9804 -11.9215 -11.6928
   -11.2281 -11.1045 -10.7788 -10.6470 -10.5159 -10.4726 -10.3533 -10.3379
   -10.1896 -10.0377  -9.9831  -9.9570  -9.8624  -9.7411  -9.6564  -9.5595
    -9.5415  -9.4793  -9.3995  -9.3224  -9.2902  -9.2183  -8.9302  -8.9095
    -8.7742  -8.7466  -8.6536  -8.6164  -8.4808  -8.4117  -8.3110  -8.2834
    -8.2067  -8.1794  -8.1503  -8.0729  -7.9436  -7.9121  -7.7680  -7.5048
    -7.4989  -7.2632  -7.2182  -7.1743  -7.1024  -6.8598  -6.7661  -6.6787
    -6.5807  -6.3465  -6.3326  -6.1984  -6.1775  -5.9964  -5.7873  -5.7182
    -5.3447  -5.2169  -5.0064  -4.7475  -4.6338  -4.4906  -4.0022  -3.2590
    -2.3441  -1.5586  -1.2414  -1.0429  -1.0169  -0.8417  -0.4589  -0.3332
    -0.0711   0.0058   0.1665   0.2992   0.3486   0.7023   0.7260   0.7304
     0.7853   0.8146   0.8673   0.9296   0.9353   1.1574   1.1992   1.2112
     1.2561   1.3838   1.3994   1.4597   1.5074   1.6033   1.6613   1.7456
     1.7925   1.8324   1.9265   1.9921   2.0096   2.0209   2.0534   2.0649
     2.1767   2.2187   2.2238   2.2298   2.2761   2.2792   2.2879   2.3152
     2.3736   2.3932   2.3984   2.4370   2.5704   2.5848   2.6125   2.6288
     2.6715   2.6763   2.7271   2.7594   2.7622   2.7670   2.8300   2.8375
     2.8423   2.8721   2.9505   2.9812   3.0498   3.1098   3.1364   3.1365
     3.1479   3.2006   3.2047   3.2286   3.2380   3.2864   3.3258   3.3661
     3.3748   3.4427   3.4469   3.4715   3.5841   3.5994   3.6613   3.6694
     3.6885   3.7301   3.7374   3.7500   3.7815   3.7850   3.8385   3.8442
     3.8690   3.9045   3.9176   3.9385   3.9625   3.9791   4.0018   4.0297
     4.0597   4.0782   4.1251   4.1319   4.1523   4.1982   4.2099   4.2203
     4.2366   4.2586   4.2959   4.3102   4.3428   4.3763   4.3959   4.4019
     4.4720   4.4997   4.5290   4.5491   4.5778   4.5796   4.6125   4.6315
     4.6356   4.6976   4.7036   4.7737   4.7846   4.7856   4.8822   4.9087
     4.9123   4.9260   4.9578   4.9906   4.9970   5.0352   5.0873   5.0877
     5.1313   5.1385   5.1458   5.1614   5.1862   5.1983   5.2391   5.2676
     5.2780   5.2887   5.3053   5.3328   5.3495   5.3550   5.3714   5.3882
     5.4054   5.4437   5.4615   5.4843   5.4992   5.5112   5.5415   5.5479
     5.6213   5.6396   5.6827   5.6910   5.7324   5.7897   5.7954   5.8396
     5.8547   5.8712   5.9122   5.9221   5.9238   5.9374   5.9531   5.9665
     6.0380   6.0419   6.0745   6.0806   6.1246   6.1337   6.1892   6.1970
     6.2100   6.2689   6.2845   6.2846   6.3123   6.3288   6.3970   6.4137
     6.4164   6.4536   6.4661   6.4781   6.4998   6.5001   6.5294   6.5318
     6.5494   6.5611   6.5824   6.5919   6.6020   6.6147   6.6303   6.6876
     6.6924   6.7227   6.7227   6.7474   6.7594   6.7712   6.7784   6.8135
     6.8215   6.8271   6.8343   6.8580   6.8779   6.9036   6.9075   6.9221
     6.9303   6.9340   6.9582   6.9809   7.0030   7.0043   7.0132   7.0163
     7.0642   7.0730   7.0770   7.1159   7.1247   7.1469   7.1810   7.1827
     7.2032   7.2232   7.2589   7.2616   7.2785   7.2884   7.3333   7.3380
     7.3455   7.3577   7.3766   7.3894   7.4329   7.4697   7.4929   7.5036
     7.5218   7.5261   7.5631   7.5857   7.6027   7.6120   7.6425   7.6457
     7.6523   7.6964   7.7032   7.7108   7.7409   7.7543   7.7633   7.7896
     7.7909   7.8150   7.8303   7.8368   7.8510   7.8626   7.8724   7.9072
     7.9129   7.9690   7.9738   7.9886   8.0186   8.0205   8.0281   8.0451
     8.0843   8.1178   8.1249   8.1299   8.1378   8.1780   8.2165   8.2336
     8.2460   8.2677   8.3201   8.3373   8.3394   8.3521   8.3873   8.4200
     8.4229   8.4557   8.4719   8.4900   8.4943   8.5199   8.5235   8.5258
     8.5338   8.5586   8.5735   8.5885   8.6132   8.6266   8.6338   8.6451
     8.6696   8.6855   8.7148   8.7223   8.7405   8.7508   8.7569   8.7768
     8.7876   8.7969   8.8061   8.8111   8.8181   8.8592   8.8620   8.8743
     8.8837   8.8963   8.9079   8.9210   8.9383   8.9521   8.9584   8.9864
     8.9976   9.0306   9.0369   9.0550   9.0769   9.0817   9.0967   9.1020
     9.1330   9.1534   9.1823   9.1892   9.2298   9.2351   9.2495   9.2799
     9.3186   9.3298   9.3429   9.3666   9.3723   9.4106   9.4225   9.4282
     9.4575   9.4875   9.5031   9.5125   9.5230   9.5436   9.5474   9.5745
     9.5823   9.5958   9.6023   9.6360

          k = 0.0000 0.0000 0.0035 (148823 PWs)   bands (ev):

   -21.8993 -21.5749 -21.4787 -20.9698 -20.6298 -20.5378 -20.4815 -20.3231
   -19.7342 -19.5042 -19.4180 -18.9886 -18.8490 -18.7424 -18.5301 -18.3324
   -17.9748 -17.9061 -17.7850 -17.5109 -17.1364 -16.9741 -16.9327 -16.6957
   -16.4443 -16.0217 -15.5590 -15.3993 -15.2832 -15.0797 -14.7856 -14.5557
   -14.4810 -14.3666 -14.2465 -13.7533 -13.5692 -13.3541 -13.0784 -12.8454
   -12.6212 -12.5003 -12.4520 -12.3527 -12.1897 -11.9878 -11.9188 -11.6775
   -11.2324 -11.1005 -10.7905 -10.6570 -10.5377 -10.4806 -10.3425 -10.3274
   -10.1744 -10.0306  -9.9896  -9.9562  -9.8800  -9.7120  -9.6724  -9.5730
    -9.5260  -9.4641  -9.4052  -9.3278  -9.2902  -9.2097  -8.9263  -8.9092
    -8.7854  -8.7602  -8.6478  -8.6013  -8.4975  -8.3976  -8.3268  -8.3046
    -8.2093  -8.1830  -8.1234  -8.0524  -7.9463  -7.9112  -7.7663  -7.5097
    -7.5021  -7.2820  -7.2437  -7.1498  -7.0758  -6.8814  -6.7456  -6.6849
    -6.5751  -6.3833  -6.3342  -6.1998  -6.1382  -6.0034  -5.7980  -5.7011
    -5.3757  -5.1850  -5.0069  -4.7534  -4.6370  -4.4894  -4.0011  -3.2647
    -2.3381  -1.5618  -1.2333  -1.0472  -1.0092  -0.8423  -0.4777  -0.3244
    -0.0701  -0.0130   0.1971   0.3002   0.3495   0.6727   0.7023   0.7142
     0.7712   0.8317   0.8843   0.9311   0.9854   1.1405   1.1849   1.2154
     1.2713   1.3660   1.4146   1.4782   1.5095   1.6026   1.6473   1.7568
     1.7933   1.8377   1.9109   1.9801   2.0022   2.0071   2.0407   2.0519
     2.1792   2.2277   2.2388   2.2456   2.2714   2.2833   2.2898   2.3173
     2.3827   2.4019   2.4074   2.4485   2.5438   2.5859   2.6024   2.6163
     2.6660   2.6935   2.7227   2.7431   2.7606   2.7959   2.8020   2.8497
     2.8561   2.8634   2.9709   3.0182   3.0327   3.0866   3.1138   3.1263
     3.1621   3.2014   3.2040   3.2444   3.2508   3.2933   3.3268   3.3674
     3.3764   3.4387   3.4439   3.5014   3.5553   3.5748   3.6443   3.6498
     3.6802   3.7459   3.7536   3.7679   3.7680   3.8012   3.8218   3.8467
     3.8635   3.8984   3.9090   3.9493   3.9670   3.9719   4.0096   4.0196
     4.0455   4.0705   4.1276   4.1343   4.1540   4.1905   4.1905   4.2264
     4.2289   4.2693   4.3057   4.3223   4.3399   4.3851   4.4116   4.4332
     4.4732   4.4989   4.5330   4.5426   4.5749   4.5787   4.6016   4.6111
     4.6384   4.7134   4.7328   4.7675   4.7954   4.8223   4.8706   4.8871
     4.9112   4.9142   4.9582   4.9919   5.0138   5.0230   5.0637   5.0706
     5.0978   5.1189   5.1556   5.1621   5.1876   5.2044   5.2257   5.2665
     5.2836   5.3013   5.3188   5.3271   5.3350   5.3514   5.3635   5.3729
     5.4012   5.4360   5.4840   5.5020   5.5304   5.5506   5.5556   5.5805
     5.6045   5.6233   5.6773   5.6926   5.7407   5.7730   5.7947   5.8321
     5.8472   5.8831   5.8948   5.9115   5.9302   5.9399   5.9699   5.9787
     6.0323   6.0374   6.0649   6.0833   6.1179   6.1218   6.2059   6.2071
     6.2173   6.2695   6.2758   6.3044   6.3093   6.3155   6.3873   6.4084
     6.4105   6.4419   6.4596   6.4770   6.4959   6.4968   6.5104   6.5296
     6.5407   6.5645   6.5740   6.5870   6.6002   6.6123   6.6488   6.6588
     6.6629   6.7138   6.7458   6.7499   6.7592   6.7811   6.8088   6.8118
     6.8229   6.8271   6.8306   6.8666   6.8749   6.8875   6.9136   6.9201
     6.9278   6.9371   6.9731   6.9941   6.9972   6.9978   7.0046   7.0285
     7.0559   7.0751   7.0794   7.1278   7.1320   7.1559   7.1765   7.2069
     7.2156   7.2268   7.2515   7.2827   7.2883   7.2919   7.3399   7.3536
     7.3647   7.3701   7.3876   7.4043   7.4158   7.4608   7.4797   7.4855
     7.5076   7.5339   7.5522   7.5659   7.5706   7.5965   7.6303   7.6339
     7.6560   7.6762   7.6950   7.7025   7.7080   7.7503   7.7741   7.7842
     7.7888   7.8095   7.8523   7.8586   7.8782   7.8867   7.8984   7.9098
     7.9261   7.9623   7.9877   8.0062   8.0154   8.0404   8.0464   8.0648
     8.0746   8.1164   8.1255   8.1296   8.1612   8.1657   8.2125   8.2279
     8.2542   8.2658   8.3049   8.3197   8.3265   8.3529   8.3779   8.4093
     8.4179   8.4469   8.4605   8.4870   8.4967   8.5046   8.5135   8.5280
     8.5343   8.5606   8.5853   8.5992   8.6074   8.6259   8.6280   8.6699
     8.6723   8.6807   8.7066   8.7147   8.7271   8.7317   8.7392   8.7654
     8.7765   8.7874   8.7937   8.8008   8.8245   8.8509   8.8735   8.8773
     8.8789   8.8879   8.8952   8.9198   8.9491   8.9590   8.9753   9.0001
     9.0075   9.0117   9.0388   9.0578   9.0710   9.1003   9.1164   9.1321
     9.1391   9.1619   9.1629   9.1884   9.2061   9.2316   9.2488   9.2812
     9.3061   9.3349   9.3485   9.3796   9.3932   9.4119   9.4381   9.4467
     9.4752   9.4759   9.5029   9.5039   9.5278   9.5301   9.5464   9.5861
     9.5918   9.6031   9.6273   9.6507

          k = 0.0000 0.0000 0.0046 (148801 PWs)   bands (ev):

   -21.8985 -21.5862 -21.4655 -20.9696 -20.6476 -20.5319 -20.4865 -20.3025
   -19.7429 -19.5132 -19.3995 -18.9980 -18.8493 -18.7655 -18.4932 -18.3429
   -17.9841 -17.8961 -17.7876 -17.4977 -17.1363 -16.9844 -16.9300 -16.7139
   -16.4421 -16.0129 -15.5692 -15.3822 -15.2847 -15.0649 -14.7876 -14.5702
   -14.4952 -14.3481 -14.2442 -13.7753 -13.5482 -13.3966 -13.0324 -12.8508
   -12.6367 -12.4986 -12.4388 -12.3630 -12.1789 -11.9993 -11.9122 -11.6584
   -11.2379 -11.0955 -10.8066 -10.6673 -10.5757 -10.4753 -10.3405 -10.3094
   -10.1589 -10.0209  -9.9965  -9.9551  -9.8935  -9.6927  -9.6797  -9.5872
    -9.5090  -9.4476  -9.4113  -9.3376  -9.2864  -9.2006  -8.9209  -8.9088
    -8.8048  -8.7667  -8.6484  -8.5802  -8.5148  -8.3867  -8.3441  -8.3227
    -8.2278  -8.1704  -8.0947  -8.0322  -7.9487  -7.9099  -7.7640  -7.5168
    -7.5068  -7.2990  -7.2689  -7.1248  -7.0491  -6.9035  -6.7249  -6.6926
    -6.5688  -6.4191  -6.3364  -6.2018  -6.0988  -6.0124  -5.8079  -5.6827
    -5.4062  -5.1532  -5.0077  -4.7613  -4.6419  -4.4878  -3.9997  -3.2727
    -2.3298  -1.5660  -1.2222  -1.0511  -1.0007  -0.8433  -0.4995  -0.3159
    -0.0814  -0.0174   0.2300   0.3015   0.3508   0.6193   0.6976   0.7020
     0.7570   0.8500   0.9020   0.9336   1.0341   1.1233   1.1674   1.2181
     1.2891   1.3487   1.4336   1.4937   1.5154   1.6014   1.6325   1.7672
     1.7944   1.8456   1.8956   1.9481   1.9801   2.0097   2.0260   2.0497
     2.1829   2.2240   2.2358   2.2562   2.2818   2.2985   2.2991   2.3293
     2.3859   2.4079   2.4242   2.4656   2.5147   2.5785   2.5875   2.6215
     2.6549   2.7077   2.7226   2.7246   2.7623   2.7683   2.8286   2.8367
     2.8753   2.8849   2.9916   3.0151   3.0444   3.0660   3.0970   3.1113
     3.1818   3.2026   3.2042   3.2568   3.2609   3.2782   3.3445   3.3785
     3.3845   3.4239   3.4452   3.5233   3.5322   3.5575   3.6244   3.6313
     3.6673   3.7279   3.7648   3.7652   3.7840   3.8142   3.8223   3.8379
     3.8766   3.8897   3.9015   3.9369   3.9731   3.9824   3.9894   4.0096
     4.0385   4.0922   4.1034   4.1380   4.1480   4.1664   4.1944   4.2397
     4.2408   4.2608   4.3031   4.3400   4.3676   4.3858   4.4282   4.4581
     4.4720   4.4869   4.5379   4.5529   4.5549   4.5801   4.5945   4.6109
     4.6547   4.7207   4.7613   4.7689   4.8060   4.8401   4.8581   4.8690
     4.8993   4.9145   4.9677   4.9961   5.0102   5.0289   5.0399   5.0552
     5.0654   5.0959   5.1325   5.1624   5.1740   5.2197   5.2229   5.2644
     5.2848   5.2875   5.3154   5.3156   5.3407   5.3591   5.3723   5.3872
     5.4041   5.4289   5.5037   5.5186   5.5252   5.5716   5.5906   5.5984
     5.6197   5.6218   5.6807   5.6981   5.7481   5.7557   5.7937   5.8196
     5.8236   5.8800   5.8906   5.9043   5.9365   5.9414   5.9783   5.9988
     6.0130   6.0434   6.0645   6.0845   6.0992   6.1233   6.2081   6.2221
     6.2297   6.2648   6.2740   6.3024   6.3054   6.3248   6.3780   6.3909
     6.3960   6.4307   6.4467   6.4749   6.4760   6.5020   6.5041   6.5212
     6.5304   6.5575   6.5915   6.5964   6.5991   6.6052   6.6057   6.6420
     6.6930   6.7051   6.7199   6.7606   6.7747   6.7793   6.8178   6.8200
     6.8237   6.8363   6.8434   6.8541   6.8652   6.8930   6.9053   6.9237
     6.9321   6.9418   6.9625   6.9858   6.9888   7.0032   7.0322   7.0370
     7.0737   7.0808   7.0860   7.1339   7.1488   7.1671   7.1710   7.2181
     7.2272   7.2364   7.2548   7.2807   7.3005   7.3205   7.3411   7.3565
     7.3866   7.3912   7.4013   7.4070   7.4181   7.4378   7.4598   7.4746
     7.4977   7.5141   7.5246   7.5569   7.5638   7.5983   7.6112   7.6163
     7.6553   7.6564   7.6726   7.6937   7.6983   7.7463   7.7656   7.7790
     7.7941   7.8314   7.8608   7.8726   7.8798   7.9012   7.9176   7.9429
     7.9554   7.9645   7.9823   8.0114   8.0296   8.0559   8.0597   8.0901
     8.0920   8.0923   8.1300   8.1344   8.1430   8.2009   8.2077   8.2357
     8.2579   8.2692   8.2739   8.3167   8.3187   8.3539   8.3652   8.3955
     8.4134   8.4377   8.4429   8.4616   8.4868   8.5025   8.5049   8.5386
     8.5394   8.5564   8.5591   8.5816   8.6148   8.6207   8.6515   8.6548
     8.6548   8.6940   8.6973   8.7157   8.7182   8.7309   8.7320   8.7456
     8.7734   8.7737   8.7860   8.7976   8.8339   8.8413   8.8623   8.8670
     8.8876   8.9009   8.9029   8.9149   8.9421   8.9666   8.9788   8.9996
     9.0050   9.0146   9.0324   9.0642   9.0804   9.1122   9.1280   9.1358
     9.1494   9.1564   9.1887   9.1945   9.2088   9.2264   9.2452   9.2644
     9.3211   9.3248   9.3730   9.3890   9.4004   9.4194   9.4418   9.4463
     9.4736   9.4765   9.4928   9.5200   9.5265   9.5438   9.5749   9.5800
     9.5911   9.6123   9.6434   9.6456

          k = 0.0000 0.0000 0.0058 (148853 PWs)   bands (ev):

   -21.8974 -21.5976 -21.4514 -20.9693 -20.6659 -20.5358 -20.4821 -20.2801
   -19.7535 -19.5208 -19.3803 -19.0100 -18.8543 -18.7809 -18.4555 -18.3556
   -17.9952 -17.8853 -17.7892 -17.4822 -17.1364 -16.9953 -16.9290 -16.7350
   -16.4396 -16.0044 -15.5768 -15.3643 -15.2858 -15.0469 -14.7902 -14.5875
   -14.5086 -14.3297 -14.2426 -13.7978 -13.5268 -13.4373 -12.9879 -12.8563
   -12.6532 -12.4972 -12.4248 -12.3747 -12.1656 -12.0133 -11.9022 -11.6365
   -11.2444 -11.0898 -10.8263 -10.6776 -10.6169 -10.4707 -10.3353 -10.2940
   -10.1471 -10.0100  -9.9998  -9.9538  -9.9023  -9.7097  -9.6519  -9.6015
    -9.4915  -9.4304  -9.4169  -9.3494  -9.2812  -9.1915  -8.9140  -8.9082
    -8.8268  -8.7711  -8.6520  -8.5571  -8.5325  -8.3854  -8.3620  -8.3306
    -8.2483  -8.1559  -8.0649  -8.0144  -7.9491  -7.9082  -7.7613  -7.5259
    -7.5132  -7.3140  -7.2932  -7.0994  -7.0231  -6.9252  -6.7043  -6.7015
    -6.5636  -6.4520  -6.3393  -6.2043  -6.0626  -6.0201  -5.8167  -5.6636
    -5.4358  -5.1218  -5.0087  -4.7707  -4.6487  -4.4856  -3.9979  -3.2826
    -2.3195  -1.5710  -1.2086  -1.0544  -0.9914  -0.8446  -0.5228  -0.3086
    -0.1049  -0.0069   0.2642   0.3032   0.3525   0.5658   0.6811   0.7004
     0.7443   0.8688   0.9189   0.9382   1.0811   1.1063   1.1478   1.2203
     1.3077   1.3324   1.4555   1.5015   1.5293   1.5997   1.6177   1.7755
     1.7955   1.8550   1.8819   1.9154   1.9556   1.9838   2.0386   2.0470
     2.1877   2.2140   2.2209   2.2631   2.2882   2.3185   2.3253   2.3500
     2.3868   2.4116   2.4446   2.4818   2.4892   2.5569   2.5896   2.6280
     2.6404   2.7017   2.7065   2.7337   2.7501   2.7646   2.8172   2.8589
     2.9028   2.9067   2.9974   3.0110   3.0186   3.0775   3.0959   3.1009
     3.2025   3.2034   3.2045   3.2375   3.2771   3.2861   3.3563   3.3794
     3.4030   3.4121   3.4473   3.5120   3.5171   3.5732   3.6044   3.6138
     3.6526   3.6953   3.7463   3.7834   3.7955   3.8094   3.8278   3.8416
     3.8756   3.8924   3.9083   3.9205   3.9628   3.9690   3.9956   4.0136
     4.0312   4.0820   4.1123   4.1250   4.1266   4.1724   4.2053   4.2442
     4.2501   4.2560   4.3154   4.3639   4.3799   4.3857   4.4420   4.4491
     4.4730   4.5182   4.5243   4.5407   4.5468   4.5895   4.6018   4.6344
     4.6710   4.7268   4.7564   4.7913   4.8034   4.8219   4.8619   4.8757
     4.9079   4.9081   4.9771   4.9834   4.9993   5.0289   5.0344   5.0375
     5.0546   5.0739   5.0831   5.1618   5.1728   5.2137   5.2316   5.2508
     5.2631   5.2815   5.2956   5.3244   5.3540   5.3610   5.3889   5.4053
     5.4257   5.4302   5.5107   5.5168   5.5374   5.5549   5.6005   5.6307
     5.6586   5.6639   5.6851   5.7043   5.7354   5.7621   5.7855   5.7938
     5.8073   5.8766   5.8856   5.8988   5.9330   5.9502   5.9800   5.9858
     6.0139   6.0430   6.0809   6.0828   6.0918   6.1312   6.2021   6.2300
     6.2417   6.2501   6.2834   6.2900   6.2988   6.3292   6.3619   6.3830
     6.3869   6.4249   6.4291   6.4591   6.4692   6.4861   6.5000   6.5165
     6.5222   6.5585   6.5805   6.5828   6.5908   6.6072   6.6207   6.6437
     6.6879   6.6986   6.7291   6.7536   6.7694   6.7966   6.7999   6.8130
     6.8197   6.8255   6.8572   6.8636   6.8811   6.8856   6.9173   6.9219
     6.9361   6.9391   6.9526   6.9857   7.0005   7.0126   7.0282   7.0682
     7.0727   7.1072   7.1133   7.1416   7.1471   7.1714   7.1932   7.2102
     7.2464   7.2475   7.2663   7.2714   7.3126   7.3331   7.3535   7.3641
     7.3851   7.3929   7.4059   7.4167   7.4211   7.4297   7.4327   7.4652
     7.4911   7.5076   7.5104   7.5541   7.5683   7.5835   7.5841   7.6099
     7.6350   7.6438   7.6584   7.6871   7.7115   7.7463   7.7466   7.7701
     7.8152   7.8520   7.8535   7.8854   7.8891   7.8979   7.9234   7.9563
     7.9769   7.9806   8.0025   8.0177   8.0482   8.0492   8.0577   8.0638
     8.1217   8.1311   8.1329   8.1459   8.1536   8.2098   8.2288   8.2342
     8.2461   8.2613   8.2767   8.3115   8.3169   8.3548   8.3563   8.3814
     8.3950   8.4277   8.4339   8.4446   8.4615   8.5034   8.5040   8.5243
     8.5245   8.5351   8.5598   8.5709   8.5757   8.6169   8.6265   8.6482
     8.6832   8.6843   8.6907   8.7075   8.7184   8.7302   8.7457   8.7480
     8.7581   8.7686   8.7925   8.7946   8.8371   8.8372   8.8484   8.8502
     8.8894   8.9005   8.9093   8.9187   8.9383   8.9554   8.9912   9.0010
     9.0172   9.0221   9.0500   9.0727   9.0791   9.1014   9.1164   9.1453
     9.1606   9.1615   9.1964   9.2109   9.2119   9.2140   9.2535   9.2898
     9.3059   9.3464   9.3918   9.3960   9.4037   9.4364   9.4399   9.4458
     9.4465   9.4638   9.5095   9.5219   9.5415   9.5591   9.5631   9.5771
     9.6155   9.6287   9.6318   9.6465

          k = 0.0000 0.0000 0.0070 (148877 PWs)   bands (ev):

   -21.8961 -21.6091 -21.4368 -20.9690 -20.6847 -20.5460 -20.4710 -20.2566
   -19.7658 -19.5269 -19.3607 -19.0245 -18.8657 -18.7867 -18.4180 -18.3696
   -18.0076 -17.8745 -17.7890 -17.4650 -17.1368 -17.0067 -16.9301 -16.7580
   -16.4369 -15.9975 -15.5802 -15.3464 -15.2859 -15.0266 -14.7932 -14.6069
   -14.5212 -14.3117 -14.2428 -13.8200 -13.5060 -13.4755 -12.9478 -12.8591
   -12.6701 -12.4965 -12.4118 -12.3860 -12.1505 -12.0284 -11.8897 -11.6128
   -11.2516 -11.0839 -10.8488 -10.6914 -10.6553 -10.4697 -10.3258 -10.2827
   -10.1413 -10.0043  -9.9915  -9.9521  -9.9058  -9.7279  -9.6249  -9.6156
    -9.4738  -9.4212  -9.4126  -9.3614  -9.2761  -9.1826  -8.9076  -8.9059
    -8.8491  -8.7752  -8.6576  -8.5508  -8.5338  -8.3972  -8.3798  -8.3243
    -8.2688  -8.1419  -8.0344  -8.0027  -7.9439  -7.9060  -7.7584  -7.5372
    -7.5214  -7.3270  -7.3163  -7.0738  -7.0000  -6.9446  -6.7116  -6.6840
    -6.5627  -6.4786  -6.3428  -6.2074  -6.0508  -6.0053  -5.8247  -5.6443
    -5.4644  -5.0912  -5.0097  -4.7813  -4.6575  -4.4831  -3.9957  -3.2943
    -2.3073  -1.5765  -1.1928  -1.0571  -0.9811  -0.8464  -0.5468  -0.3028
    -0.1328   0.0107   0.2991   0.3053   0.3546   0.5126   0.6648   0.6963
     0.7347   0.8875   0.9315   0.9486   1.0894   1.1239   1.1288   1.2222
     1.3136   1.3304   1.4801   1.5044   1.5483   1.5972   1.6035   1.7814
     1.7960   1.8572   1.8784   1.8838   1.9298   1.9563   2.0437   2.0523
     2.1926   2.2020   2.2042   2.2684   2.2916   2.3401   2.3556   2.3752
     2.3884   2.4128   2.4550   2.4666   2.5101   2.5375   2.5920   2.6232
     2.6357   2.6821   2.6890   2.7298   2.7633   2.7674   2.8016   2.8832
     2.9288   2.9344   2.9801   2.9833   3.0321   3.0655   3.0807   3.1367
     3.1954   3.2065   3.2202   3.2239   3.2912   3.2993   3.3652   3.3671
     3.3928   3.4346   3.4512   3.4951   3.5089   3.5848   3.5906   3.6037
     3.6406   3.6607   3.7229   3.7869   3.7919   3.8144   3.8209   3.8532
     3.8596   3.8852   3.9252   3.9281   3.9459   3.9527   4.0037   4.0261
     4.0322   4.0600   4.0779   4.1104   4.1615   4.1842   4.1915   4.2519
     4.2617   4.2736   4.3254   4.3654   4.3769   4.4001   4.4500   4.4540
     4.4635   4.5098   4.5339   4.5480   4.5562   4.5999   4.6156   4.6676
     4.6856   4.7331   4.7401   4.7650   4.8205   4.8289   4.8664   4.8772
     4.8965   4.9411   4.9534   4.9611   5.0030   5.0142   5.0193   5.0250
     5.0518   5.0606   5.0686   5.1545   5.1583   5.2099   5.2225   5.2291
     5.2509   5.2753   5.2997   5.3278   5.3431   5.3705   5.3938   5.4223
     5.4445   5.4571   5.5003   5.5165   5.5549   5.5661   5.6007   5.6706
     5.6850   5.6943   5.7007   5.7146   5.7258   5.7484   5.7798   5.7912
     5.7972   5.8729   5.8758   5.8972   5.9234   5.9543   5.9622   5.9705
     6.0256   6.0466   6.0640   6.0898   6.1110   6.1530   6.1904   6.2108
     6.2506   6.2548   6.2680   6.2824   6.2963   6.3114   6.3489   6.3717
     6.4057   6.4067   6.4283   6.4487   6.4564   6.4600   6.4907   6.5120
     6.5154   6.5451   6.5599   6.5837   6.6076   6.6082   6.6414   6.6463
     6.6702   6.6970   6.7387   6.7481   6.7671   6.7715   6.8027   6.8033
     6.8194   6.8260   6.8553   6.8567   6.8798   6.9035   6.9191   6.9245
     6.9425   6.9521   6.9700   6.9897   7.0050   7.0275   7.0370   7.0643
     7.0916   7.1328   7.1416   7.1460   7.1647   7.1744   7.1993   7.2191
     7.2568   7.2607   7.2635   7.2799   7.3074   7.3296   7.3425   7.3600
     7.3814   7.3934   7.3944   7.4177   7.4221   7.4350   7.4489   7.4510
     7.4790   7.5149   7.5285   7.5385   7.5598   7.5612   7.5880   7.6132
     7.6170   7.6232   7.6643   7.6850   7.7267   7.7293   7.7506   7.7571
     7.8350   7.8448   7.8605   7.8917   7.8933   7.8984   7.9295   7.9565
     7.9764   7.9934   8.0033   8.0049   8.0448   8.0702   8.0746   8.0909
     8.1344   8.1486   8.1552   8.1666   8.1742   8.2019   8.2196   8.2385
     8.2543   8.2760   8.2830   8.3101   8.3124   8.3505   8.3552   8.3704
     8.3734   8.4122   8.4246   8.4334   8.4441   8.4739   8.4930   8.5030
     8.5061   8.5160   8.5539   8.5625   8.5777   8.5876   8.6203   8.6419
     8.6508   8.6736   8.6829   8.7015   8.7204   8.7313   8.7431   8.7524
     8.7613   8.7789   8.7889   8.8073   8.8156   8.8285   8.8493   8.8584
     8.8646   8.9089   8.9190   8.9264   8.9363   8.9794   8.9838   8.9971
     9.0366   9.0481   9.0510   9.0542   9.0931   9.0993   9.1043   9.1389
     9.1685   9.1854   9.1956   9.2127   9.2164   9.2205   9.2688   9.2937
     9.3104   9.3738   9.3927   9.4055   9.4065   9.4261   9.4383   9.4442
     9.4566   9.4667   9.5090   9.5239   9.5288   9.5615   9.5727   9.5821
     9.6191   9.6284   9.6406   9.6507

          k = 0.0000 0.0000 0.0081 (148889 PWs)   bands (ev):

   -21.8945 -21.6204 -21.4217 -20.9686 -20.7040 -20.5580 -20.4573 -20.2325
   -19.7793 -19.5320 -19.3411 -19.0413 -18.8810 -18.7852 -18.3936 -18.3718
   -18.0213 -17.8646 -17.7860 -17.4467 -17.1378 -17.0182 -16.9342 -16.7811
   -16.4343 -15.9936 -15.5783 -15.3289 -15.2846 -15.0046 -14.7964 -14.6276
   -14.5332 -14.2942 -14.2455 -13.8414 -13.5146 -13.4823 -12.9205 -12.8512
   -12.6865 -12.4971 -12.4073 -12.3885 -12.1343 -12.0427 -11.8754 -11.5880
   -11.2594 -11.0781 -10.8735 -10.7211 -10.6773 -10.4722 -10.3129 -10.2770
   -10.1396  -9.9999  -9.9785  -9.9501  -9.9021  -9.7455  -9.6295  -9.6012
    -9.4565  -9.4233  -9.3944  -9.3719  -9.2724  -9.1740  -8.9069  -8.8968
    -8.8708  -8.7794  -8.6645  -8.5697  -8.5114  -8.4149  -8.3970  -8.3109
    -8.2883  -8.1297  -8.0036  -7.9983  -7.9318  -7.9026  -7.7552  -7.5503
    -7.5316  -7.3378  -7.3376  -7.0481  -6.9912  -6.9501  -6.7231  -6.6639
    -6.5718  -6.4928  -6.3470  -6.2111  -6.0628  -5.9683  -5.8320  -5.6254
    -5.4911  -5.0621  -5.0102  -4.7927  -4.6683  -4.4802  -3.9932  -3.3077
    -2.2933  -1.5825  -1.1753  -1.0591  -0.9700  -0.8488  -0.5707  -0.2984
    -0.1618   0.0320   0.3078   0.3338   0.3570   0.4602   0.6488   0.6883
     0.7295   0.9053   0.9395   0.9657   1.0729   1.1042   1.1686   1.2238
     1.2996   1.3498   1.5056   1.5070   1.5686   1.5907   1.5935   1.7847
     1.7941   1.8458   1.8560   1.8890   1.9047   1.9299   2.0401   2.0652
     2.1846   2.1873   2.2029   2.2734   2.2949   2.3621   2.3760   2.3978
     2.4005   2.4060   2.4391   2.4897   2.5164   2.5374   2.5949   2.6032
     2.6443   2.6578   2.6722   2.7279   2.7707   2.7742   2.7959   2.9047
     2.9456   2.9503   2.9640   2.9718   3.0407   3.0649   3.0658   3.1701
     3.1758   3.2090   3.2186   3.2456   3.2963   3.3123   3.3418   3.3796
     3.3969   3.4336   3.4510   3.5045   3.5051   3.5660   3.5768   3.6071
     3.6252   3.6475   3.6977   3.7737   3.7774   3.8057   3.8323   3.8433
     3.8562   3.8755   3.9031   3.9453   3.9536   3.9674   3.9941   4.0263
     4.0422   4.0455   4.0538   4.1068   4.1552   4.1936   4.2180   4.2539
     4.2856   4.2882   4.3262   4.3414   4.3829   4.4231   4.4354   4.4547
     4.4651   4.5167   4.5258   4.5576   4.5942   4.6123   4.6367   4.6849
     4.6991   4.7129   4.7404   4.7700   4.8133   4.8322   4.8793   4.8811
     4.8978   4.9204   4.9336   4.9690   4.9737   4.9945   5.0006   5.0216
     5.0585   5.0650   5.0824   5.1337   5.1485   5.1824   5.2029   5.2302
     5.2333   5.2962   5.3009   5.3176   5.3351   5.3760   5.3900   5.4226
     5.4512   5.4882   5.5129   5.5365   5.5674   5.5860   5.6073   5.6793
     5.6879   5.6938   5.7121   5.7288   5.7471   5.7483   5.7887   5.7902
     5.8095   5.8607   5.8725   5.8953   5.9134   5.9245   5.9554   5.9736
     6.0305   6.0482   6.0554   6.0949   6.1239   6.1745   6.1829   6.1853
     6.2268   6.2523   6.2674   6.2695   6.2879   6.3129   6.3431   6.3503
     6.3853   6.4193   6.4245   6.4311   6.4483   6.4587   6.4681   6.5065
     6.5114   6.5504   6.5511   6.5781   6.6011   6.6262   6.6333   6.6632
     6.6694   6.7031   6.7117   6.7280   6.7668   6.7718   6.7949   6.8081
     6.8254   6.8268   6.8416   6.8486   6.8944   6.9066   6.9075   6.9454
     6.9678   6.9695   6.9782   6.9903   7.0251   7.0315   7.0403   7.0847
     7.1130   7.1374   7.1533   7.1562   7.1746   7.1968   7.2064   7.2353
     7.2550   7.2586   7.2724   7.2745   7.3006   7.3090   7.3243   7.3488
     7.3733   7.3804   7.3969   7.4085   7.4406   7.4518   7.4588   7.4596
     7.4746   7.5046   7.5190   7.5428   7.5609   7.5611   7.5938   7.6068
     7.6200   7.6285   7.6727   7.6864   7.7122   7.7359   7.7430   7.7626
     7.8382   7.8457   7.8499   7.8852   7.8959   7.9005   7.9393   7.9533
     7.9701   7.9767   8.0048   8.0233   8.0333   8.0935   8.1020   8.1284
     8.1401   8.1473   8.1655   8.1774   8.1956   8.2001   8.2411   8.2470
     8.2605   8.2816   8.2957   8.3075   8.3138   8.3410   8.3549   8.3606
     8.3664   8.3949   8.3962   8.4227   8.4398   8.4400   8.4717   8.4795
     8.5071   8.5120   8.5270   8.5445   8.5786   8.5939   8.6007   8.6180
     8.6421   8.6461   8.6569   8.6918   8.7204   8.7221   8.7388   8.7481
     8.7564   8.7651   8.7970   8.8105   8.8191   8.8305   8.8369   8.8855
     8.8873   8.9035   8.9167   8.9475   8.9511   8.9647   8.9981   9.0070
     9.0224   9.0329   9.0403   9.0867   9.0959   9.1017   9.1166   9.1389
     9.1807   9.1896   9.2116   9.2172   9.2184   9.2248   9.2887   9.2917
     9.3205   9.3686   9.3848   9.3905   9.4178   9.4277   9.4384   9.4442
     9.4587   9.4973   9.4989   9.5117   9.5379   9.5604   9.5892   9.5916
     9.5990   9.6243   9.6357   9.6628

          k = 0.0000 0.0000 0.0093 (148905 PWs)   bands (ev):

   -21.8928 -21.6316 -21.4062 -20.9683 -20.7236 -20.5703 -20.4426 -20.2079
   -19.7937 -19.5362 -19.3219 -19.0602 -18.8967 -18.7797 -18.4077 -18.3366
   -18.0358 -17.8568 -17.7793 -17.4278 -17.1399 -17.0293 -16.9421 -16.8025
   -16.4318 -15.9936 -15.5703 -15.3132 -15.2806 -14.9818 -14.7996 -14.6492
   -14.5446 -14.2773 -14.2516 -13.8617 -13.5478 -13.4624 -12.9140 -12.8252
   -12.7016 -12.5003 -12.4141 -12.3781 -12.1187 -12.0540 -11.8601 -11.5625
   -11.2677 -11.0727 -10.8994 -10.7634 -10.6862 -10.4770 -10.2983 -10.2787
   -10.1368  -9.9965  -9.9665  -9.9478  -9.8897  -9.7618  -9.6432  -9.5826
    -9.4420  -9.4210  -9.3787  -9.3758  -9.2705  -9.1655  -8.9062  -8.8918
    -8.8868  -8.7838  -8.6726  -8.5891  -8.4911  -8.4336  -8.4129  -8.3061
    -8.2948  -8.1203  -7.9979  -7.9726  -7.9175  -7.8959  -7.7519  -7.5652
    -7.5439  -7.3571  -7.3468  -7.0227  -7.0063  -6.9323  -6.7361  -6.6442
    -6.5914  -6.4936  -6.3518  -6.2153  -6.0795  -5.9280  -5.8389  -5.6086
    -5.5144  -5.0381  -5.0070  -4.8047  -4.6810  -4.4773  -3.9903  -3.3224
    -2.2779  -1.5887  -1.1567  -1.0598  -0.9580  -0.8520  -0.5940  -0.2954
    -0.1909   0.0556   0.3106   0.3598   0.3637   0.4133   0.6330   0.6771
     0.7282   0.9205   0.9487   0.9851   1.0567   1.0812   1.2080   1.2247
     1.2861   1.3704   1.5055   1.5362   1.5764   1.5883   1.5928   1.7846
     1.7852   1.8328   1.8372   1.8755   1.8952   1.9176   2.0361   2.0770
     2.1702   2.1705   2.2112   2.2784   2.2983   2.3712   2.3792   2.3904
     2.4169   2.4292   2.4493   2.4999   2.5137   2.5616   2.5805   2.5981
     2.6356   2.6528   2.6573   2.7281   2.7640   2.7746   2.8133   2.9125
     2.9238   2.9448   2.9755   3.0013   3.0370   3.0515   3.0827   3.1465
     3.2043   3.2121   3.2264   3.2677   3.2748   3.3249   3.3392   3.3934
     3.4045   3.4126   3.4516   3.5038   3.5274   3.5501   3.5603   3.5895
     3.5991   3.6699   3.6715   3.7561   3.7615   3.7874   3.8224   3.8266
     3.8625   3.8720   3.8899   3.9367   3.9742   3.9871   3.9947   4.0023
     4.0135   4.0627   4.0759   4.0988   4.1375   4.2205   4.2519   4.2535
     4.2843   4.3074   4.3212   4.3309   4.3922   4.4066   4.4268   4.4713
     4.4730   4.5222   4.5298   4.5703   4.6156   4.6319   4.6643   4.6652
     4.6969   4.7343   4.7577   4.7848   4.8048   4.8241   4.8591   4.8862
     4.8958   4.9059   4.9185   4.9275   4.9784   4.9836   5.0059   5.0135
     5.0644   5.0866   5.0897   5.1191   5.1371   5.1541   5.1736   5.2242
     5.2387   5.2992   5.2996   5.3188   5.3313   5.3785   5.3834   5.4029
     5.4623   5.5101   5.5441   5.5709   5.5785   5.6108   5.6190   5.6471
     5.6673   5.6849   5.7327   5.7465   5.7727   5.7823   5.7879   5.7880
     5.8328   5.8598   5.8619   5.8935   5.9075   5.9075   5.9392   5.9842
     6.0327   6.0327   6.0663   6.0906   6.1398   6.1536   6.1577   6.1792
     6.2190   6.2283   6.2503   6.2749   6.2968   6.3225   6.3287   6.3422
     6.3476   6.3908   6.4231   6.4332   6.4420   6.4525   6.4716   6.5054
     6.5138   6.5493   6.5600   6.5738   6.5894   6.6213   6.6521   6.6559
     6.6599   6.7031   6.7042   6.7294   6.7364   6.7610   6.7969   6.8217
     6.8235   6.8366   6.8449   6.8543   6.8953   6.9075   6.9085   6.9645
     6.9723   6.9805   7.0008   7.0034   7.0197   7.0465   7.0593   7.1191
     7.1319   7.1346   7.1557   7.1586   7.1895   7.1960   7.2271   7.2296
     7.2350   7.2563   7.2581   7.2678   7.3050   7.3054   7.3201   7.3464
     7.3629   7.3717   7.3980   7.4075   7.4231   7.4460   7.4688   7.4755
     7.4924   7.5124   7.5242   7.5343   7.5638   7.5733   7.5952   7.5993
     7.6501   7.6517   7.6831   7.6832   7.7000   7.7332   7.7378   7.7823
     7.8142   7.8339   7.8477   7.8761   7.8883   7.8983   7.9519   7.9543
     7.9708   7.9807   8.0137   8.0174   8.0502   8.0843   8.1178   8.1200
     8.1452   8.1523   8.1803   8.1915   8.2220   8.2261   8.2372   8.2635
     8.2799   8.2850   8.2954   8.2982   8.3197   8.3295   8.3430   8.3550
     8.3706   8.3827   8.3883   8.4142   8.4191   8.4326   8.4595   8.4651
     8.4873   8.5119   8.5136   8.5261   8.5687   8.5726   8.5950   8.6099
     8.6126   8.6217   8.6453   8.6789   8.6958   8.7130   8.7174   8.7318
     8.7597   8.7733   8.7867   8.8166   8.8256   8.8399   8.8553   8.8879
     8.9075   8.9123   8.9327   8.9554   8.9557   8.9744   8.9957   8.9996
     9.0168   9.0232   9.0370   9.0815   9.1026   9.1208   9.1324   9.1656
     9.1903   9.1943   9.2037   9.2173   9.2377   9.2509   9.2880   9.2979
     9.3320   9.3427   9.3712   9.3898   9.4059   9.4203   9.4373   9.4425
     9.4605   9.4912   9.5089   9.5116   9.5445   9.5720   9.5816   9.5974
     9.6124   9.6295   9.6440   9.6705

          k = 0.0000 0.0000 0.0105 (148881 PWs)   bands (ev):

   -21.8908 -21.6424 -21.3904 -20.9680 -20.7434 -20.5822 -20.4273 -20.1832
   -19.8085 -19.5395 -19.3037 -19.0802 -18.9112 -18.7722 -18.4264 -18.2980
   -18.0507 -17.8515 -17.7686 -17.4089 -17.1437 -17.0397 -16.9550 -16.8205
   -16.4297 -15.9976 -15.5562 -15.3008 -15.2721 -14.9592 -14.8021 -14.6711
   -14.5553 -14.2647 -14.2583 -13.8807 -13.5783 -13.4427 -12.9189 -12.7929
   -12.7130 -12.5074 -12.4193 -12.3662 -12.1079 -12.0575 -11.8440 -11.5368
   -11.2765 -11.0680 -10.9259 -10.8082 -10.6914 -10.4831 -10.2943 -10.2777
   -10.1290  -9.9980  -9.9540  -9.9453  -9.8706  -9.7759  -9.6565  -9.5701
    -9.4389  -9.4071  -9.3793  -9.3568  -9.2710  -9.1572  -8.9113  -8.9054
    -8.8768  -8.7880  -8.6818  -8.6092  -8.4756  -8.4519  -8.4263  -8.3207
    -8.2777  -8.1151  -7.9974  -7.9415  -7.9085  -7.8815  -7.7483  -7.5812
    -7.5585  -7.3744  -7.3541  -7.0282  -6.9979  -6.9082  -6.7512  -6.6247
    -6.6150  -6.4870  -6.3573  -6.2200  -6.0981  -5.8872  -5.8456  -5.5983
    -5.5296  -5.0284  -4.9912  -4.8167  -4.6951  -4.4744  -3.9870  -3.3383
    -2.2612  -1.5949  -1.1381  -1.0587  -0.9452  -0.8561  -0.6162  -0.2943
    -0.2192   0.0807   0.3138   0.3442   0.3630   0.4165   0.6176   0.6643
     0.7292   0.9311   0.9627   1.0053   1.0410   1.0576   1.2239   1.2440
     1.2749   1.3912   1.5037   1.5658   1.5681   1.5825   1.6140   1.7670
     1.7794   1.8201   1.8312   1.8517   1.8735   1.9333   2.0319   2.0875
     2.1539   2.1558   2.2208   2.2839   2.3021   2.3430   2.3789   2.4098
     2.4238   2.4604   2.4721   2.4840   2.5384   2.5572   2.5825   2.6010
     2.6209   2.6412   2.6648   2.7273   2.7523   2.7792   2.8351   2.8796
     2.9284   2.9376   2.9983   3.0109   3.0379   3.0555   3.1017   3.1239
     3.2149   3.2177   3.2378   3.2516   3.2902   3.3382   3.3484   3.3834
     3.4118   3.4145   3.4535   3.5034   3.5243   3.5439   3.5486   3.5542
     3.6044   3.6446   3.6845   3.7420   3.7473   3.7681   3.7967   3.8086
     3.8421   3.8842   3.8985   3.9270   3.9579   3.9681   3.9921   4.0109
     4.0401   4.0735   4.0844   4.0989   4.1414   4.2453   4.2503   4.2585
     4.2881   4.3060   4.3338   4.3340   4.3862   4.4028   4.4171   4.4760
     4.5007   4.5197   4.5420   4.5842   4.5894   4.6688   4.6697   4.6988
     4.6992   4.7408   4.7856   4.7983   4.8065   4.8150   4.8332   4.8530
     4.8689   4.8779   4.9169   4.9463   4.9720   4.9768   4.9896   5.0332
     5.0573   5.0868   5.1066   5.1197   5.1203   5.1450   5.1459   5.2300
     5.2332   5.2826   5.2942   5.3254   5.3421   5.3731   5.3798   5.3956
     5.4682   5.5218   5.5798   5.5939   5.6019   5.6048   5.6346   5.6417
     5.6530   5.6802   5.7309   5.7534   5.7864   5.8004   5.8029   5.8164
     5.8270   5.8482   5.8728   5.8888   5.9047   5.9192   5.9322   5.9939
     6.0172   6.0370   6.0739   6.0785   6.1244   6.1283   6.1516   6.1651
     6.1812   6.2185   6.2573   6.2712   6.2955   6.3108   6.3163   6.3263
     6.3546   6.3643   6.4039   6.4234   6.4436   6.4557   6.4783   6.5058
     6.5178   6.5518   6.5665   6.5702   6.5918   6.6158   6.6330   6.6450
     6.6721   6.6878   6.6991   6.7339   6.7343   6.7522   6.8055   6.8118
     6.8178   6.8520   6.8531   6.8833   6.8888   6.9134   6.9203   6.9540
     6.9820   7.0003   7.0033   7.0212   7.0379   7.0545   7.0894   7.1285
     7.1419   7.1449   7.1574   7.1677   7.1715   7.1850   7.2084   7.2195
     7.2352   7.2409   7.2623   7.2678   7.2914   7.3202   7.3298   7.3483
     7.3529   7.3783   7.3843   7.4065   7.4141   7.4458   7.4733   7.4885
     7.5030   7.5195   7.5358   7.5372   7.5801   7.5870   7.6021   7.6074
     7.6614   7.6700   7.6798   7.6951   7.7081   7.7352   7.7379   7.7752
     7.8049   7.8316   7.8329   7.8616   7.8790   7.8996   7.9613   7.9649
     7.9814   7.9893   8.0018   8.0260   8.0589   8.0696   8.1046   8.1216
     8.1375   8.1561   8.1772   8.2144   8.2235   8.2507   8.2520   8.2655
     8.2695   8.2765   8.3049   8.3096   8.3239   8.3304   8.3506   8.3510
     8.3696   8.3826   8.3928   8.3963   8.4144   8.4316   8.4393   8.4681
     8.4749   8.4951   8.5132   8.5161   8.5382   8.5560   8.5622   8.5797
     8.5982   8.6389   8.6404   8.6657   8.6658   8.7006   8.7054   8.7094
     8.7524   8.7692   8.7899   8.8271   8.8408   8.8575   8.8609   8.8787
     8.9014   8.9367   8.9515   8.9527   8.9587   8.9764   8.9864   9.0102
     9.0219   9.0267   9.0439   9.0681   9.0962   9.1445   9.1639   9.1676
     9.1932   9.1985   9.2263   9.2346   9.2578   9.2661   9.2859   9.2927
     9.3150   9.3365   9.3618   9.3799   9.3980   9.4014   9.4390   9.4398
     9.4592   9.4917   9.4919   9.5087   9.5549   9.5589   9.5820   9.5979
     9.6454   9.6475   9.6647   9.6789

          k = 0.0000 0.0000 0.0116 (148889 PWs)   bands (ev):

   -21.8886 -21.6530 -21.3743 -20.9678 -20.7635 -20.5936 -20.4117 -20.1586
   -19.8235 -19.5423 -19.2878 -19.0998 -18.9240 -18.7635 -18.4464 -18.2594
   -18.0654 -17.8484 -17.7543 -17.3903 -17.1500 -17.0491 -16.9724 -16.8339
   -16.4282 -16.0054 -15.5364 -15.2925 -15.2584 -14.9387 -14.8026 -14.6929
   -14.5654 -14.2778 -14.2447 -13.8989 -13.6049 -13.4240 -12.9272 -12.7707
   -12.7124 -12.5190 -12.4197 -12.3553 -12.1065 -12.0484 -11.8276 -11.5111
   -11.2859 -11.0646 -10.9527 -10.8531 -10.6951 -10.4893 -10.3121 -10.2619
   -10.1160 -10.0051  -9.9425  -9.9395  -9.8501  -9.7854  -9.6695  -9.5635
    -9.4443  -9.3850  -9.3732  -9.3375  -9.2741  -9.1493  -8.9292  -8.9047
    -8.8674  -8.7915  -8.6918  -8.6298  -8.4701  -8.4692  -8.4345  -8.3296
    -8.2598  -8.1149  -7.9944  -7.9107  -7.9041  -7.8619  -7.7445  -7.5981
    -7.5751  -7.3896  -7.3598  -7.0517  -6.9743  -6.8833  -6.7686  -6.6374
    -6.6056  -6.4770  -6.3634  -6.2253  -6.1179  -5.8537  -5.8450  -5.6022
    -5.5290  -5.0291  -4.9677  -4.8284  -4.7103  -4.4719  -3.9835  -3.3552
    -2.2435  -1.6012  -1.1213  -1.0543  -0.9316  -0.8611  -0.6367  -0.2961
    -0.2451   0.1067   0.2945   0.3174   0.3666   0.4505   0.6024   0.6509
     0.7316   0.9382   0.9802   1.0230   1.0292   1.0335   1.2203   1.2674
     1.2763   1.4117   1.4997   1.5624   1.5669   1.6040   1.6364   1.7455
     1.7677   1.8047   1.8321   1.8328   1.8533   1.9535   2.0275   2.0958
     2.1377   2.1425   2.2309   2.2900   2.3062   2.3124   2.3779   2.4212
     2.4376   2.4683   2.4897   2.4908   2.5427   2.5635   2.5830   2.6017
     2.6294   2.6309   2.6757   2.7208   2.7472   2.7842   2.8413   2.8635
     2.9121   2.9427   3.0116   3.0185   3.0285   3.0871   3.0956   3.1321
     3.1971   3.2187   3.2237   3.2797   3.3127   3.3519   3.3584   3.3594
     3.4264   3.4274   3.4560   3.5008   3.5085   3.5224   3.5280   3.5400
     3.6175   3.6303   3.6774   3.7271   3.7435   3.7486   3.7818   3.7876
     3.8160   3.8832   3.9062   3.9241   3.9331   3.9398   4.0021   4.0263
     4.0523   4.0756   4.1069   4.1221   4.1526   4.2267   4.2442   4.2712
     4.2976   4.3073   4.3370   4.3503   4.3891   4.3984   4.4217   4.4803
     4.5165   4.5235   4.5480   4.5523   4.6105   4.6851   4.7011   4.7066
     4.7339   4.7435   4.7798   4.7945   4.8095   4.8096   4.8207   4.8390
     4.8443   4.8528   4.9348   4.9380   4.9566   4.9789   4.9973   5.0255
     5.0410   5.0857   5.0945   5.1021   5.1303   5.1473   5.1649   5.2176
     5.2428   5.2600   5.2872   5.3237   5.3659   5.3665   5.3823   5.3954
     5.4721   5.5265   5.5558   5.5947   5.6227   5.6319   5.6417   5.6565
     5.6749   5.6857   5.7270   5.7286   5.7878   5.8152   5.8155   5.8282
     5.8423   5.8702   5.8732   5.8801   5.9077   5.9120   5.9644   6.0010
     6.0036   6.0473   6.0509   6.0716   6.0961   6.1121   6.1410   6.1507
     6.1581   6.2082   6.2359   6.2638   6.2696   6.3058   6.3065   6.3393
     6.3424   6.3497   6.4067   6.4180   6.4492   6.4518   6.4657   6.5077
     6.5171   6.5536   6.5727   6.5752   6.5980   6.6104   6.6228   6.6353
     6.6492   6.6977   6.7106   6.7282   6.7408   6.7533   6.7945   6.8153
     6.8153   6.8649   6.8749   6.8769   6.9056   6.9307   6.9401   6.9463
     6.9811   6.9918   7.0324   7.0359   7.0573   7.0709   7.1043   7.1140
     7.1290   7.1346   7.1405   7.1665   7.1809   7.1851   7.1968   7.2134
     7.2297   7.2454   7.2706   7.2754   7.2871   7.3053   7.3153   7.3260
     7.3626   7.3871   7.4100   7.4101   7.4312   7.4503   7.4536   7.5014
     7.5105   7.5313   7.5350   7.5687   7.5759   7.6044   7.6120   7.6298
     7.6520   7.6851   7.6891   7.6929   7.7159   7.7382   7.7586   7.7600
     7.8137   7.8276   7.8334   7.8393   7.8808   7.8999   7.9610   7.9733
     7.9871   7.9955   7.9968   8.0267   8.0479   8.0864   8.0872   8.1038
     8.1300   8.1566   8.1801   8.1962   8.2127   8.2324   8.2549   8.2662
     8.2818   8.2938   8.3143   8.3158   8.3208   8.3436   8.3589   8.3673
     8.3761   8.3786   8.3837   8.4092   8.4093   8.4267   8.4315   8.4606
     8.4696   8.4890   8.4935   8.5074   8.5210   8.5232   8.5563   8.5652
     8.5898   8.6191   8.6480   8.6494   8.6619   8.6900   8.6919   8.7001
     8.7382   8.7594   8.8020   8.8140   8.8410   8.8660   8.8729   8.8851
     8.9043   8.9375   8.9426   8.9640   8.9677   8.9762   8.9882   9.0112
     9.0281   9.0397   9.0562   9.0757   9.1083   9.1345   9.1709   9.1839
     9.1959   9.2263   9.2414   9.2443   9.2652   9.2772   9.2798   9.2901
     9.3068   9.3380   9.3531   9.3663   9.3778   9.4048   9.4079   9.4433
     9.4834   9.4836   9.4923   9.5073   9.5242   9.5670   9.5672   9.6041
     9.6252   9.6315   9.6860   9.6867

          k = 0.0000 0.0000 0.0128 (148841 PWs)   bands (ev):

   -21.8862 -21.6633 -21.3579 -20.9678 -20.7835 -20.6043 -20.3958 -20.1345
   -19.8381 -19.5446 -19.2763 -19.1166 -18.9351 -18.7542 -18.4673 -18.2222
   -18.0788 -17.8467 -17.7375 -17.3724 -17.1594 -17.0587 -16.9919 -16.8430
   -16.4273 -16.0163 -15.5117 -15.2859 -15.2416 -14.9226 -14.7994 -14.7141
   -14.5747 -14.2974 -14.2301 -13.9167 -13.6271 -13.4065 -12.9364 -12.7699
   -12.6914 -12.5342 -12.4151 -12.3457 -12.1100 -12.0303 -11.8112 -11.4860
   -11.2959 -11.0632 -10.9792 -10.8964 -10.6980 -10.4949 -10.3363 -10.2447
   -10.0992 -10.0164  -9.9394  -9.9234  -9.8369  -9.7845  -9.6821  -9.5612
    -9.4524  -9.3635  -9.3586  -9.3179  -9.2796  -9.1419  -8.9453  -8.9041
    -8.8600  -8.7931  -8.7025  -8.6510  -8.4853  -8.4756  -8.4391  -8.3297
    -8.2415  -8.1199  -7.9880  -7.9012  -7.8806  -7.8413  -7.7400  -7.6151
    -7.5934  -7.4027  -7.3644  -7.0758  -6.9531  -6.8583  -6.7875  -6.6565
    -6.5869  -6.4655  -6.3701  -6.2311  -6.1385  -5.8604  -5.8047  -5.6175
    -5.5153  -5.0331  -4.9450  -4.8390  -4.7257  -4.4697  -3.9796  -3.3728
    -2.2251  -1.6072  -1.1087  -1.0447  -0.9176  -0.8665  -0.6550  -0.3049
    -0.2644   0.1331   0.2433   0.3214   0.3705   0.4873   0.5877   0.6372
     0.7348   0.9440   0.9969   1.0091   1.0133   1.0480   1.2129   1.2646
     1.3049   1.4311   1.4939   1.5521   1.5604   1.6386   1.6592   1.7264
     1.7502   1.7838   1.8145   1.8383   1.8425   1.9752   2.0231   2.1001
     2.1220   2.1326   2.2391   2.2821   2.2989   2.3106   2.3768   2.4213
     2.4544   2.4593   2.4820   2.5194   2.5553   2.5698   2.5877   2.5956
     2.6305   2.6534   2.6873   2.7086   2.7490   2.7898   2.8115   2.8851
     2.8961   2.9368   3.0113   3.0165   3.0476   3.0748   3.1251   3.1551
     3.1564   3.2226   3.2297   3.2981   3.3324   3.3351   3.3675   3.3777
     3.4391   3.4394   3.4603   3.4779   3.4941   3.5120   3.5128   3.5263
     3.5907   3.6449   3.6755   3.7105   3.7246   3.7296   3.7626   3.7951
     3.7962   3.8606   3.8885   3.8980   3.9332   3.9545   4.0028   4.0165
     4.0700   4.1104   4.1281   4.1444   4.1639   4.1963   4.2373   4.2830
     4.2921   4.2979   4.3589   4.3697   4.3859   4.4071   4.4380   4.4848
     4.4981   4.5124   4.5553   4.5612   4.6372   4.6964   4.7058   4.7354
     4.7363   4.7476   4.7685   4.7775   4.7888   4.7965   4.8152   4.8320
     4.8526   4.8772   4.9238   4.9357   4.9569   4.9730   4.9963   5.0192
     5.0212   5.0586   5.0638   5.1274   5.1348   5.1722   5.1914   5.1999
     5.2301   5.2609   5.2818   5.3264   5.3604   5.3886   5.3898   5.3984
     5.4760   5.5096   5.5275   5.5900   5.6263   5.6531   5.6627   5.6812
     5.6897   5.6917   5.7080   5.7381   5.7862   5.8093   5.8122   5.8471
     5.8681   5.8695   5.8781   5.9096   5.9127   5.9168   5.9837   5.9853
     6.0113   6.0160   6.0525   6.0662   6.0694   6.0999   6.1227   6.1428
     6.1485   6.1897   6.2164   6.2304   6.2501   6.3048   6.3130   6.3154
     6.3311   6.3613   6.4063   6.4240   6.4361   6.4424   6.4720   6.4877
     6.5320   6.5534   6.5755   6.5802   6.5868   6.5990   6.6230   6.6391
     6.6599   6.7015   6.7202   6.7284   6.7494   6.7560   6.7847   6.8141
     6.8202   6.8574   6.8926   6.9001   6.9148   6.9273   6.9559   6.9733
     6.9809   6.9905   7.0398   7.0544   7.0677   7.0689   7.0831   7.0986
     7.1022   7.1342   7.1366   7.1622   7.1717   7.1812   7.2080   7.2252
     7.2316   7.2498   7.2745   7.2770   7.2815   7.2930   7.3087   7.3110
     7.3710   7.3973   7.4186   7.4191   7.4507   7.4526   7.4687   7.5052
     7.5268   7.5367   7.5433   7.5753   7.5939   7.6067   7.6067   7.6334
     7.6697   7.6740   7.6994   7.7096   7.7250   7.7434   7.7781   7.7805
     7.7962   7.8058   7.8478   7.8585   7.8837   7.9004   7.9378   7.9731
     7.9861   8.0019   8.0023   8.0122   8.0535   8.0790   8.0809   8.1036
     8.1069   8.1447   8.1748   8.1931   8.1975   8.2349   8.2511   8.2612
     8.2684   8.2786   8.3043   8.3133   8.3373   8.3585   8.3662   8.3697
     8.3826   8.3873   8.4034   8.4080   8.4160   8.4183   8.4305   8.4415
     8.4492   8.4836   8.4847   8.4983   8.5177   8.5397   8.5503   8.5725
     8.5769   8.5827   8.6379   8.6579   8.6736   8.6741   8.6823   8.7024
     8.7225   8.7522   8.7966   8.8085   8.8099   8.8624   8.8981   8.9063
     8.9123   8.9183   8.9293   8.9690   8.9788   8.9874   9.0029   9.0036
     9.0221   9.0617   9.0816   9.0932   9.1056   9.1362   9.1738   9.1969
     9.2022   9.2064   9.2310   9.2624   9.2667   9.2760   9.2807   9.3036
     9.3208   9.3330   9.3373   9.3614   9.3884   9.3956   9.4146   9.4473
     9.4628   9.4650   9.5017   9.5113   9.5239   9.5333   9.5659   9.5780
     9.6102   9.6118   9.6639   9.6929

          k = 0.0000 0.0000 0.0139 (148839 PWs)   bands (ev):

   -21.8836 -21.6733 -21.3412 -20.9681 -20.8034 -20.6142 -20.3797 -20.1115
   -19.8517 -19.5465 -19.2721 -19.1271 -18.9445 -18.7447 -18.4888 -18.1889
   -18.0880 -17.8459 -17.7188 -17.3556 -17.1723 -17.0722 -17.0079 -16.8489
   -16.4273 -16.0293 -15.4831 -15.2794 -15.2234 -14.9134 -14.7916 -14.7332
   -14.5831 -14.3215 -14.2164 -13.9349 -13.6443 -13.3905 -12.9453 -12.7791
   -12.6632 -12.5518 -12.4068 -12.3370 -12.1130 -12.0085 -11.7949 -11.4616
   -11.3069 -11.0659 -11.0046 -10.9359 -10.7005 -10.4992 -10.3638 -10.2276
   -10.0806 -10.0305  -9.9360  -9.9061  -9.8365  -9.7696  -9.6943  -9.5614
    -9.4609  -9.3509  -9.3317  -9.2981  -9.2868  -9.1355  -8.9590  -8.9035
    -8.8566  -8.7914  -8.7134  -8.6725  -8.5002  -8.4858  -8.4473  -8.3204
    -8.2228  -8.1292  -7.9788  -7.8989  -7.8519  -7.8217  -7.7343  -7.6313
    -7.6130  -7.4140  -7.3679  -7.1003  -6.9371  -6.8337  -6.8052  -6.6717
    -6.5685  -6.4531  -6.3774  -6.2374  -6.1599  -5.8684  -5.7639  -5.6361
    -5.4963  -5.0387  -4.9270  -4.8474  -4.7398  -4.4683  -3.9755  -3.3908
    -2.2061  -1.6131  -1.1015  -1.0295  -0.9045  -0.8705  -0.6709  -0.3243
    -0.2732   0.1562   0.1956   0.3257   0.3748   0.5248   0.5733   0.6237
     0.7387   0.9494   0.9844   0.9924   1.0239   1.0696   1.2029   1.2654
     1.3294   1.4470   1.4888   1.5325   1.5620   1.6725   1.6821   1.7133
     1.7282   1.7603   1.7960   1.8404   1.8467   1.9976   2.0186   2.0967
     2.1067   2.1297   2.2337   2.2677   2.3077   2.3153   2.3756   2.4155
     2.4374   2.4655   2.4843   2.5454   2.5548   2.5828   2.5842   2.6081
     2.6417   2.6776   2.6957   2.6994   2.7538   2.7818   2.7956   2.8805
     2.9086   2.9242   3.0005   3.0161   3.0696   3.0713   3.1130   3.1564
     3.1848   3.2264   3.2367   3.2897   3.3299   3.3563   3.3761   3.4030
     3.4419   3.4426   3.4544   3.4660   3.4859   3.4987   3.5130   3.5143
     3.5652   3.6240   3.6895   3.7008   3.7096   3.7110   3.7363   3.7778
     3.8162   3.8394   3.8592   3.8633   3.9533   3.9668   3.9789   4.0334
     4.0961   4.1356   4.1419   4.1596   4.1737   4.1815   4.2362   4.2535
     4.2897   4.3244   4.3504   4.3830   4.4029   4.4317   4.4557   4.4622
     4.4902   4.5080   4.5694   4.5733   4.6635   4.6848   4.6984   4.7221
     4.7436   4.7445   4.7467   4.7590   4.8003   4.8062   4.8180   4.8378
     4.8641   4.9044   4.9099   4.9315   4.9666   4.9668   4.9782   4.9979
     5.0096   5.0363   5.0531   5.1321   5.1591   5.1837   5.1883   5.2112
     5.2209   5.2771   5.2836   5.3297   5.3538   5.3974   5.4049   5.4124
     5.4652   5.4806   5.5265   5.5787   5.6155   5.6500   5.6658   5.6862
     5.6997   5.7102   5.7239   5.7683   5.7818   5.8104   5.8106   5.8537
     5.8603   5.8717   5.9022   5.9298   5.9316   5.9513   5.9658   5.9698
     5.9929   6.0161   6.0368   6.0435   6.0613   6.0792   6.1347   6.1421
     6.1454   6.1549   6.1977   6.2067   6.2357   6.2917   6.2993   6.3195
     6.3262   6.3648   6.4049   6.4088   6.4197   6.4318   6.4726   6.4927
     6.5375   6.5503   6.5537   6.5789   6.5884   6.6148   6.6377   6.6513
     6.6682   6.7026   6.7274   6.7306   6.7492   6.7725   6.7886   6.8148
     6.8227   6.8502   6.9008   6.9073   6.9274   6.9445   6.9627   6.9743
     6.9878   7.0231   7.0234   7.0271   7.0451   7.0613   7.0873   7.0884
     7.1135   7.1229   7.1456   7.1512   7.1622   7.1648   7.2107   7.2180
     7.2479   7.2583   7.2625   7.2814   7.2859   7.2967   7.3237   7.3244
     7.3684   7.3927   7.4020   7.4414   7.4587   7.4681   7.4816   7.5269
     7.5342   7.5455   7.5579   7.5751   7.5892   7.6017   7.6101   7.6468
     7.6733   7.6747   7.7147   7.7173   7.7522   7.7687   7.7806   7.7829
     7.7930   7.8035   7.8522   7.8741   7.8920   7.9144   7.9149   7.9616
     7.9729   7.9961   8.0058   8.0059   8.0547   8.0681   8.0692   8.0955
     8.1225   8.1423   8.1475   8.1837   8.1951   8.2305   8.2365   8.2498
     8.2705   8.2750   8.2790   8.3187   8.3259   8.3434   8.3519   8.3618
     8.3753   8.3806   8.3926   8.4161   8.4256   8.4316   8.4358   8.4545
     8.4650   8.4688   8.4897   8.5102   8.5235   8.5303   8.5582   8.5643
     8.5826   8.5901   8.6265   8.6542   8.6729   8.6768   8.6790   8.7038
     8.7199   8.7446   8.7774   8.7821   8.8074   8.8597   8.8801   8.9071
     8.9155   8.9309   8.9401   8.9616   8.9818   8.9900   9.0146   9.0327
     9.0327   9.0761   9.0870   9.0989   9.1112   9.1567   9.1619   9.1729
     9.1833   9.2205   9.2229   9.2412   9.2703   9.2826   9.2898   9.3066
     9.3210   9.3238   9.3612   9.3674   9.4119   9.4183   9.4187   9.4344
     9.4408   9.4530   9.4841   9.4941   9.4943   9.5268   9.5595   9.5821
     9.5847   9.6229   9.6417   9.6834

          k = 0.0000 0.0000 0.0151 (148786 PWs)   bands (ev):

   -21.8808 -21.6829 -21.3242 -20.9687 -20.8230 -20.6235 -20.3634 -20.0902
   -19.8636 -19.5482 -19.2779 -19.1284 -18.9525 -18.7350 -18.5106 -18.1671
   -18.0852 -17.8456 -17.6987 -17.3402 -17.1886 -17.0935 -17.0150 -16.8526
   -16.4284 -16.0437 -15.4516 -15.2721 -15.2043 -14.9120 -14.7854 -14.7434
   -14.5906 -14.3497 -14.2039 -13.9541 -13.6562 -13.3763 -12.9533 -12.7902
   -12.6373 -12.5701 -12.3969 -12.3278 -12.1133 -11.9850 -11.7790 -11.4385
   -11.3191 -11.0765 -11.0284 -10.9674 -10.7029 -10.5016 -10.3932 -10.2108
   -10.0649 -10.0429  -9.9325  -9.8885  -9.8417  -9.7494  -9.7062  -9.5624
    -9.4683  -9.3394  -9.3078  -9.2907  -9.2779  -9.1304  -8.9703  -8.9033
    -8.8581  -8.7855  -8.7243  -8.6943  -8.5138  -8.4966  -8.4602  -8.3046
    -8.2038  -8.1414  -7.9676  -7.8970  -7.8258  -7.8047  -7.7269  -7.6454
    -7.6330  -7.4237  -7.3706  -7.1251  -6.9314  -6.8162  -6.8095  -6.6830
    -6.5505  -6.4402  -6.3854  -6.2442  -6.1819  -5.8773  -5.7232  -5.6546
    -5.4752  -5.0458  -4.9173  -4.8525  -4.7502  -4.4676  -3.9711  -3.4091
    -2.1868  -1.6187  -1.0981  -1.0116  -0.8968  -0.8677  -0.6841  -0.3495
    -0.2764   0.1334   0.1944   0.3304   0.3794   0.5592   0.5628   0.6103
     0.7431   0.9546   0.9596   0.9790   1.0440   1.0915   1.1915   1.2688
     1.3497   1.4530   1.4914   1.5093   1.5668   1.6883   1.7032   1.7041
     1.7219   1.7369   1.7787   1.8422   1.8586   2.0141   2.0205   2.0870
     2.0921   2.1319   2.2095   2.2725   2.3188   2.3203   2.3745   2.4030
     2.4147   2.4619   2.5058   2.5405   2.5632   2.5764   2.6127   2.6229
     2.6621   2.6773   2.7018   2.7122   2.7544   2.7645   2.8010   2.8653
     2.9071   2.9334   2.9910   3.0044   3.0682   3.0808   3.0987   3.1827
     3.2154   3.2291   3.2458   3.2681   3.3397   3.3706   3.3884   3.4117
     3.4135   3.4511   3.4635   3.4659   3.4789   3.4898   3.5110   3.5155
     3.5428   3.6024   3.6639   3.6832   3.6931   3.7115   3.7439   3.7619
     3.8087   3.8161   3.8292   3.8631   3.9350   3.9828   3.9896   4.0533
     4.1173   4.1225   4.1380   4.1825   4.1875   4.1963   4.2285   4.2451
     4.2902   4.3270   4.3518   4.3859   4.4304   4.4350   4.4611   4.4711
     4.4981   4.5048   4.5776   4.5874   4.6332   4.6766   4.7065   4.7105
     4.7264   4.7317   4.7412   4.7546   4.7993   4.8209   4.8448   4.8558
     4.8669   4.9008   4.9231   4.9332   4.9359   4.9658   4.9800   4.9842
     4.9957   5.0204   5.0645   5.1159   5.1611   5.1858   5.1945   5.2272
     5.2506   5.2743   5.3110   5.3294   5.3504   5.4055   5.4091   5.4158
     5.4473   5.4853   5.5235   5.5667   5.6045   5.6064   5.6681   5.6938
     5.7152   5.7246   5.7532   5.7729   5.7980   5.8104   5.8155   5.8476
     5.8669   5.8820   5.9107   5.9315   5.9408   5.9582   5.9591   5.9859
     5.9864   6.0070   6.0139   6.0313   6.0417   6.0783   6.0960   6.1337
     6.1563   6.1653   6.1654   6.1953   6.2505   6.2677   6.2790   6.3230
     6.3281   6.3662   6.3690   6.3972   6.4076   6.4423   6.4563   6.5012
     6.5062   6.5464   6.5651   6.5925   6.5990   6.6335   6.6516   6.6612
     6.6767   6.6992   6.7304   6.7309   6.7598   6.7953   6.7994   6.8186
     6.8242   6.8494   6.8936   6.9098   6.9377   6.9471   6.9583   6.9794
     6.9834   6.9964   7.0078   7.0419   7.0573   7.0652   7.0720   7.0757
     7.1080   7.1251   7.1350   7.1548   7.1548   7.1675   7.1740   7.2243
     7.2478   7.2764   7.2799   7.2880   7.2909   7.3150   7.3437   7.3454
     7.3636   7.3706   7.4092   7.4447   7.4478   7.4811   7.4890   7.5253
     7.5473   7.5500   7.5710   7.5968   7.5972   7.6098   7.6249   7.6390
     7.6736   7.7015   7.7161   7.7238   7.7455   7.7684   7.7952   7.8027
     7.8166   7.8224   7.8355   7.8697   7.8902   7.9096   7.9335   7.9435
     7.9793   7.9902   7.9964   8.0021   8.0413   8.0656   8.0673   8.1069
     8.1201   8.1381   8.1454   8.1649   8.1880   8.1950   8.2352   8.2365
     8.2611   8.2766   8.2873   8.2897   8.3118   8.3172   8.3276   8.3367
     8.3728   8.3841   8.3906   8.4183   8.4261   8.4298   8.4353   8.4599
     8.4682   8.4785   8.5101   8.5209   8.5345   8.5538   8.5587   8.5773
     8.5915   8.6059   8.6233   8.6401   8.6709   8.6766   8.6935   8.6953
     8.7339   8.7366   8.7552   8.7686   8.8046   8.8543   8.8545   8.8830
     8.9049   8.9520   8.9664   8.9675   8.9831   8.9940   9.0389   9.0396
     9.0503   9.0641   9.1097   9.1126   9.1183   9.1383   9.1457   9.1472
     9.1679   9.2146   9.2408   9.2450   9.2586   9.2840   9.2879   9.2990
     9.3192   9.3381   9.3683   9.3911   9.4024   9.4085   9.4202   9.4253
     9.4465   9.4550   9.4633   9.4746   9.4870   9.5310   9.5535   9.5704
     9.5977   9.6180   9.6299   9.6641

          k = 0.0000 0.0000 0.0163 (148752 PWs)   bands (ev):

   -21.8779 -21.6921 -21.3070 -20.9700 -20.8420 -20.6320 -20.3469 -20.0719
   -19.8725 -19.5497 -19.2932 -19.1208 -18.9593 -18.7254 -18.5327 -18.1640
   -18.0632 -17.8456 -17.6778 -17.3266 -17.2083 -17.1209 -17.0138 -16.8550
   -16.4306 -16.0586 -15.4180 -15.2638 -15.1844 -14.9167 -14.7944 -14.7326
   -14.5970 -14.3814 -14.1929 -13.9746 -13.6632 -13.3641 -12.9599 -12.8013
   -12.6196 -12.5850 -12.3887 -12.3147 -12.1102 -11.9606 -11.7636 -11.4173
   -11.3325 -11.0990 -11.0506 -10.9859 -10.7055 -10.5018 -10.4236 -10.1943
   -10.0729 -10.0332  -9.9287  -9.8724  -9.8457  -9.7306  -9.7176  -9.5627
    -9.4736  -9.3345  -9.3035  -9.2704  -9.2574  -9.1270  -8.9788  -8.9034
    -8.8641  -8.7764  -8.7348  -8.7160  -8.5261  -8.5066  -8.4761  -8.2856
    -8.1846  -8.1553  -7.9554  -7.8956  -7.8048  -7.7916  -7.7178  -7.6548
    -7.6517  -7.4321  -7.3725  -7.1501  -6.9408  -6.8152  -6.7859  -6.6908
    -6.5329  -6.4270  -6.3940  -6.2516  -6.2042  -5.8872  -5.6838  -5.6708
    -5.4531  -5.0545  -4.9176  -4.8562  -4.7531  -4.4678  -3.9664  -3.4275
    -2.1676  -1.6240  -1.0968  -0.9952  -0.8952  -0.8544  -0.6945  -0.3764
    -0.2778   0.0839   0.2203   0.3355   0.3843   0.5456   0.5972   0.6009
     0.7481   0.9349   0.9589   0.9665   1.0647   1.1137   1.1799   1.2736
[...]
     1.7461   1.8751   1.8804   1.9134   1.9393   1.9444   2.0014   2.0054
     2.1321   2.2066   2.2129   2.2568   2.3002   2.3498   2.3583   2.3962
     2.4068   2.4475   2.4533   2.4862   2.5352   2.5446   2.5653   2.6638
     2.6784   2.7174   2.7634   2.7821   2.8170   2.8194   2.8459   2.8718
     2.9056   2.9319   3.0034   3.0334   3.0748   3.1303   3.1492   3.1920
     3.2419   3.2860   3.2917   3.2975   3.3342   3.3461   3.3537   3.3556
     3.3601   3.3861   3.3988   3.4530   3.4754   3.4904   3.5139   3.5253
     3.5410   3.5734   3.5804   3.6169   3.6313   3.6556   3.6705   3.6708
     3.7486   3.7605   3.8351   3.8619   3.8912   3.9283   3.9424   3.9838
     4.1490   4.1640   4.1856   4.2068   4.2298   4.2872   4.3192   4.3676
     4.4027   4.4038   4.4269   4.4350   4.4351   4.4512   4.4680   4.4874
     4.5082   4.5174   4.5416   4.5710   4.5800   4.6131   4.6172   4.6407
     4.6735   4.6990   4.7000   4.7195   4.7201   4.7469   4.7795   4.7996
     4.8564   4.8602   4.8789   4.9439   4.9547   4.9965   5.0175   5.0466
     5.0997   5.1575   5.1739   5.1774   5.1937   5.2313   5.2695   5.2715
     5.3121   5.3458   5.3776   5.4051   5.4169   5.4432   5.4699   5.4898
     5.4930   5.5125   5.5618   5.5695   5.5892   5.6077   5.6202   5.6297
     5.6632   5.6730   5.6871   5.6887   5.7003   5.7112   5.7150   5.7765
     5.7811   5.8018   5.8280   5.8475   5.8758   5.8883   5.8902   5.9091
     5.9354   5.9871   6.0028   6.0568   6.0644   6.0920   6.1386   6.1647
     6.1712   6.1756   6.2147   6.2212   6.2819   6.2916   6.3498   6.3578
     6.3635   6.3837   6.4033   6.4237   6.4438   6.4555   6.4806   6.4865
     6.4872   6.5016   6.5365   6.5679   6.5699   6.6050   6.6127   6.6686
     6.6695   6.6884   6.7088   6.7357   6.7429   6.7511   6.7644   6.8107
     6.8320   6.8437   6.8542   6.9005   6.9204   6.9400   6.9523   6.9574
     6.9667   6.9885   7.0049   7.0073   7.0596   7.0648   7.1023   7.1168
     7.1217   7.1365   7.1688   7.1783   7.1964   7.2158   7.2268   7.2576
     7.2933   7.3043   7.3107   7.3422   7.3617   7.3722   7.3880   7.4168
     7.4184   7.4354   7.4589   7.4688   7.4816   7.4849   7.5346   7.5438
     7.5616   7.5784   7.5842   7.5867   7.6145   7.6251   7.6540   7.6566
     7.6918   7.7004   7.7146   7.7480   7.7499   7.7716   7.7840   7.7893
     7.8070   7.8227   7.8515   7.8552   7.8892   7.9255   7.9284   7.9496
     7.9636   7.9839   8.0021   8.0196   8.0379   8.0390   8.0539   8.0636
     8.0795   8.1029   8.1045   8.1172   8.1276   8.1302   8.1636   8.2034
     8.2408   8.2737   8.2898   8.3037   8.3187   8.3230   8.3430   8.3490
     8.3663   8.4025   8.4175   8.4205   8.4273   8.4545   8.4552   8.4767
     8.4787   8.4923   8.4936   8.5212   8.5242   8.5393   8.5637   8.5739
     8.5888   8.6181   8.6279   8.6512   8.6775   8.6809   8.6990   8.7001
     8.7046   8.7506   8.7649   8.7779   8.8095   8.8497   8.8529   8.8636
     8.8654   8.9250   8.9321   8.9460   8.9592   8.9724   8.9922   9.0372
     9.0690   9.0898   9.1068   9.1127   9.1282   9.1379   9.1461   9.1735
     9.1826   9.2044   9.2075   9.2536   9.2758   9.2809   9.2996   9.3042
     9.3111   9.3525   9.3605   9.3831   9.4045   9.4275   9.4297   9.4427
     9.4532   9.4724   9.4827   9.4988   9.5083   9.5097   9.5185   9.5309
     9.5540   9.5611   9.5798   9.5919

          k = 0.0000 0.0000 0.0267 (148818 PWs)   bands (ev):

   -21.8531 -21.7491 -21.1437 -21.0648 -20.9263 -20.6759 -20.1941 -20.1205
   -19.7509 -19.5804 -19.5012 -19.0141 -18.9331 -18.7361 -18.6413 -18.2526
   -17.8470 -17.6965 -17.5280 -17.4685 -17.3773 -17.2482 -16.9041 -16.8727
   -16.4867 -16.1462 -15.1755 -15.1271 -15.0550 -14.9592 -14.9172 -14.7583
   -14.6258 -14.4468 -14.2763 -14.0783 -13.6201 -13.3450 -12.9275 -12.8650
   -12.7643 -12.5268 -12.4327 -12.1302 -11.9448 -11.7392 -11.6825 -11.5873
   -11.3556 -11.2990 -11.1752 -10.8792 -10.7807 -10.6541 -10.3889 -10.2875
   -10.0792  -9.9302  -9.8941  -9.8420  -9.7910  -9.7836  -9.6295  -9.5608
    -9.5228  -9.3371  -9.2498  -9.1782  -9.0666  -9.0402  -8.9957  -8.9764
    -8.9744  -8.8431  -8.7699  -8.6917  -8.6287  -8.5876  -8.5145  -8.3253
    -8.0565  -8.0004  -7.9544  -7.9148  -7.8480  -7.8188  -7.7867  -7.5150
    -7.4857  -7.4565  -7.3769  -7.3367  -7.2272  -6.7642  -6.6154  -6.5876
    -6.4865  -6.4058  -6.3917  -6.3401  -6.3239  -5.9873  -5.7456  -5.3629
    -5.2391  -5.1883  -5.1131  -4.9173  -4.5900  -4.5257  -3.9279  -3.5500
    -2.0402  -1.6522  -1.0964  -1.0568  -0.7458  -0.7169  -0.6279  -0.5511
    -0.3738  -0.2559   0.3959   0.4314   0.4380   0.4423   0.5006   0.7352
     0.8084   0.8583   0.9516   1.0248   1.0670   1.1325   1.2596   1.3161
     1.3370   1.3760   1.4315   1.4614   1.4813   1.6107   1.6505   1.6634
     1.7728   1.8797   1.8858   1.8911   1.9340   1.9524   1.9996   2.0098
     2.1054   2.2113   2.2528   2.2834   2.2939   2.3558   2.3641   2.3879
     2.4041   2.4315   2.4418   2.5001   2.5047   2.5477   2.5549   2.6476
     2.6834   2.7243   2.7559   2.7888   2.8224   2.8250   2.8432   2.8735
     2.9112   2.9554   3.0198   3.0329   3.0889   3.1176   3.1307   3.1990
     3.2345   3.2849   3.2873   3.3075   3.3333   3.3338   3.3504   3.3578
     3.3734   3.3746   3.3960   3.4625   3.4840   3.4855   3.4890   3.5150
     3.5281   3.5789   3.5800   3.6072   3.6380   3.6477   3.6825   3.6921
     3.7750   3.7861   3.8067   3.8358   3.8987   3.9043   3.9261   3.9912
     4.1186   4.1678   4.1944   4.2406   4.2548   4.2902   4.3336   4.3650
     4.3852   4.3934   4.4042   4.4333   4.4585   4.4603   4.4763   4.4865
     4.5157   4.5226   4.5520   4.5635   4.5926   4.5995   4.6013   4.6291
     4.6644   4.6723   4.6891   4.7148   4.7328   4.7476   4.7894   4.8014
     4.8552   4.8680   4.8849   4.9458   4.9531   4.9607   5.0221   5.0626
     5.1228   5.1375   5.1629   5.1861   5.2144   5.2331   5.2711   5.2949
     5.3187   5.3691   5.3896   5.3905   5.4305   5.4411   5.4810   5.4880
     5.5002   5.5233   5.5563   5.5606   5.5787   5.5929   5.6103   5.6312
     5.6523   5.6675   5.6705   5.6959   5.6993   5.7067   5.7502   5.7738
     5.7792   5.8025   5.8098   5.8377   5.8532   5.8561   5.8940   5.9053
     5.9402   5.9487   5.9996   6.0562   6.0667   6.0830   6.1363   6.1625
     6.1698   6.1979   6.2285   6.2514   6.2827   6.3193   6.3607   6.3791
     6.3916   6.4044   6.4105   6.4151   6.4399   6.4491   6.4677   6.4718
     6.4934   6.5130   6.5386   6.5544   6.5650   6.5999   6.6094   6.6338
     6.6675   6.6757   6.6770   6.7179   6.7285   6.7458   6.7715   6.7924
     6.8494   6.8620   6.8716   6.9066   6.9248   6.9443   6.9469   6.9632
     6.9663   6.9850   7.0030   7.0175   7.0635   7.0715   7.1007   7.1033
     7.1323   7.1581   7.1600   7.1866   7.1997   7.2014   7.2593   7.2657
     7.2745   7.2922   7.3025   7.3485   7.3610   7.3705   7.3936   7.4121
     7.4229   7.4573   7.4698   7.4763   7.4858   7.5005   7.5098   7.5529
     7.5626   7.5692   7.5874   7.5940   7.6089   7.6167   7.6496   7.6648
     7.6828   7.6932   7.7176   7.7411   7.7517   7.7601   7.7839   7.7901
     7.8144   7.8159   7.8419   7.8644   7.8912   7.9036   7.9316   7.9375
     7.9515   7.9794   7.9924   8.0180   8.0331   8.0397   8.0443   8.0735
     8.0918   8.0984   8.1120   8.1286   8.1289   8.1391   8.1573   8.2073
     8.2471   8.2863   8.3118   8.3120   8.3224   8.3225   8.3514   8.3755
     8.3825   8.3903   8.4115   8.4323   8.4464   8.4494   8.4569   8.4585
     8.4709   8.4829   8.4904   8.5289   8.5290   8.5363   8.5629   8.5827
     8.5865   8.6140   8.6241   8.6415   8.6458   8.6593   8.6963   8.7069
     8.7273   8.7508   8.7617   8.7642   8.7921   8.8295   8.8306   8.8566
     8.8715   8.9161   8.9273   8.9524   8.9664   8.9789   9.0010   9.0218
     9.0587   9.0861   9.0938   9.1298   9.1307   9.1459   9.1499   9.1740
     9.1937   9.2126   9.2300   9.2763   9.3011   9.3067   9.3194   9.3208
     9.3326   9.3474   9.3641   9.3918   9.3987   9.4246   9.4342   9.4468
     9.4485   9.4582   9.4646   9.4744   9.4968   9.4997   9.5210   9.5248
     9.5304   9.5565   9.5624   9.5848

          k = 0.0000 0.0000 0.0279 (148816 PWs)   bands (ev):

   -21.8520 -21.7510 -21.1263 -21.0818 -20.9271 -20.6771 -20.1785 -20.1355
   -19.7371 -19.5883 -19.5086 -19.0133 -18.9249 -18.7450 -18.6400 -18.2558
   -17.8470 -17.6538 -17.5689 -17.4469 -17.3996 -17.2477 -16.8939 -16.8781
   -16.4901 -16.1484 -15.1654 -15.1187 -15.0595 -14.9694 -14.8800 -14.7995
   -14.6273 -14.4238 -14.2974 -14.0780 -13.6168 -13.3465 -12.9211 -12.8682
   -12.7721 -12.5250 -12.4358 -12.1255 -11.9294 -11.7165 -11.6853 -11.6134
   -11.3640 -11.2962 -11.1788 -10.8592 -10.7980 -10.6617 -10.3700 -10.3088
   -10.0749  -9.9313  -9.8924  -9.8300  -9.7939  -9.7936  -9.6049  -9.5647
    -9.5450  -9.3177  -9.2625  -9.1753  -9.0475  -9.0329  -8.9943  -8.9937
    -8.9826  -8.8452  -8.7694  -8.6863  -8.6383  -8.5892  -8.5109  -8.3330
    -8.0378  -7.9790  -7.9696  -7.9362  -7.8404  -7.8250  -7.7890  -7.5047
    -7.4755  -7.4452  -7.3996  -7.3188  -7.2563  -6.7644  -6.6070  -6.5754
    -6.4927  -6.4177  -6.3782  -6.3522  -6.3205  -5.9917  -5.7469  -5.3437
    -5.2225  -5.1933  -5.1400  -4.9185  -4.5730  -4.5386  -3.9263  -3.5541
    -2.0361  -1.6529  -1.0958  -1.0617  -0.7448  -0.6943  -0.6478  -0.5223
    -0.4077  -0.2592   0.4024   0.4333   0.4408   0.4435   0.4953   0.7265
     0.8145   0.8510   0.9826   1.0322   1.0586   1.1016   1.2730   1.3164
     1.3516   1.3852   1.4119   1.4415   1.4832   1.6176   1.6420   1.6631
     1.7999   1.8573   1.8831   1.9017   1.9233   1.9587   1.9986   2.0226
     2.0809   2.2147   2.2822   2.2896   2.3102   2.3599   2.3652   2.3755
     2.4119   2.4216   2.4296   2.4694   2.5132   2.5406   2.5638   2.6317
     2.6873   2.7304   2.7505   2.7946   2.8232   2.8232   2.8456   2.8814
     2.9074   2.9788   3.0207   3.0371   3.0977   3.1138   3.1207   3.1848
     3.2477   3.2816   3.2840   3.3178   3.3184   3.3285   3.3423   3.3508
     3.3744   3.4019   3.4035   3.4569   3.4606   3.4781   3.4921   3.5188
     3.5268   3.5720   3.5848   3.5912   3.6377   3.6421   3.7142   3.7172
     3.7804   3.7986   3.8039   3.8131   3.8695   3.8697   3.9668   3.9984
     4.0730   4.1690   4.2195   4.2633   4.2763   4.2924   4.3451   4.3528
     4.3607   4.3872   4.3947   4.4287   4.4662   4.4683   4.4764   4.4971
     4.5225   4.5344   4.5615   4.5685   4.5805   4.5838   4.6086   4.6135
     4.6507   4.6559   4.6877   4.7090   4.7358   4.7485   4.8029   4.8146
     4.8472   4.8658   4.8895   4.9425   4.9469   4.9520   5.0314   5.0755
     5.1026   5.1269   5.1779   5.1960   5.2229   5.2406   5.2765   5.2867
     5.3408   5.3656   5.3721   5.4345   5.4383   5.4488   5.4559   5.4980
     5.5205   5.5302   5.5365   5.5533   5.5743   5.5824   5.6001   5.6114
     5.6298   5.6690   5.6771   5.6894   5.7263   5.7286   5.7659   5.7766
     5.7813   5.7902   5.8068   5.8168   5.8329   5.8410   5.8809   5.9187
     5.9197   5.9456   5.9898   6.0571   6.0697   6.0781   6.1364   6.1570
     6.1669   6.2021   6.2400   6.2938   6.3009   6.3417   6.3606   6.3758
     6.4007   6.4017   6.4046   6.4206   6.4301   6.4322   6.4610   6.4898
     6.5142   6.5146   6.5459   6.5563   6.5677   6.5896   6.6038   6.6163
     6.6328   6.6658   6.6793   6.6998   6.7231   6.7378   6.7436   6.8052
     6.8512   6.8775   6.9013   6.9123   6.9252   6.9469   6.9518   6.9577
     6.9740   6.9810   7.0050   7.0286   7.0532   7.0720   7.0736   7.1089
     7.1439   7.1545   7.1807   7.1851   7.1860   7.2074   7.2554   7.2742
     7.2914   7.2927   7.2989   7.3331   7.3575   7.3786   7.3959   7.4198
     7.4228   7.4711   7.4774   7.4794   7.4809   7.4998   7.5077   7.5496
     7.5547   7.5619   7.5977   7.5999   7.6088   7.6330   7.6458   7.6470
     7.6812   7.6912   7.7165   7.7190   7.7388   7.7801   7.7942   7.7978
     7.8017   7.8173   7.8443   7.8799   7.8826   7.8925   7.9161   7.9281
     7.9526   7.9662   7.9963   8.0150   8.0161   8.0402   8.0550   8.0719
     8.0948   8.1036   8.1110   8.1156   8.1347   8.1446   8.1672   8.2372
     8.2589   8.2975   8.3002   8.3182   8.3240   8.3475   8.3516   8.3551
     8.3872   8.3966   8.4052   8.4236   8.4327   8.4346   8.4586   8.4663
     8.4847   8.4930   8.5165   8.5347   8.5373   8.5389   8.5608   8.5802
     8.5918   8.5985   8.6197   8.6264   8.6293   8.6400   8.6986   8.7104
     8.7222   8.7500   8.7536   8.7567   8.8015   8.8081   8.8212   8.8620
     8.8803   8.9058   8.9205   8.9595   8.9619   8.9796   9.0023   9.0217
     9.0623   9.0704   9.0968   9.1134   9.1200   9.1286   9.1569   9.1880
     9.2239   9.2485   9.2572   9.2989   9.3126   9.3240   9.3408   9.3420
     9.3468   9.3548   9.3574   9.3864   9.3940   9.4070   9.4080   9.4268
     9.4287   9.4379   9.4569   9.4740   9.4980   9.5054   9.5173   9.5226
     9.5416   9.5442   9.5632   9.5760

          k = 0.0000 0.0000-0.0290 (148818 PWs)   bands (ev):

   -21.8517 -21.7517 -21.1157 -21.0922 -20.9274 -20.6775 -20.1696 -20.1442
   -19.7319 -19.5916 -19.5110 -19.0131 -18.9218 -18.7483 -18.6395 -18.2569
   -17.8470 -17.6143 -17.6080 -17.4289 -17.4176 -17.2476 -16.8864 -16.8839
   -16.4913 -16.1491 -15.1615 -15.1165 -15.0607 -14.9732 -14.8406 -14.8402
   -14.6278 -14.4140 -14.3065 -14.0778 -13.6157 -13.3470 -12.9186 -12.8695
   -12.7747 -12.5244 -12.4368 -12.1239 -11.9239 -11.6994 -11.6939 -11.6242
   -11.3669 -11.2953 -11.1800 -10.8484 -10.8078 -10.6642 -10.3594 -10.3202
   -10.0734  -9.9318  -9.8919  -9.8236  -9.7998  -9.7945  -9.5813  -9.5805
    -9.5532  -9.3081  -9.2701  -9.1741  -9.0370  -9.0306  -9.0036  -8.9903
    -8.9887  -8.8458  -8.7692  -8.6840  -8.6420  -8.5897  -8.5096  -8.3357
    -8.0290  -7.9773  -7.9584  -7.9569  -7.8361  -7.8288  -7.7898  -7.5014
    -7.4720  -7.4345  -7.4140  -7.3056  -7.2732  -6.7645  -6.6040  -6.5709
    -6.4951  -6.4222  -6.3671  -6.3629  -6.3193  -5.9932  -5.7474  -5.3364
    -5.2203  -5.1853  -5.1563  -4.9190  -4.5622  -4.5481  -3.9258  -3.5554
    -2.0347  -1.6532  -1.0956  -1.0634  -0.7445  -0.6746  -0.6671  -0.5060
    -0.4253  -0.2601   0.4054   0.4300   0.4441   0.4450   0.4933   0.7235
     0.8171   0.8480   0.9976   1.0362   1.0544   1.0867   1.2790   1.3128
     1.3725   1.3736   1.4114   1.4295   1.4839   1.6215   1.6376   1.6630
     1.8226   1.8343   1.8842   1.9115   1.9136   1.9602   1.9983   2.0333
     2.0670   2.2159   2.2880   2.2929   2.3319   2.3434   2.3628   2.3867
     2.4178   2.4182   2.4183   2.4532   2.5218   2.5326   2.5702   2.6243
     2.6887   2.7327   2.7485   2.7973   2.8212   2.8229   2.8471   2.8882
     2.9019   3.0008   3.0016   3.0479   3.0890   3.1136   3.1303   3.1720
     3.2624   3.2750   3.2809   3.3126   3.3228   3.3309   3.3369   3.3415
     3.3794   3.4083   3.4280   3.4345   3.4490   3.4768   3.4965   3.5141
     3.5402   3.5597   3.5866   3.5877   3.6366   3.6400   3.7278   3.7481
     3.7657   3.7684   3.8269   3.8370   3.8441   3.8450   3.9849   4.0158
     4.0383   4.1688   4.2433   4.2461   4.2993   4.3110   4.3246   4.3345
     4.3699   4.3855   4.3916   4.4229   4.4647   4.4700   4.4833   4.5004
     4.5262   4.5486   4.5515   4.5747   4.5763   4.5859   4.5962   4.6144
     4.6413   4.6539   4.6877   4.7062   4.7357   4.7488   4.8035   4.8340
     4.8438   4.8656   4.8754   4.9433   4.9472   4.9516   5.0397   5.0810
     5.0848   5.1253   5.1869   5.2018   5.2189   5.2459   5.2761   5.3056
     5.3092   5.3676   5.4076   5.4168   5.4413   5.4486   5.4654   5.5013
     5.5122   5.5279   5.5456   5.5622   5.5686   5.5814   5.5831   5.6008
     5.6187   5.6674   5.6881   5.6935   5.7380   5.7494   5.7506   5.7743
     5.7758   5.7929   5.8124   5.8190   5.8214   5.8316   5.8700   5.9090
     5.9260   5.9488   5.9834   6.0577   6.0700   6.0777   6.1370   6.1550
     6.1650   6.2022   6.2427   6.3224   6.3317   6.3418   6.3473   6.3580
     6.3793   6.4078   6.4175   6.4192   6.4233   6.4375   6.4577   6.4970
     6.5080   6.5437   6.5487   6.5548   6.5617   6.5790   6.6004   6.6172
     6.6259   6.6635   6.6639   6.7047   6.7194   6.7213   6.7430   6.8093
     6.8516   6.8842   6.9097   6.9177   6.9206   6.9486   6.9517   6.9644
     6.9705   7.0032   7.0065   7.0153   7.0380   7.0653   7.0733   7.1142
     7.1501   7.1534   7.1764   7.1787   7.1975   7.2168   7.2365   7.2820
     7.2843   7.3042   7.3109   7.3353   7.3377   7.3818   7.4102   7.4222
     7.4228   7.4499   7.4783   7.4818   7.4893   7.5044   7.5103   7.5394
     7.5501   7.5674   7.5999   7.6108   7.6131   7.6255   7.6421   7.6501
     7.6748   7.6893   7.7136   7.7221   7.7265   7.7808   7.7970   7.8041
     7.8174   7.8177   7.8292   7.8801   7.8890   7.8938   7.9057   7.9204
     7.9507   7.9672   7.9988   8.0068   8.0128   8.0400   8.0644   8.0706
     8.0925   8.1040   8.1078   8.1118   8.1460   8.1519   8.1530   8.2598
     8.2882   8.2950   8.3019   8.3098   8.3207   8.3208   8.3534   8.3583
     8.3921   8.3978   8.4107   8.4182   8.4200   8.4326   8.4593   8.4747
     8.4784   8.5083   8.5366   8.5379   8.5395   8.5457   8.5628   8.5729
     8.5752   8.6059   8.6096   8.6212   8.6215   8.6371   8.6890   8.7084
     8.7273   8.7484   8.7487   8.7715   8.7903   8.7984   8.8165   8.8837
     8.8898   8.9008   8.9195   8.9252   8.9602   8.9987   9.0020   9.0325
     9.0492   9.0742   9.0977   9.1049   9.1088   9.1277   9.1567   9.1886
     9.2376   9.2775   9.2789   9.3063   9.3077   9.3319   9.3374   9.3548
     9.3572   9.3596   9.3640   9.3836   9.3877   9.3887   9.3966   9.4000
     9.4131   9.4554   9.4565   9.4580   9.5093   9.5164   9.5175   9.5220
     9.5366   9.5379   9.5515   9.5639

     the Fermi energy is    -3.1728 ev

     Writing output data file C_2Z_3A_W7.save/

     init_run     :     20.45s CPU     21.09s WALL (       1 calls)
     electrons    :  11595.21s CPU  11722.43s WALL (       1 calls)

     Called by init_run:
     wfcinit      :      0.00s CPU      0.00s WALL (       1 calls)
     potinit      :      1.35s CPU      1.51s WALL (       1 calls)
     hinit0       :     14.99s CPU     15.09s WALL (       1 calls)

     Called by electrons:
     c_bands      :  11595.19s CPU  11722.14s WALL (       1 calls)
     v_of_rho     :      1.02s CPU      1.09s WALL (       1 calls)
     newd         :      0.89s CPU      1.14s WALL (       1 calls)

     Called by c_bands:
     init_us_2    :      1.08s CPU      1.17s WALL (      26 calls)
     cegterg      :  11335.94s CPU  11446.71s WALL (      89 calls)

     Called by sum_band:

     Called by *egterg:
     h_psi        :   3958.29s CPU   4008.90s WALL (    1649 calls)
     s_psi        :    330.50s CPU    332.06s WALL (    1649 calls)
     g_psi        :     18.26s CPU     18.36s WALL (    1534 calls)
     cdiaghg      :   3435.43s CPU   3448.71s WALL (    1560 calls)

     Called by h_psi:
     h_psi:pot    :   3935.01s CPU   3977.76s WALL (    1649 calls)
     h_psi:calbec :    303.07s CPU    306.84s WALL (    1649 calls)
     vloc_psi     :   3305.52s CPU   3342.70s WALL (    1649 calls)
     add_vuspsi   :    326.39s CPU    328.16s WALL (    1649 calls)

     General routines
     calbec       :    303.06s CPU    306.77s WALL (    1649 calls)
     fft          :      1.11s CPU      1.22s WALL (      14 calls)
     ffts         :      0.01s CPU      0.01s WALL (       1 calls)
     fftw         :   2621.00s CPU   2648.88s WALL (  584198 calls)
     interpolate  :      0.08s CPU      0.09s WALL (       1 calls)
     davcio       :      0.00s CPU     13.36s WALL (      52 calls)

     Parallel routines
     fft_scatt_xy :    611.69s CPU    618.08s WALL (  584213 calls)
     fft_scatt_yz :    340.93s CPU    346.99s WALL (  584213 calls)

     PWSCF        :     3h13m CPU       13h 3m WALL

      22h

   This run was terminated on:  23: 0: 5  17May2021            

=------------------------------------------------------------------------------=
   JOB DONE.
=------------------------------------------------------------------------------=
