
     Program PWSCF v.6.3 starts on 29Apr2021 at  2:46: 8 

     This program is part of the open-source Quantum ESPRESSO suite
     for quantum simulation of materials; please cite
         "P. Giannozzi et al., J. Phys.:Condens. Matter 21 395502 (2009);
         "P. Giannozzi et al., J. Phys.:Condens. Matter 29 465901 (2017);
          URL http://www.quantum-espresso.org", 
     in publications or presentations arising from this work. More details at
     http://www.quantum-espresso.org/quote

     Parallel version (MPI), running on    16 processors
     R & G space division:  proc/nbgrp/npool/nimage =      16
     Waiting for input...
     Reading input from standard input
     Message from routine read_cards :
     DEPRECATED: no units specified in CELL_PARAMETERS card

     Current dimensions of program PWSCF are:
     Max number of different atomic species (ntypx) = 10
     Max number of k-points (npk) =  40000
     Max angular momentum in pseudopotentials (lmaxx) =  3

     Atomic positions and unit cell read from directory:
     /home/zfwang/scratch/GNRDATASET/AGNR/C_2Z_3A_W9/C_2Z_3A_W9.save/


     Subspace diagonalization in iterative solution of the eigenvalue problem:
     a serial algorithm will be used


     Parallelization info
     --------------------
     sticks:   dense  smooth     PW     G-vecs:    dense   smooth      PW
     Min        2556     852    219               386920    74458    9737
     Max        2557     853    220               386925    74461    9740
     Sum       40909   13645   3513              6190751  1191359  155811



     bravais-lattice index     =            0
     lattice parameter (alat)  =       1.8897  a.u.
     unit-cell volume          =   34861.8960 (a.u.)^3
     number of atoms/cell      =           84
     number of atomic types    =            2
     number of electrons       =       288.00
     number of Kohn-Sham states=          500
     kinetic-energy cutoff     =      40.0000  Ry
     charge density cutoff     =     480.0000  Ry
     Exchange-correlation      = PBE ( 1  4  3  4 0 0)

     celldm(1)=  18.897261  celldm(2)=   3.000000  celldm(3)=   1.722000
     celldm(4)=   0.000000  celldm(5)=   0.000000  celldm(6)=   0.000000

     crystal axes: (cart. coord. in units of alat)
               a(1) = (  10.000000   0.000000   0.000000 )  
               a(2) = (   0.000000  30.000000   0.000000 )  
               a(3) = (   0.000000   0.000000  17.220000 )  

     reciprocal axes: (cart. coord. in units 2 pi/alat)
               b(1) = (  0.100000  0.000000  0.000000 )  
               b(2) = (  0.000000  0.033333  0.000000 )  
               b(3) = (  0.000000  0.000000  0.058072 )  


     PseudoPot. # 1 for C  read from file:
     /home/zfwang/hp_home/MySoftware/qe-6.3/pseudo/C.pbe-n-rrkjus_psl.0.1.UPF
     MD5 check sum: fff530ed632a789b3b184014e67dd7f1
     Pseudo is Ultrasoft + core correction, Zval =  4.0
     Generated using "atomic" code by A. Dal Corso v.5.0.2 svn rev. 9415
     Using radial grid of 1073 points,  4 beta functions with: 
                l(1) =   0
                l(2) =   0
                l(3) =   1
                l(4) =   1
     Q(r) pseudized with 0 coefficients 


     PseudoPot. # 2 for H  read from file:
     /home/zfwang/hp_home/MySoftware/qe-6.3/pseudo/H.pbe-rrkjus_psl.0.1.UPF
     MD5 check sum: e164a6907b691c6980f16942be34de84
     Pseudo is Ultrasoft, Zval =  1.0
     Generated using "atomic" code by A. Dal Corso v.5.0.2 svn rev. 9415
     Using radial grid of  929 points,  2 beta functions with: 
                l(1) =   0
                l(2) =   0
     Q(r) pseudized with 0 coefficients 


     atomic species   valence    mass     pseudopotential
        C              4.00    12.01070     C ( 1.00)
        H              1.00     1.00794     H ( 1.00)

     No symmetry found



   Cartesian axes

     site n.     atom                  positions (alat units)
         1           C   tau(   1) = (   4.9999998   9.5695442   3.7647204  )
         2           C   tau(   2) = (   4.9999997  10.1939545   8.0039710  )
         3           C   tau(   3) = (   5.0000006  10.8121409  12.2230374  )
         4           C   tau(   4) = (   4.9999998  11.4247954  16.4451788  )
         5           C   tau(   5) = (   4.9999995  10.6754735   2.8710545  )
         6           C   tau(   6) = (   4.9999995  11.2779236   7.1001892  )
         7           C   tau(   7) = (   5.0000004  11.8977006  11.3305873  )
         8           C   tau(   8) = (   4.9999998  12.4943286  15.5667643  )
         9           C   tau(   9) = (   4.9999994  12.0007489   3.4154710  )
        10           C   tau(  10) = (   5.0000000  12.6023100   7.6286618  )
        11           C   tau(  11) = (   5.0000002  13.2180320  11.8568990  )
        12           C   tau(  12) = (   4.9999994  13.8341914  16.0822270  )
        13           C   tau(  13) = (   5.0000000   9.7621171   5.1155990  )
        14           C   tau(  14) = (   5.0000001  10.3952288   9.3567518  )
        15           C   tau(  15) = (   5.0000001  11.0070256  13.5812765  )
        16           C   tau(  16) = (   4.9999998  10.5020620   1.4890283  )
        17           C   tau(  17) = (   4.9999994  11.0681678   5.6849227  )
        18           C   tau(  18) = (   5.0000003  11.6939649   9.9093625  )
        19           C   tau(  19) = (   5.0000000  12.2967867  14.1355975  )
        20           C   tau(  20) = (   4.9999995  13.1209561   2.5462265  )
        21           C   tau(  21) = (   5.0000000  13.7269565   6.7549459  )
        22           C   tau(  22) = (   5.0000002  14.3421177  10.9796239  )
        23           C   tau(  23) = (   4.9999996  14.9485689  15.2079892  )
        24           C   tau(  24) = (   4.9999993  14.4442006   3.0741124  )
        25           C   tau(  25) = (   5.0000002  15.0507669   7.2831667  )
        26           C   tau(  26) = (   5.0000003  15.6571145  11.5116613  )
        27           C   tau(  27) = (   4.9999996  16.2723680  15.7362026  )
        28           C   tau(  28) = (   4.9999996  11.5989276   0.6188334  )
        29           C   tau(  29) = (   4.9999994  12.1917054   4.8214344  )
        30           C   tau(  30) = (   5.0000003  12.8091619   9.0376987  )
        31           C   tau(  31) = (   5.0000001  13.4181149  13.2672988  )
        32           C   tau(  32) = (   4.9999993  12.9286012   1.1473285  )
        33           C   tau(  33) = (   4.9999996  13.5207202   5.3527586  )
        34           C   tau(  34) = (   5.0000004  14.1405479   9.5678502  )
        35           C   tau(  35) = (   5.0000000  14.7469837  13.7948682  )
        36           C   tau(  36) = (   4.9999994  15.5551132   2.1970278  )
        37           C   tau(  37) = (   5.0000002  16.1651482   6.4089264  )
        38           C   tau(  38) = (   5.0000004  16.7811837  10.6343477  )
        39           C   tau(  39) = (   4.9999998  17.3970309  14.8625185  )
        40           C   tau(  40) = (   4.9999997  16.8783781   2.7248820  )
        41           C   tau(  41) = (   5.0000004  17.5050230   6.9243599  )
        42           C   tau(  42) = (   5.0000001  18.1015151  11.1606821  )
        43           C   tau(  43) = (   5.0000001  18.7214427  15.3909311  )
        44           C   tau(  44) = (   4.9999990  14.0389751   0.2653486  )
        45           C   tau(  45) = (   4.9999992  14.6372640   4.4790415  )
        46           C   tau(  46) = (   5.0000005  15.2523444   8.6963417  )
        47           C   tau(  47) = (   5.0000003  15.8587981  12.9234175  )
        48           C   tau(  48) = (   4.9999993  15.3620680   0.7920991  )
        49           C   tau(  49) = (   4.9999997  15.9603666   5.0057796  )
        50           C   tau(  50) = (   5.0000007  16.5812318   9.2239166  )
        51           C   tau(  51) = (   5.0000000  17.1902019  13.4535167  )
        52           C   tau(  52) = (   4.9999998  17.9985822   1.8556102  )
        53           C   tau(  53) = (   5.0000003  18.5745646   6.0459089  )
        54           C   tau(  54) = (   5.0000001  19.1870666  10.2682324  )
        55           C   tau(  55) = (   5.0000007  19.8054593  14.4871767  )
        56           C   tau(  56) = (   4.9999999  19.3238806   2.3999849  )
        57           C   tau(  57) = (   4.9999996  16.4786096  17.1383827  )
        58           C   tau(  58) = (   4.9999997  17.0707570   4.1237921  )
        59           C   tau(  59) = (   5.0000006  17.7025856   8.3555784  )
        60           C   tau(  60) = (   5.0000002  18.3054160  12.5818796  )
        61           C   tau(  61) = (   5.0000000  18.9312084  16.8061664  )
        62           C   tau(  62) = (   4.9999997  17.8076405   0.4496482  )
        63           C   tau(  63) = (   5.0000000  18.4004484   4.6522378  )
        64           C   tau(  64) = (   5.0000001  18.9923450   8.9099601  )
        65           C   tau(  65) = (   5.0000007  19.6042339  13.1343759  )
        66           C   tau(  66) = (   5.0000004  20.2372769   0.1554823  )
        67           C   tau(  67) = (   5.0000003  20.4298625   1.5063402  )
        68           C   tau(  68) = (   4.9999998  19.4973061   3.7819968  )
        69           H   tau(  69) = (   5.0000004   8.5607799   3.3489715  )
        70           H   tau(  70) = (   4.9999991   9.1726839   7.6318119  )
        71           H   tau(  71) = (   5.0000008   9.7916265  11.8486170  )
        72           H   tau(  72) = (   5.0000006  10.3994633  16.0793533  )
        73           H   tau(  73) = (   5.0000005   8.8895219   5.7645164  )
        74           H   tau(  74) = (   5.0000004   9.5249147  10.0077469  )
        75           H   tau(  75) = (   5.0000000  10.1322514  14.2272202  )
        76           H   tau(  76) = (   4.9999997   9.4918261   1.0739526  )
        77           H   tau(  77) = (   5.0000003  19.5998626   6.4117903  )
        78           H   tau(  78) = (   4.9999996  20.2075159  10.6428111  )
        79           H   tau(  79) = (   5.0000015  20.8266923  14.8594405  )
        80           H   tau(  80) = (   4.9999999  19.8672366   8.2641357  )
        81           H   tau(  81) = (   5.0000017  20.4746082  12.4834252  )
        82           H   tau(  82) = (   5.0000010  21.1099335  16.7266142  )
        83           H   tau(  83) = (   5.0000004  21.4386668   1.9220565  )
        84           H   tau(  84) = (   5.0000000  20.5076356   4.1968289  )

     number of k points=    26  Marzari-Vanderbilt smearing, width (Ry)=  0.0100
                       cart. coord. in units 2pi/alat
        k(    1) = (   0.0000000   0.0000000   0.0000000), wk =   0.0400000
        k(    2) = (   0.0000000   0.0000000   0.0011614), wk =   0.0800000
        k(    3) = (   0.0000000   0.0000000   0.0023229), wk =   0.0800000
        k(    4) = (   0.0000000   0.0000000   0.0034843), wk =   0.0800000
        k(    5) = (   0.0000000   0.0000000   0.0046458), wk =   0.0800000
        k(    6) = (   0.0000000   0.0000000   0.0058072), wk =   0.0800000
        k(    7) = (   0.0000000   0.0000000   0.0069686), wk =   0.0800000
        k(    8) = (   0.0000000   0.0000000   0.0081301), wk =   0.0800000
        k(    9) = (   0.0000000   0.0000000   0.0092915), wk =   0.0800000
        k(   10) = (   0.0000000   0.0000000   0.0104530), wk =   0.0800000
        k(   11) = (   0.0000000   0.0000000   0.0116144), wk =   0.0800000
        k(   12) = (   0.0000000   0.0000000   0.0127758), wk =   0.0800000
        k(   13) = (   0.0000000   0.0000000   0.0139373), wk =   0.0800000
        k(   14) = (   0.0000000   0.0000000   0.0150987), wk =   0.0800000
        k(   15) = (   0.0000000   0.0000000   0.0162602), wk =   0.0800000
        k(   16) = (   0.0000000   0.0000000   0.0174216), wk =   0.0800000
        k(   17) = (   0.0000000   0.0000000   0.0185830), wk =   0.0800000
        k(   18) = (   0.0000000   0.0000000   0.0197445), wk =   0.0800000
        k(   19) = (   0.0000000   0.0000000   0.0209059), wk =   0.0800000
        k(   20) = (   0.0000000   0.0000000   0.0220674), wk =   0.0800000
        k(   21) = (   0.0000000   0.0000000   0.0232288), wk =   0.0800000
        k(   22) = (   0.0000000   0.0000000   0.0243902), wk =   0.0800000
        k(   23) = (   0.0000000   0.0000000   0.0255517), wk =   0.0800000
        k(   24) = (   0.0000000   0.0000000   0.0267131), wk =   0.0800000
        k(   25) = (   0.0000000   0.0000000   0.0278746), wk =   0.0800000
        k(   26) = (   0.0000000   0.0000000  -0.0290360), wk =   0.0400000

     Dense  grid:  6190751 G-vectors     FFT dimensions: ( 135, 400, 240)

     Smooth grid:  1191359 G-vectors     FFT dimensions: (  80, 240, 135)

     Estimated max dynamical RAM per process >       1.28 GB

     Estimated total dynamical RAM >      20.50 GB

     The potential is recalculated from file :
     /home/zfwang/scratch/GNRDATASET/AGNR/C_2Z_3A_W9/C_2Z_3A_W9.save/charge-density.dat


     negative rho (up, down):  4.111E-04 0.000E+00
     Starting wfcs are  288 randomized atomic wfcs +  212 random wfcs

     Band Structure Calculation
     Davidson diagonalization with overlap

     ethr =  3.47E-09,  avg # of iterations = 41.7

     total cpu time spent up to now is    11630.9 secs

     End of band structure calculation

          k = 0.0000 0.0000 0.0000 (148769 PWs)   bands (ev):

   -21.7866 -21.4387 -21.4122 -21.1547 -20.8266 -20.7739 -20.3669 -20.3617
   -20.1738 -19.8889 -19.8616 -19.7096 -19.6073 -19.0678 -18.7879 -18.7741
   -18.5938 -18.5926 -18.4560 -18.3545 -17.9598 -17.9024 -17.8100 -17.4767
   -17.4495 -17.2842 -16.9896 -16.8332 -16.8120 -16.5842 -16.5731 -16.1736
   -16.1470 -15.5687 -15.5098 -15.2577 -15.2098 -14.9806 -14.8228 -14.7052
   -14.5753 -14.3402 -14.2773 -14.0988 -13.8393 -13.8099 -13.3207 -13.2981
   -13.0495 -12.8582 -12.8500 -12.8070 -12.5292 -12.5082 -12.4092 -12.3510
   -12.1786 -11.9030 -11.8768 -11.2901 -11.1965 -11.1329 -11.0485 -11.0257
   -10.8360 -10.7991 -10.6467 -10.5810 -10.3921 -10.3851 -10.0144  -9.9475
    -9.9209  -9.8568  -9.8365  -9.7028  -9.7008  -9.6133  -9.6016  -9.4398
    -9.4175  -9.3239  -9.3128  -9.2141  -9.1608  -9.1373  -9.1124  -9.0709
    -8.9011  -8.8396  -8.7474  -8.7133  -8.6967  -8.6449  -8.6365  -8.4871
    -8.4670  -8.4419  -8.3660  -8.2609  -8.1914  -8.1699  -8.0918  -8.0297
    -7.8317  -7.8022  -7.7516  -7.6833  -7.6658  -7.6140  -7.5498  -7.4501
    -7.3725  -7.3130  -7.2656  -6.9400  -6.9289  -6.8091  -6.7979  -6.7010
    -6.5032  -6.4878  -6.4796  -6.4666  -6.2011  -6.1967  -6.1154  -6.0500
    -5.8917  -5.8401  -5.5474  -5.5374  -5.4682  -5.3002  -5.2556  -4.8002
    -4.7565  -4.7474  -4.5595  -4.4309  -4.2414  -3.8233  -3.7667  -2.6144
    -2.4434  -1.3062  -1.2793  -0.8655  -0.8500  -0.6796  -0.6702  -0.4743
    -0.2874  -0.1027  -0.0473   0.1038   0.5240   0.5448   0.5560   0.6019
     0.8777   1.0133   1.0428   1.0572   1.0696   1.0993   1.2217   1.2642
     1.2971   1.3008   1.3341   1.3692   1.4293   1.5288   1.6008   1.6792
     1.7223   1.7631   1.7906   1.8660   1.8716   2.0710   2.1007   2.1257
     2.1438   2.2249   2.3501   2.3539   2.3833   2.4541   2.4923   2.4975
     2.5026   2.5163   2.5819   2.6048   2.6216   2.6238   2.6582   2.6952
     2.7950   2.8020   2.8281   2.8466   2.8922   2.9557   2.9742   3.0195
     3.0277   3.0421   3.0856   3.1388   3.1601   3.1623   3.1937   3.1988
     3.2380   3.2958   3.3116   3.3447   3.3632   3.3712   3.4359   3.4528
     3.4580   3.4836   3.5008   3.5773   3.5878   3.5943   3.6091   3.6979
     3.7346   3.7560   3.8364   3.8380   3.8408   3.8583   3.8608   4.0108
     4.0498   4.0554   4.0752   4.0877   4.0912   4.1060   4.1151   4.1591
     4.1730   4.1740   4.1955   4.2022   4.2470   4.2599   4.2659   4.3464
     4.4153   4.4201   4.4236   4.4493   4.4832   4.5214   4.5387   4.5741
     4.5818   4.5858   4.6088   4.6183   4.6286   4.6547   4.6768   4.6954
     4.7500   4.7900   4.8038   4.8737   4.8799   4.8851   4.9623   4.9703
     4.9970   4.9973   5.0982   5.1054   5.1817   5.1986   5.2247   5.2276
     5.2277   5.2277   5.2502   5.2683   5.2910   5.3107   5.3262   5.3713
     5.3756   5.3987   5.4003   5.4090   5.4532   5.4552   5.4623   5.4974
     5.5214   5.5471   5.5521   5.5696   5.5895   5.6267   5.6276   5.6278
     5.6584   5.6656   5.6788   5.7417   5.7480   5.7641   5.8023   5.8274
     5.8619   5.8701   5.8790   5.9255   5.9498   5.9573   5.9673   6.0228
     6.0554   6.0576   6.0615   6.1018   6.1260   6.1360   6.1545   6.2394
     6.2414   6.2479   6.2794   6.3149   6.3283   6.3671   6.3964   6.4260
     6.4295   6.4462   6.4815   6.4884   6.5026   6.5040   6.5120   6.5263
     6.5330   6.5866   6.5950   6.6405   6.6608   6.6912   6.6914   6.6951
     6.7012   6.7241   6.7351   6.7553   6.7664   6.8044   6.8118   6.8210
     6.8368   6.8421   6.8527   6.8915   6.9069   6.9272   6.9399   6.9535
     6.9581   6.9694   7.0100   7.0266   7.0621   7.0667   7.1141   7.1166
     7.1526   7.1534   7.1601   7.1719   7.1797   7.1875   7.1922   7.2150
     7.2175   7.2651   7.2676   7.2988   7.3019   7.3167   7.3464   7.3502
     7.3542   7.3640   7.3645   7.4107   7.4316   7.4363   7.4549   7.4762
     7.5213   7.5294   7.5439   7.5819   7.6111   7.6217   7.6483   7.6938
     7.6953   7.7098   7.7433   7.7682   7.7751   7.8029   7.8305   7.8324
     7.8351   7.8444   7.8555   7.9003   7.9055   7.9197   7.9358   7.9613
     7.9637   7.9737   7.9986   8.0288   8.0353   8.0358   8.0367   8.0900
     8.0912   8.1098   8.1424   8.1472   8.1562   8.1851   8.1897   8.2045
     8.2223   8.2512   8.2532   8.2630   8.2903   8.3366   8.3455   8.3755
     8.3819   8.4419   8.4623   8.4629   8.4925   8.5032   8.5084   8.5276
     8.5375   8.6018   8.6058   8.6129   8.6503   8.6556   8.6602   8.6645
     8.6679   8.6787   8.7191   8.7292   8.7460   8.7607   8.7730   8.7976
     8.8026   8.8038   8.8185   8.8332   8.8466   8.8601   8.9096   8.9099
     8.9103   8.9172   8.9527   8.9540   8.9668   9.0211   9.0301   9.0449
     9.0647   9.0743   9.0847   9.0959

          k = 0.0000 0.0000 0.0012 (148797 PWs)   bands (ev):

   -21.7865 -21.4445 -21.4061 -21.1545 -20.8296 -20.7707 -20.3890 -20.3405
   -20.1727 -19.8963 -19.8543 -19.7134 -19.6030 -19.0687 -18.7963 -18.7651
   -18.6320 -18.5548 -18.4563 -18.3532 -17.9754 -17.8876 -17.8097 -17.4791
   -17.4468 -17.2846 -16.9899 -16.8324 -16.8116 -16.5904 -16.5703 -16.1740
   -16.1472 -15.5749 -15.5005 -15.2579 -15.2091 -14.9836 -14.8184 -14.7058
   -14.5759 -14.3403 -14.2789 -14.0985 -13.8401 -13.8065 -13.3603 -13.2597
   -13.0499 -12.8772 -12.8594 -12.7803 -12.5400 -12.4991 -12.4078 -12.3491
   -12.1767 -11.9219 -11.8573 -11.2921 -11.2008 -11.1322 -11.0515 -11.0211
   -10.8350 -10.7978 -10.6460 -10.5805 -10.4235 -10.3531 -10.0384  -9.9352
    -9.9149  -9.8567  -9.8349  -9.7092  -9.7004  -9.6325  -9.5737  -9.4484
    -9.4087  -9.3306  -9.3064  -9.2193  -9.1594  -9.1371  -9.1169  -9.0615
    -8.9024  -8.8387  -8.7517  -8.7145  -8.6921  -8.6457  -8.6365  -8.4898
    -8.4708  -8.4418  -8.3588  -8.2602  -8.2094  -8.1544  -8.0921  -8.0268
    -7.8373  -7.8031  -7.7455  -7.6937  -7.6553  -7.6227  -7.5416  -7.4578
    -7.3643  -7.3196  -7.2594  -6.9442  -6.9293  -6.8097  -6.7967  -6.6979
    -6.5162  -6.4964  -6.4742  -6.4500  -6.2406  -6.1596  -6.1148  -6.0478
    -5.8921  -5.8403  -5.5581  -5.5444  -5.4513  -5.3044  -5.2503  -4.8081
    -4.7598  -4.7373  -4.5601  -4.4323  -4.2401  -3.8266  -3.7640  -2.6193
    -2.4385  -1.3111  -1.2737  -0.8693  -0.8452  -0.6840  -0.6667  -0.4747
    -0.2863  -0.1049  -0.0476   0.1075   0.4877   0.5562   0.5809   0.6021
     0.8779   1.0055   1.0422   1.0600   1.0666   1.1055   1.2220   1.2318
     1.2792   1.3291   1.3537   1.3717   1.4325   1.5244   1.6007   1.6736
     1.7256   1.7660   1.7953   1.8503   1.8874   2.0712   2.0994   2.1259
     2.1430   2.2258   2.3459   2.3520   2.3773   2.4523   2.4956   2.5029
     2.5062   2.5171   2.5786   2.6040   2.6197   2.6289   2.6583   2.6997
     2.7815   2.8023   2.8168   2.8607   2.9042   2.9552   2.9679   3.0148
     3.0237   3.0550   3.0821   3.1290   3.1496   3.1641   3.1848   3.2214
     3.2458   3.2965   3.3119   3.3255   3.3554   3.3925   3.4388   3.4424
     3.4684   3.4773   3.5138   3.5667   3.5893   3.5905   3.6152   3.7027
     3.7346   3.7599   3.8214   3.8304   3.8386   3.8650   3.8769   4.0112
     4.0370   4.0377   4.0765   4.0913   4.0977   4.1049   4.1220   4.1543
     4.1639   4.1658   4.2001   4.2184   4.2488   4.2664   4.2677   4.3417
     4.3965   4.4245   4.4344   4.4504   4.4675   4.5126   4.5228   4.5902
     4.5940   4.5975   4.6146   4.6164   4.6287   4.6522   4.6695   4.7131
     4.7496   4.7940   4.7943   4.8631   4.8853   4.9027   4.9283   4.9860
     5.0035   5.0054   5.0920   5.1129   5.1755   5.1850   5.2078   5.2080
     5.2263   5.2475   5.2598   5.2821   5.2931   5.3105   5.3192   5.3662
     5.3721   5.3948   5.3976   5.4326   5.4490   5.4561   5.4707   5.4958
     5.5173   5.5215   5.5646   5.5748   5.5921   5.6107   5.6251   5.6360
     5.6610   5.6699   5.6789   5.7177   5.7577   5.7933   5.7948   5.8229
     5.8623   5.8789   5.8871   5.9213   5.9499   5.9509   5.9786   6.0149
     6.0400   6.0573   6.0755   6.1050   6.1222   6.1454   6.1592   6.2287
     6.2453   6.2468   6.2832   6.3123   6.3184   6.3664   6.3981   6.4244
     6.4309   6.4394   6.4782   6.4851   6.4998   6.5045   6.5226   6.5255
     6.5352   6.5899   6.5965   6.6371   6.6609   6.6754   6.6943   6.6967
     6.6976   6.7214   6.7398   6.7544   6.7828   6.7900   6.8026   6.8163
     6.8462   6.8517   6.8681   6.8896   6.8904   6.9162   6.9325   6.9604
     6.9704   6.9888   7.0043   7.0269   7.0428   7.0731   7.0995   7.1148
     7.1355   7.1496   7.1639   7.1757   7.1766   7.2005   7.2173   7.2191
     7.2234   7.2610   7.2636   7.2968   7.3056   7.3176   7.3303   7.3415
     7.3548   7.3648   7.3757   7.4066   7.4333   7.4550   7.4690   7.4712
     7.5194   7.5315   7.5510   7.5832   7.6060   7.6239   7.6473   7.6839
     7.6968   7.7198   7.7328   7.7536   7.7827   7.7951   7.8054   7.8230
     7.8331   7.8586   7.8760   7.8939   7.9127   7.9219   7.9399   7.9460
     7.9714   7.9830   7.9991   8.0032   8.0158   8.0298   8.0793   8.0887
     8.0956   8.1091   8.1436   8.1444   8.1630   8.1907   8.1908   8.2052
     8.2295   8.2499   8.2635   8.2670   8.2876   8.3371   8.3410   8.3764
     8.3815   8.4308   8.4587   8.4614   8.4947   8.5024   8.5073   8.5157
     8.5475   8.5978   8.6068   8.6094   8.6327   8.6459   8.6525   8.6762
     8.6802   8.6935   8.6984   8.7361   8.7509   8.7688   8.7845   8.7877
     8.8012   8.8041   8.8166   8.8426   8.8529   8.8597   8.8972   8.9037
     8.9160   8.9287   8.9306   8.9549   8.9787   9.0193   9.0305   9.0487
     9.0637   9.0702   9.0835   9.0933

          k = 0.0000 0.0000 0.0023 (148799 PWs)   bands (ev):

   -21.7861 -21.4556 -21.3943 -21.1541 -20.8370 -20.7625 -20.4139 -20.3183
   -20.1694 -19.9100 -19.8407 -19.7231 -19.5915 -19.0713 -18.8084 -18.7509
   -18.6707 -18.5182 -18.4561 -18.3495 -18.0044 -17.8632 -17.8069 -17.4845
   -17.4405 -17.2857 -16.9909 -16.8303 -16.8106 -16.6036 -16.5669 -16.1751
   -16.1479 -15.5865 -15.4795 -15.2586 -15.2071 -14.9915 -14.8061 -14.7076
   -14.5777 -14.3407 -14.2830 -14.0976 -13.8413 -13.7979 -13.4101 -13.2138
   -13.0511 -12.9181 -12.8635 -12.7408 -12.5568 -12.4880 -12.4025 -12.3437
   -12.1711 -11.9490 -11.8283 -11.2980 -11.2124 -11.1303 -11.0597 -11.0092
   -10.8325 -10.7937 -10.6441 -10.5790 -10.4571 -10.3179 -10.0815  -9.9331
    -9.8964  -9.8562  -9.8247  -9.7278  -9.6997  -9.6424  -9.5376  -9.4629
    -9.3934  -9.3403  -9.2984  -9.2305  -9.1631  -9.1365  -9.1170  -9.0424
    -8.9057  -8.8364  -8.7618  -8.7177  -8.6810  -8.6482  -8.6362  -8.4970
    -8.4815  -8.4389  -8.3413  -8.2581  -8.2366  -8.1353  -8.0931  -8.0179
    -7.8512  -7.8048  -7.7310  -7.7099  -7.6414  -7.6392  -7.5242  -7.4752
    -7.3452  -7.3338  -7.2461  -6.9563  -6.9300  -6.8116  -6.7940  -6.6889
    -6.5340  -6.5185  -6.4546  -6.4284  -6.2827  -6.1353  -6.1018  -6.0416
    -5.8933  -5.8412  -5.5895  -5.5476  -5.4193  -5.3134  -5.2379  -4.8261
    -4.7618  -4.7205  -4.5621  -4.4363  -4.2365  -3.8353  -3.7570  -2.6325
    -2.4251  -1.3207  -1.2621  -0.8757  -0.8354  -0.6916  -0.6616  -0.4756
    -0.2831  -0.1118  -0.0476   0.1176   0.4429   0.5567   0.6026   0.6255
     0.8784   0.9907   1.0314   1.0582   1.0737   1.1191   1.1755   1.2230
     1.2857   1.3176   1.3760   1.4102   1.4414   1.5122   1.6009   1.6609
     1.7313   1.7747   1.8084   1.8324   1.9059   2.0718   2.0954   2.1267
     2.1413   2.2274   2.3308   2.3489   2.3659   2.4473   2.5035   2.5037
     2.5180   2.5286   2.5730   2.5978   2.6195   2.6403   2.6588   2.7109
     2.7531   2.8013   2.8030   2.8808   2.9319   2.9496   2.9585   2.9970
     3.0271   3.0724   3.0781   3.1057   3.1271   3.1668   3.1949   3.2328
     3.2742   3.2918   3.2979   3.3130   3.3551   3.4069   3.4238   3.4577
     3.4643   3.4931   3.5332   3.5431   3.5871   3.5941   3.6190   3.7158
     3.7348   3.7708   3.8024   3.8119   3.8322   3.8829   3.8972   4.0102
     4.0134   4.0138   4.0587   4.0945   4.1025   4.1095   4.1165   4.1401
     4.1628   4.1768   4.2030   4.2336   4.2519   4.2744   4.2890   4.3299
     4.3727   4.4244   4.4299   4.4506   4.4539   4.4876   4.5123   4.5918
     4.6083   4.6170   4.6268   4.6274   4.6368   4.6539   4.6791   4.7357
     4.7473   4.7770   4.8061   4.8592   4.8857   4.8894   4.9376   4.9716
     5.0024   5.0446   5.0871   5.1212   5.1388   5.1709   5.1882   5.2066
     5.2288   5.2411   5.2691   5.2780   5.2874   5.3276   5.3347   5.3412
     5.3756   5.3784   5.4233   5.4411   5.4540   5.4631   5.4809   5.4820
     5.5024   5.5151   5.5564   5.5724   5.5922   5.6107   5.6308   5.6345
     5.6517   5.6755   5.6800   5.7124   5.7584   5.8036   5.8170   5.8323
     5.8545   5.8878   5.9069   5.9196   5.9504   5.9513   5.9876   6.0010
     6.0269   6.0563   6.0844   6.1058   6.1246   6.1593   6.1766   6.2163
     6.2373   6.2498   6.2839   6.2943   6.3117   6.3616   6.4031   6.4179
     6.4295   6.4318   6.4672   6.4780   6.4968   6.5025   6.5212   6.5377
     6.5465   6.5986   6.6016   6.6223   6.6580   6.6631   6.6861   6.6913
     6.7040   6.7224   6.7477   6.7524   6.7627   6.7873   6.8156   6.8158
     6.8359   6.8611   6.8733   6.8894   6.9113   6.9146   6.9205   6.9610
     6.9717   6.9923   7.0146   7.0306   7.0350   7.0569   7.0747   7.0926
     7.1339   7.1553   7.1701   7.1730   7.1850   7.2115   7.2191   7.2271
     7.2568   7.2589   7.2667   7.2943   7.3021   7.3119   7.3201   7.3367
     7.3419   7.3691   7.3889   7.4366   7.4403   7.4534   7.4611   7.5141
     7.5146   7.5434   7.5631   7.5874   7.5980   7.6230   7.6448   7.6698
     7.6920   7.7095   7.7327   7.7331   7.7646   7.7878   7.8035   7.8077
     7.8231   7.8674   7.8760   7.8900   7.9210   7.9296   7.9392   7.9529
     7.9578   7.9780   7.9837   8.0091   8.0297   8.0314   8.0788   8.0865
     8.1079   8.1083   8.1524   8.1543   8.1802   8.1939   8.1964   8.2234
     8.2404   8.2510   8.2735   8.2804   8.2889   8.3343   8.3384   8.3599
     8.3939   8.4066   8.4451   8.4563   8.4799   8.5054   8.5091   8.5188
     8.5500   8.5914   8.5930   8.6080   8.6162   8.6355   8.6424   8.6617
     8.6910   8.6970   8.7260   8.7453   8.7462   8.7693   8.7800   8.7841
     8.8083   8.8239   8.8269   8.8387   8.8528   8.8800   8.8813   8.8994
     8.9014   8.9260   8.9468   8.9471   8.9838   9.0128   9.0305   9.0365
     9.0463   9.0634   9.0662   9.0720

          k = 0.0000 0.0000 0.0035 (148823 PWs)   bands (ev):

   -21.7854 -21.4679 -21.3808 -21.1533 -20.8465 -20.7516 -20.4392 -20.2980
   -20.1632 -19.9252 -19.8257 -19.7361 -19.5757 -19.0757 -18.8203 -18.7359
   -18.7089 -18.4897 -18.4492 -18.3435 -18.0356 -17.8477 -17.7938 -17.4912
   -17.4325 -17.2873 -16.9925 -16.8275 -16.8086 -16.6215 -16.5648 -16.1773
   -16.1496 -15.5968 -15.4537 -15.2599 -15.2036 -15.0018 -14.7883 -14.7106
   -14.5805 -14.3426 -14.2885 -14.0964 -13.8408 -13.7862 -13.4609 -13.1709
   -13.0527 -12.9592 -12.8700 -12.7022 -12.5720 -12.4825 -12.3914 -12.3350
   -12.1624 -11.9760 -11.7979 -11.3072 -11.2288 -11.1279 -11.0718 -10.9931
   -10.8291 -10.7868 -10.6415 -10.5766 -10.4889 -10.2837 -10.1272  -9.9382
    -9.8925  -9.8553  -9.8028  -9.7488  -9.6984  -9.6409  -9.5008  -9.4781
    -9.3769  -9.3495  -9.2962  -9.2390  -9.1751  -9.1355  -9.1067  -9.0214
    -8.9098  -8.8336  -8.7742  -8.7230  -8.6671  -8.6529  -8.6353  -8.5078
    -8.4940  -8.4332  -8.3194  -8.2652  -8.2544  -8.1205  -8.0947  -8.0026
    -7.8689  -7.8070  -7.7267  -7.7140  -7.6623  -7.6224  -7.5048  -7.4959
    -7.3499  -7.3217  -7.2310  -6.9742  -6.9308  -6.8148  -6.7914  -6.6745
    -6.5513  -6.5409  -6.4342  -6.4068  -6.3249  -6.1352  -6.0682  -6.0308
    -5.8954  -5.8426  -5.6253  -5.5515  -5.3850  -5.3226  -5.2222  -4.8480
    -4.7626  -4.7032  -4.5653  -4.4426  -4.2309  -3.8473  -3.7477  -2.6514
    -2.4059  -1.3312  -1.2483  -0.8824  -0.8234  -0.6999  -0.6572  -0.4768
    -0.2784  -0.1229  -0.0458   0.1325   0.3980   0.5577   0.6036   0.6702
     0.8793   0.9743   1.0167   1.0448   1.0911   1.1184   1.1355   1.2246
     1.2975   1.3034   1.3799   1.4549   1.4611   1.4985   1.6019   1.6456
     1.7357   1.7884   1.8146   1.8279   1.9246   2.0729   2.0882   2.1280
     2.1400   2.2274   2.3127   2.3318   2.3656   2.4396   2.5016   2.5047
     2.5372   2.5451   2.5743   2.5856   2.6243   2.6533   2.6602   2.7211
     2.7256   2.7862   2.8043   2.9013   2.9333   2.9565   2.9643   2.9805
     3.0188   3.0717   3.0845   3.0877   3.1140   3.1668   3.2058   3.2421
     3.2562   3.2954   3.3108   3.3174   3.3558   3.4099   3.4128   3.4504
     3.4956   3.5114   3.5165   3.5523   3.5826   3.6032   3.6181   3.7330
     3.7348   3.7831   3.7858   3.7948   3.8218   3.9018   3.9175   3.9850
     3.9884   4.0136   4.0409   4.0761   4.0869   4.0938   4.1303   4.1355
     4.1749   4.1968   4.1982   4.2349   4.2608   4.2920   4.3153   4.3185
     4.3501   4.3945   4.4140   4.4435   4.4682   4.4714   4.5095   4.5809
     4.5877   4.6291   4.6448   4.6567   4.6594   4.6760   4.6956   4.7419
     4.7550   4.7699   4.8256   4.8512   4.8612   4.8867   4.9543   4.9745
     4.9934   5.0788   5.0842   5.1041   5.1273   5.1608   5.1689   5.2024
     5.2209   5.2317   5.2555   5.2733   5.2899   5.3134   5.3379   5.3648
     5.3654   5.3956   5.4193   5.4407   5.4530   5.4655   5.4809   5.4842
     5.4978   5.5193   5.5515   5.5627   5.5886   5.6124   5.6292   5.6338
     5.6435   5.6631   5.6986   5.7405   5.7468   5.8054   5.8220   5.8631
     5.8700   5.8812   5.9107   5.9421   5.9515   5.9565   5.9763   6.0063
     6.0221   6.0541   6.0895   6.1039   6.1267   6.1691   6.1994   6.2178
     6.2232   6.2494   6.2651   6.2779   6.3122   6.3595   6.3969   6.4077
     6.4244   6.4362   6.4510   6.4701   6.4848   6.5064   6.5213   6.5370
     6.5647   6.5776   6.6198   6.6204   6.6527   6.6699   6.6783   6.6791
     6.7111   6.7172   6.7231   6.7575   6.7634   6.7806   6.8051   6.8189
     6.8311   6.8691   6.8935   6.8963   6.9004   6.9276   6.9481   6.9488
     6.9714   6.9816   6.9965   7.0163   7.0368   7.0421   7.0839   7.1025
     7.1146   7.1492   7.1634   7.1795   7.1999   7.2111   7.2255   7.2289
     7.2546   7.2668   7.2854   7.2859   7.2959   7.3190   7.3191   7.3398
     7.3621   7.3732   7.3988   7.4426   7.4498   7.4616   7.4737   7.5151
     7.5578   7.5588   7.5739   7.5911   7.5951   7.6143   7.6360   7.6585
     7.6613   7.7015   7.7138   7.7374   7.7476   7.7839   7.7839   7.8109
     7.8182   7.8591   7.8642   7.8771   7.9069   7.9140   7.9447   7.9525
     7.9655   7.9817   8.0047   8.0182   8.0315   8.0482   8.0596   8.0950
     8.1124   8.1178   8.1544   8.1628   8.1989   8.2153   8.2218   8.2272
     8.2573   8.2617   8.2655   8.2861   8.3145   8.3305   8.3378   8.3407
     8.3774   8.4086   8.4322   8.4474   8.4733   8.5004   8.5051   8.5239
     8.5441   8.5828   8.5828   8.5918   8.6049   8.6239   8.6442   8.6482
     8.6960   8.7023   8.7346   8.7367   8.7576   8.7624   8.7807   8.7935
     8.8078   8.8265   8.8305   8.8416   8.8580   8.8686   8.8950   8.8961
     8.9107   8.9215   8.9546   8.9629   8.9652   8.9873   9.0097   9.0225
     9.0284   9.0370   9.0559   9.0755

          k = 0.0000 0.0000 0.0046 (148801 PWs)   bands (ev):

   -21.7844 -21.4803 -21.3667 -21.1523 -20.8570 -20.7393 -20.4645 -20.2806
   -20.1536 -19.9407 -19.8103 -19.7507 -19.5572 -19.0817 -18.8320 -18.7470
   -18.7197 -18.4808 -18.4243 -18.3353 -18.0669 -17.8465 -17.7672 -17.4985
   -17.4240 -17.2888 -16.9944 -16.8248 -16.8054 -16.6435 -16.5635 -16.1812
   -16.1519 -15.6035 -15.4258 -15.2617 -15.1988 -15.0123 -14.7668 -14.7148
   -14.5838 -14.3477 -14.2934 -14.0953 -13.8378 -13.7724 -13.5122 -13.1355
   -13.0529 -12.9973 -12.8788 -12.6696 -12.5812 -12.4827 -12.3745 -12.3231
   -12.1513 -12.0018 -11.7670 -11.3190 -11.2478 -11.1263 -11.0863 -10.9753
   -10.8245 -10.7777 -10.6394 -10.5735 -10.5175 -10.2543 -10.1687  -9.9473
    -9.9013  -9.8542  -9.8047  -9.7393  -9.6951  -9.6337  -9.4932  -9.4651
    -9.3598  -9.3570  -9.3050  -9.2385  -9.1885  -9.1341  -9.0920  -9.0013
    -8.9131  -8.8316  -8.7873  -8.7300  -8.6596  -8.6518  -8.6341  -8.5210
    -8.5053  -8.4259  -8.2966  -8.2945  -8.2488  -8.1103  -8.0965  -7.9815
    -7.8883  -7.8100  -7.7437  -7.7045  -7.6749  -7.6055  -7.5173  -7.4871
    -7.3649  -7.2963  -7.2159  -6.9957  -6.9317  -6.8192  -6.7901  -6.6558
    -6.5676  -6.5635  -6.4138  -6.3853  -6.3670  -6.1405  -6.0391  -6.0092
    -5.8982  -5.8446  -5.6619  -5.5569  -5.3565  -5.3251  -5.2046  -4.8716
    -4.7631  -4.6872  -4.5691  -4.4507  -4.2236  -3.8616  -3.7371  -2.6739
    -2.3831  -1.3419  -1.2332  -0.8890  -0.8095  -0.7081  -0.6541  -0.4779
    -0.2730  -0.1373  -0.0416   0.1504   0.3538   0.5590   0.6049   0.7145
     0.8806   0.9577   1.0012   1.0259   1.0634   1.1095   1.1528   1.2270
     1.2883   1.3125   1.3831   1.4624   1.4712   1.5262   1.6067   1.6293
     1.7389   1.7970   1.8056   1.8516   1.9432   2.0746   2.0781   2.1299
     2.1400   2.2219   2.2962   2.3093   2.3720   2.4299   2.4941   2.5057
     2.5489   2.5627   2.5711   2.5914   2.6314   2.6579   2.6690   2.6910
     2.7414   2.7732   2.8065   2.9147   2.9216   2.9539   2.9601   3.0032
     3.0033   3.0380   3.0824   3.0991   3.1213   3.1629   3.2103   3.2237
     3.2561   3.2861   3.3254   3.3477   3.3572   3.3974   3.4157   3.4508
     3.4859   3.5292   3.5333   3.5696   3.5758   3.6163   3.6171   3.7344
     3.7464   3.7668   3.7748   3.8079   3.8099   3.9203   3.9357   3.9611
     3.9640   4.0118   4.0249   4.0492   4.0606   4.0842   4.1252   4.1476
     4.1775   4.1916   4.2181   4.2329   4.2764   4.2927   4.3307   4.3312
     4.3408   4.3628   4.3898   4.4276   4.4705   4.4858   4.5126   4.5616
     4.5711   4.6472   4.6559   4.6588   4.6925   4.6999   4.7207   4.7445
     4.7716   4.7767   4.8187   4.8489   4.8636   4.8889   4.9331   4.9802
     5.0135   5.0464   5.1018   5.1239   5.1268   5.1496   5.1502   5.1928
     5.1997   5.2316   5.2352   5.2563   5.3045   5.3086   5.3172   5.3728
     5.3791   5.3912   5.4180   5.4292   5.4450   5.4657   5.4685   5.4945
     5.5096   5.5370   5.5485   5.5653   5.5869   5.5980   5.6106   5.6292
     5.6489   5.6860   5.7165   5.7335   5.7822   5.7903   5.8200   5.8737
     5.8867   5.9068   5.9131   5.9365   5.9537   5.9638   5.9894   6.0068
     6.0373   6.0497   6.0919   6.1058   6.1209   6.1747   6.2020   6.2037
     6.2375   6.2430   6.2504   6.2769   6.3048   6.3635   6.3832   6.4002
     6.4014   6.4382   6.4527   6.4624   6.4755   6.5051   6.5201   6.5224
     6.5573   6.5773   6.6264   6.6350   6.6495   6.6608   6.6760   6.6830
     6.6924   6.7045   6.7230   6.7416   6.7669   6.7793   6.8134   6.8236
     6.8316   6.8577   6.8840   6.9039   6.9229   6.9276   6.9397   6.9684
     6.9732   6.9737   6.9845   6.9900   7.0374   7.0547   7.0805   7.1097
     7.1171   7.1439   7.1545   7.1811   7.1847   7.2127   7.2290   7.2441
     7.2490   7.2633   7.2762   7.3047   7.3079   7.3270   7.3367   7.3534
     7.3734   7.3924   7.4061   7.4339   7.4485   7.4847   7.5093   7.5225
     7.5678   7.5775   7.5819   7.5946   7.5981   7.6041   7.6118   7.6489
     7.6586   7.6820   7.7111   7.7176   7.7378   7.7795   7.7836   7.7961
     7.8239   7.8419   7.8427   7.8600   7.8739   7.9264   7.9461   7.9598
     7.9686   7.9768   8.0047   8.0331   8.0426   8.0592   8.0673   8.1112
     8.1227   8.1260   8.1539   8.1691   8.2143   8.2253   8.2302   8.2533
     8.2565   8.2619   8.2753   8.2926   8.3121   8.3303   8.3347   8.3613
     8.3729   8.4237   8.4248   8.4362   8.4656   8.4834   8.5076   8.5118
     8.5531   8.5577   8.5678   8.5720   8.6092   8.6145   8.6365   8.6586
     8.6848   8.6972   8.7299   8.7344   8.7414   8.7741   8.7829   8.7914
     8.7982   8.8238   8.8262   8.8384   8.8600   8.8746   8.8931   8.8963
     8.9114   8.9363   8.9389   8.9688   8.9779   8.9822   8.9977   8.9989
     9.0021   9.0263   9.0525   9.0847

          k = 0.0000 0.0000 0.0058 (148853 PWs)   bands (ev):

   -21.7832 -21.4927 -21.3521 -21.1509 -20.8678 -20.7262 -20.4899 -20.2667
   -20.1402 -19.9565 -19.7948 -19.7657 -19.5373 -19.0892 -18.8444 -18.7822
   -18.7044 -18.4822 -18.3919 -18.3239 -18.0972 -17.8526 -17.7344 -17.5063
   -17.4157 -17.2897 -16.9967 -16.8228 -16.8009 -16.6691 -16.5625 -16.1886
   -16.1541 -15.6060 -15.3971 -15.2641 -15.1924 -15.0213 -14.7437 -14.7198
   -14.5875 -14.3572 -14.2965 -14.0944 -13.8320 -13.7571 -13.5637 -13.1218
   -13.0445 -13.0258 -12.8896 -12.6516 -12.5763 -12.4856 -12.3541 -12.3080
   -12.1394 -12.0254 -11.7359 -11.3329 -11.2680 -11.1278 -11.1009 -10.9581
   -10.8180 -10.7677 -10.6396 -10.5699 -10.5403 -10.2519 -10.1828  -9.9619
    -9.9149  -9.8527  -9.8290  -9.7140  -9.6809  -9.6238  -9.5082  -9.4333
    -9.3616  -9.3425  -9.3215  -9.2320  -9.1984  -9.1322  -9.0763  -8.9851
    -8.9128  -8.8313  -8.8007  -8.7386  -8.6674  -8.6357  -8.6328  -8.5343
    -8.5155  -8.4177  -8.3241  -8.2762  -8.2401  -8.1037  -8.0983  -7.9559
    -7.9082  -7.8144  -7.7608  -7.7190  -7.6626  -7.5889  -7.5382  -7.4745
    -7.3754  -7.2699  -7.2013  -7.0193  -6.9329  -6.8250  -6.7901  -6.6341
    -6.5860  -6.5826  -6.4102  -6.3922  -6.3641  -6.1467  -6.0228  -5.9730
    -5.9019  -5.8471  -5.6984  -5.5637  -5.3527  -5.3024  -5.1855  -4.8961
    -4.7635  -4.6739  -4.5731  -4.4600  -4.2151  -3.8776  -3.7258  -2.6986
    -2.3579  -1.3526  -1.2169  -0.8957  -0.7941  -0.7157  -0.6521  -0.4784
    -0.2678  -0.1536  -0.0347   0.1691   0.3113   0.5607   0.6066   0.7581
     0.8821   0.9412   0.9854   0.9912   1.0222   1.1284   1.1703   1.2303
     1.2730   1.3293   1.3861   1.4381   1.4895   1.5621   1.6128   1.6260
     1.7416   1.7799   1.8244   1.8781   1.9617   2.0655   2.0768   2.1322
     2.1415   2.2080   2.2770   2.2949   2.3813   2.4190   2.4841   2.5064
     2.5488   2.5563   2.5879   2.6113   2.6392   2.6520   2.6687   2.6851
     2.7567   2.7640   2.8101   2.8956   2.9371   2.9469   2.9472   2.9897
     3.0031   3.0401   3.0699   3.1168   3.1384   3.1557   3.1832   3.2219
     3.2718   3.2729   3.3315   3.3584   3.3843   3.3893   3.4166   3.4580
     3.4602   3.5457   3.5599   3.5758   3.5858   3.6157   3.6352   3.7325
     3.7362   3.7545   3.7759   3.7920   3.8335   3.9288   3.9398   3.9408
     3.9622   4.0015   4.0080   4.0201   4.0460   4.0734   4.1117   4.1499
     4.1602   4.2039   4.2218   4.2352   4.2914   4.2972   4.3141   4.3337
     4.3415   4.3709   4.3771   4.4086   4.4736   4.5055   4.5143   4.5405
     4.5667   4.6362   4.6629   4.6750   4.7189   4.7277   4.7511   4.7525
     4.7691   4.7868   4.8140   4.8688   4.8720   4.8904   4.9105   4.9684
     5.0142   5.0534   5.1008   5.1255   5.1303   5.1352   5.1651   5.1781
     5.1823   5.2080   5.2308   5.2485   5.2863   5.3000   5.3340   5.3548
     5.3640   5.3930   5.4077   5.4361   5.4438   5.4475   5.4615   5.5133
     5.5226   5.5379   5.5605   5.5651   5.5691   5.5924   5.6248   5.6312
     5.6648   5.7000   5.7141   5.7572   5.7741   5.8175   5.8180   5.8686
     5.8957   5.9117   5.9215   5.9375   5.9620   5.9733   6.0093   6.0187
     6.0417   6.0620   6.0897   6.1094   6.1157   6.1768   6.1792   6.2008
     6.2132   6.2381   6.2698   6.2971   6.2973   6.3545   6.3681   6.3805
     6.4030   6.4228   6.4517   6.4685   6.4694   6.4947   6.4986   6.5197
     6.5572   6.5813   6.6286   6.6308   6.6354   6.6461   6.6572   6.6870
     6.6885   6.6981   6.7198   6.7550   6.7690   6.7849   6.8207   6.8277
     6.8309   6.8472   6.8668   6.8956   6.9108   6.9140   6.9554   6.9562
     6.9675   6.9742   7.0003   7.0167   7.0472   7.0593   7.0766   7.0963
     7.1049   7.1458   7.1559   7.1771   7.1842   7.2161   7.2308   7.2378
     7.2482   7.2662   7.2873   7.3259   7.3304   7.3388   7.3393   7.3693
     7.3735   7.4039   7.4254   7.4258   7.4728   7.5103   7.5290   7.5387
     7.5412   7.5572   7.5822   7.5941   7.6005   7.6103   7.6260   7.6445
     7.6646   7.6659   7.7025   7.7108   7.7300   7.7613   7.7805   7.7890
     7.8209   7.8256   7.8267   7.8461   7.8637   7.9359   7.9440   7.9481
     7.9719   7.9829   7.9909   8.0372   8.0522   8.0649   8.1054   8.1256
     8.1326   8.1431   8.1617   8.1667   8.2037   8.2225   8.2333   8.2446
     8.2566   8.2666   8.2801   8.3001   8.3224   8.3613   8.3627   8.3812
     8.3849   8.4158   8.4219   8.4425   8.4479   8.4788   8.4972   8.5133
     8.5300   8.5421   8.5594   8.5634   8.6061   8.6147   8.6301   8.6595
     8.6683   8.6873   8.7175   8.7178   8.7480   8.7506   8.7675   8.7850
     8.8081   8.8136   8.8250   8.8325   8.8523   8.8722   8.8819   8.8933
     8.9106   8.9359   8.9475   8.9623   8.9690   8.9768   8.9940   9.0022
     9.0281   9.0310   9.0542   9.0776

          k = 0.0000 0.0000 0.0070 (148877 PWs)   bands (ev):

   -21.7817 -21.5049 -21.3373 -21.1492 -20.8786 -20.7126 -20.5152 -20.2565
   -20.1229 -19.9722 -19.7817 -19.7782 -19.5164 -19.0979 -18.8607 -18.8123
   -18.6893 -18.4856 -18.3632 -18.3065 -18.1259 -17.8619 -17.6998 -17.5143
   -17.4081 -17.2891 -16.9991 -16.8221 -16.7956 -16.6973 -16.5614 -16.2009
   -16.1548 -15.6046 -15.3685 -15.2666 -15.1843 -15.0275 -14.7307 -14.7144
   -14.5912 -14.3709 -14.2979 -14.0936 -13.8235 -13.7409 -13.6151 -13.1395
   -13.0492 -13.0139 -12.9019 -12.6503 -12.5580 -12.4859 -12.3322 -12.2897
   -12.1294 -12.0444 -11.7047 -11.3482 -11.2884 -11.1371 -11.1108 -10.9431
   -10.8089 -10.7587 -10.6443 -10.5674 -10.5530 -10.2864 -10.1588  -9.9842
    -9.9283  -9.8541  -9.8509  -9.7071  -9.6454  -9.6123  -9.5229  -9.4116
    -9.3628  -9.3353  -9.3249  -9.2293  -9.1978  -9.1299  -9.0611  -8.9753
    -8.9063  -8.8335  -8.8140  -8.7488  -8.6750  -8.6316  -8.6191  -8.5466
    -8.5249  -8.4089  -8.3537  -8.2617  -8.2262  -8.0996  -8.0995  -7.9279
    -7.9274  -7.8208  -7.7780  -7.7398  -7.6424  -7.5757  -7.5551  -7.4717
    -7.3767  -7.2430  -7.1877  -7.0437  -6.9344  -6.8322  -6.7914  -6.6129
    -6.6060  -6.5964  -6.4516  -6.3726  -6.3431  -6.1529  -6.0107  -5.9321
    -5.9063  -5.8502  -5.7344  -5.5718  -5.3594  -5.2692  -5.1648  -4.9209
    -4.7640  -4.6649  -4.5758  -4.4701  -4.2058  -3.8952  -3.7137  -2.7248
    -2.3312  -1.3634  -1.1996  -0.9028  -0.7775  -0.7218  -0.6514  -0.4782
    -0.2641  -0.1703  -0.0252   0.1843   0.2743   0.5628   0.6086   0.8006
     0.8838   0.9250   0.9387   0.9699   0.9977   1.1474   1.1872   1.2346
     1.2585   1.3463   1.3890   1.4119   1.5091   1.5746   1.5963   1.6697
     1.7442   1.7630   1.8445   1.9061   1.9799   2.0511   2.0799   2.1352
     2.1441   2.1872   2.2522   2.2919   2.3926   2.4072   2.4727   2.5061
     2.5422   2.5487   2.5955   2.6213   2.6464   2.6550   2.6685   2.6964
     2.7617   2.7693   2.8162   2.8771   2.9239   2.9334   2.9563   2.9750
     2.9832   3.0522   3.0823   3.1351   3.1422   3.1463   3.1645   3.2266
     3.2551   3.2917   3.3297   3.3600   3.3899   3.4081   3.4137   3.4508
     3.4701   3.5518   3.5606   3.6027   3.6061   3.6195   3.6551   3.7166
     3.7262   3.7381   3.7779   3.7878   3.8561   3.9128   3.9189   3.9542
     3.9772   3.9832   3.9912   3.9913   4.0463   4.0606   4.0958   4.1158
     4.1676   4.2072   4.2118   4.2444   4.2783   4.3004   4.3154   4.3188
     4.3516   4.3712   4.4021   4.4034   4.4717   4.5113   4.5251   4.5257
     4.5736   4.6135   4.6745   4.6942   4.7357   4.7371   4.7533   4.7675
     4.7801   4.8030   4.8337   4.8657   4.8808   4.8920   4.9096   4.9668
     4.9903   5.0849   5.0928   5.1116   5.1182   5.1322   5.1570   5.1650
     5.1906   5.2058   5.2227   5.2472   5.2590   5.2883   5.3241   5.3451
     5.3561   5.3903   5.3926   5.4353   5.4388   5.4443   5.4652   5.5059
     5.5191   5.5335   5.5545   5.5570   5.5965   5.6195   5.6390   5.6497
     5.6775   5.6915   5.7352   5.7593   5.7755   5.8267   5.8515   5.8608
     5.8881   5.8988   5.9287   5.9495   5.9742   5.9862   6.0206   6.0303
     6.0519   6.0739   6.0913   6.1052   6.1309   6.1544   6.1829   6.1881
     6.1891   6.2403   6.2717   6.2947   6.3243   6.3350   6.3449   6.3802
     6.4026   6.4142   6.4354   6.4608   6.4609   6.4867   6.5031   6.5208
     6.5579   6.5777   6.5901   6.6216   6.6267   6.6412   6.6446   6.6672
     6.6718   6.7133   6.7509   6.7565   6.7762   6.7924   6.8134   6.8227
     6.8407   6.8457   6.8516   6.8696   6.8839   6.9074   6.9544   6.9593
     6.9725   6.9928   7.0084   7.0293   7.0559   7.0684   7.0724   7.0932
     7.0998   7.1471   7.1499   7.1753   7.1850   7.2154   7.2329   7.2370
     7.2692   7.2736   7.2978   7.3324   7.3372   7.3453   7.3555   7.3715
     7.3979   7.4082   7.4204   7.4588   7.4800   7.5095   7.5261   7.5351
     7.5463   7.5595   7.5870   7.5921   7.5987   7.6175   7.6302   7.6440
     7.6568   7.6609   7.7018   7.7217   7.7299   7.7326   7.7738   7.7858
     7.7994   7.8199   7.8268   7.8447   7.8736   7.9147   7.9386   7.9507
     7.9639   7.9769   8.0084   8.0412   8.0614   8.0703   8.1128   8.1309
     8.1420   8.1512   8.1758   8.1830   8.1850   8.2058   8.2184   8.2310
     8.2614   8.2746   8.3081   8.3321   8.3345   8.3840   8.3881   8.3980
     8.3983   8.4084   8.4172   8.4333   8.4722   8.4752   8.4868   8.5133
     8.5160   8.5218   8.5467   8.5625   8.5972   8.6183   8.6218   8.6443
     8.6465   8.6806   8.6811   8.7149   8.7244   8.7485   8.7570   8.7738
     8.7898   8.8200   8.8203   8.8257   8.8355   8.8676   8.8780   8.8866
     8.9019   8.9368   8.9457   8.9529   8.9573   8.9843   9.0124   9.0145
     9.0275   9.0426   9.0690   9.0877

          k = 0.0000 0.0000 0.0081 (148889 PWs)   bands (ev):

   -21.7800 -21.5168 -21.3223 -21.1471 -20.8893 -20.6985 -20.5402 -20.2496
   -20.1021 -19.9879 -19.7956 -19.7632 -19.4950 -19.1078 -18.8858 -18.8324
   -18.6750 -18.4890 -18.3448 -18.2791 -18.1520 -17.8733 -17.6649 -17.5225
   -17.4020 -17.2864 -17.0016 -16.8231 -16.7905 -16.7271 -16.5598 -16.2182
   -16.1537 -15.6005 -15.3409 -15.2686 -15.1745 -15.0301 -14.7376 -14.6898
   -14.5945 -14.3878 -14.2989 -14.0927 -13.8126 -13.7244 -13.6658 -13.1742
   -13.0603 -12.9840 -12.9149 -12.6547 -12.5444 -12.4745 -12.3101 -12.2679
   -12.1272 -12.0530 -11.6737 -11.3645 -11.3086 -11.1540 -11.1160 -10.9310
   -10.7984 -10.7518 -10.6532 -10.5672 -10.5532 -10.3272 -10.1264 -10.0142
    -9.9395  -9.8767  -9.8487  -9.7071  -9.6091  -9.5965  -9.5373  -9.4062
    -9.3720  -9.3263  -9.3072  -9.2325  -9.1854  -9.1271  -9.0475  -8.9716
    -8.8942  -8.8381  -8.8271  -8.7608  -8.6810  -8.6307  -8.6020  -8.5577
    -8.5332  -8.3996  -8.3833  -8.2531  -8.2089  -8.0995  -8.0970  -7.9469
    -7.8969  -7.8306  -7.7952  -7.7591  -7.6212  -7.5845  -7.5491  -7.4798
    -7.3676  -7.2160  -7.1760  -7.0679  -6.9363  -6.8405  -6.7937  -6.6316
    -6.6089  -6.5845  -6.4931  -6.3531  -6.3224  -6.1585  -5.9999  -5.9116
    -5.8901  -5.8539  -5.7691  -5.5813  -5.3667  -5.2358  -5.1426  -4.9456
    -4.7645  -4.6620  -4.5759  -4.4804  -4.1959  -3.9142  -3.7009  -2.7520
    -2.3034  -1.3744  -1.1812  -0.9105  -0.7609  -0.7247  -0.6516  -0.4770
    -0.2632  -0.1860  -0.0134   0.1818   0.2567   0.5653   0.6111   0.8388
     0.8856   0.8864   0.9092   0.9546   0.9757   1.1662   1.2020   1.2365
     1.2502   1.3553   1.3921   1.3933   1.5297   1.5765   1.5801   1.7237
     1.7465   1.7469   1.8654   1.9348   1.9976   2.0354   2.0839   2.1388
     2.1459   2.1642   2.2269   2.2930   2.3948   2.4051   2.4613   2.5030
     2.5310   2.5487   2.5696   2.6383   2.6514   2.6702   2.6736   2.7118
     2.7678   2.7773   2.8252   2.8613   2.9066   2.9165   2.9315   2.9823
     2.9823   3.0435   3.1057   3.1247   3.1356   3.1519   3.1815   3.2320
     3.2388   3.3113   3.3199   3.3603   3.3862   3.3980   3.4253   3.4739
     3.4854   3.5407   3.5741   3.6148   3.6212   3.6466   3.6743   3.6971
     3.7118   3.7229   3.7704   3.7946   3.8680   3.8982   3.9107   3.9551
     3.9578   3.9637   3.9813   4.0031   4.0431   4.0478   4.0820   4.0844
     4.1637   4.1939   4.2128   4.2452   4.2571   4.2828   4.3079   4.3434
     4.3544   4.3801   4.4163   4.4287   4.4620   4.5081   4.5203   4.5365
     4.5887   4.6013   4.6841   4.7013   4.7143   4.7540   4.7579   4.7928
     4.8025   4.8103   4.8476   4.8488   4.8815   4.9126   4.9260   4.9737
     4.9845   5.0586   5.0921   5.1022   5.1183   5.1385   5.1417   5.1510
     5.1849   5.2079   5.2317   5.2469   5.2480   5.2551   5.3103   5.3283
     5.3698   5.3760   5.3788   5.4269   5.4348   5.4590   5.4633   5.4917
     5.4985   5.5196   5.5474   5.5832   5.6289   5.6362   5.6598   5.6760
     5.6832   5.7002   5.7462   5.7544   5.7846   5.8410   5.8471   5.8793
     5.8817   5.9040   5.9297   5.9555   5.9769   5.9910   6.0293   6.0381
     6.0588   6.0723   6.1068   6.1260   6.1392   6.1451   6.1638   6.1731
     6.1855   6.2484   6.2727   6.2929   6.3036   6.3129   6.3595   6.3789
     6.3859   6.4120   6.4283   6.4511   6.4587   6.4794   6.5178   6.5195
     6.5510   6.5510   6.5723   6.6079   6.6086   6.6228   6.6433   6.6617
     6.6684   6.7153   6.7440   6.7755   6.7778   6.7927   6.8154   6.8188
     6.8309   6.8364   6.8542   6.8608   6.8757   6.9075   6.9416   6.9589
     6.9703   6.9993   7.0147   7.0256   7.0544   7.0761   7.0936   7.0957
     7.1176   7.1492   7.1494   7.1726   7.1859   7.2158   7.2353   7.2418
     7.2756   7.2982   7.3118   7.3221   7.3324   7.3639   7.3701   7.3752
     7.4102   7.4215   7.4320   7.4501   7.4775   7.4882   7.5341   7.5523
     7.5608   7.5663   7.5899   7.5902   7.5931   7.6019   7.6244   7.6492
     7.6603   7.6769   7.6926   7.7102   7.7226   7.7359   7.7754   7.7938
     7.7939   7.8170   7.8304   7.8585   7.8818   7.8824   7.9371   7.9473
     7.9579   7.9791   8.0226   8.0455   8.0674   8.0745   8.0769   8.1244
     8.1480   8.1576   8.1621   8.1830   8.2097   8.2165   8.2189   8.2270
     8.2558   8.2987   8.3340   8.3437   8.3651   8.3724   8.3805   8.3920
     8.4181   8.4192   8.4297   8.4581   8.4755   8.4768   8.4903   8.5068
     8.5137   8.5274   8.5397   8.5519   8.5874   8.6025   8.6133   8.6241
     8.6282   8.6436   8.6681   8.6975   8.7226   8.7345   8.7476   8.7570
     8.7734   8.8004   8.8177   8.8286   8.8323   8.8581   8.8645   8.8863
     8.8960   8.9310   8.9330   8.9460   8.9758   8.9900   9.0091   9.0139
     9.0444   9.0486   9.0665   9.0858

          k = 0.0000 0.0000 0.0093 (148905 PWs)   bands (ev):

   -21.7780 -21.5285 -21.3072 -21.1447 -20.8999 -20.6843 -20.5650 -20.2453
   -20.0787 -20.0034 -19.8097 -19.7475 -19.4735 -19.1184 -18.9182 -18.8439
   -18.6622 -18.4914 -18.3360 -18.2441 -18.1743 -17.8860 -17.6314 -17.5296
   -17.3976 -17.2809 -17.0041 -16.8272 -16.7872 -16.7553 -16.5572 -16.2400
   -16.1512 -15.5951 -15.3153 -15.2687 -15.1628 -15.0287 -14.7470 -14.6636
   -14.5971 -14.4067 -14.3005 -14.0913 -13.7999 -13.7219 -13.7010 -13.2149
   -13.0699 -12.9595 -12.9250 -12.6580 -12.5438 -12.4484 -12.2885 -12.2429
   -12.1370 -12.0471 -11.6433 -11.3813 -11.3280 -11.1736 -11.1211 -10.9216
   -10.7915 -10.7454 -10.6628 -10.5648 -10.5481 -10.3654 -10.0932 -10.0497
    -9.9489  -9.8970  -9.8462  -9.7094  -9.5934  -9.5637  -9.5514  -9.4135
    -9.3820  -9.3041  -9.2895  -9.2340  -9.1676  -9.1238  -9.0371  -8.9698
    -8.8832  -8.8416  -8.8399  -8.7743  -8.6847  -8.6306  -8.5846  -8.5679
    -8.5402  -8.4128  -8.3898  -8.2480  -8.1925  -8.0972  -8.0955  -7.9641
    -7.8650  -7.8450  -7.8123  -7.7747  -7.6027  -7.6005  -7.5327  -7.4942
    -7.3517  -7.1890  -7.1678  -7.0898  -6.9387  -6.8499  -6.7970  -6.6536
    -6.6203  -6.5586  -6.5340  -6.3348  -6.3019  -6.1629  -5.9905  -5.9176
    -5.8581  -5.8481  -5.8017  -5.5919  -5.3735  -5.2043  -5.1186  -4.9697
    -4.7651  -4.6661  -4.5729  -4.4904  -4.1858  -3.9346  -3.6873  -2.7800
    -2.2748  -1.3857  -1.1618  -0.9190  -0.7495  -0.7192  -0.6526  -0.4749
    -0.2670  -0.1987   0.0007   0.1528   0.2670   0.5681   0.6139   0.8193
     0.8859   0.8903   0.8954   0.9399   0.9537   1.1841   1.2095   1.2322
     1.2576   1.3374   1.3954   1.4017   1.5508   1.5642   1.5752   1.7303
     1.7498   1.7801   1.8870   1.9634   2.0133   2.0198   2.0893   2.1307
     2.1431   2.1569   2.2031   2.2955   2.3821   2.4169   2.4520   2.4947
     2.5251   2.5337   2.5537   2.6427   2.6526   2.6771   2.6921   2.7353
     2.7805   2.7805   2.8315   2.8542   2.8875   2.9006   2.9018   2.9842
     2.9886   3.0432   3.0750   3.1242   3.1603   3.1628   3.2014   3.2283
     3.2388   3.3064   3.3310   3.3484   3.3724   3.4087   3.4305   3.5011
     3.5028   3.5365   3.5869   3.6173   3.6412   3.6621   3.6849   3.6883
     3.6949   3.7155   3.7702   3.7919   3.8680   3.8790   3.9194   3.9362
     3.9381   3.9465   3.9893   4.0151   4.0222   4.0405   4.0572   4.0880
     4.1438   4.1935   4.1966   4.2255   4.2445   4.2778   4.3191   4.3223
     4.3799   4.4115   4.4200   4.4508   4.4574   4.4993   4.5300   4.5304
     4.6075   4.6118   4.6675   4.6926   4.7338   4.7543   4.7620   4.7914
     4.7963   4.8310   4.8645   4.8668   4.8762   4.9220   4.9663   4.9671
     5.0092   5.0284   5.0717   5.0808   5.1045   5.1204   5.1494   5.1788
     5.1845   5.1853   5.2056   5.2182   5.2478   5.2877   5.2927   5.3250
     5.3452   5.3584   5.4016   5.4135   5.4274   5.4556   5.4615   5.4822
     5.4907   5.5197   5.5402   5.6025   5.6381   5.6568   5.6809   5.7027
     5.7070   5.7165   5.7413   5.7582   5.7959   5.8306   5.8422   5.8996
     5.9004   5.9126   5.9268   5.9595   5.9755   5.9840   6.0283   6.0478
     6.0680   6.0731   6.1223   6.1282   6.1400   6.1417   6.1588   6.1779
     6.1851   6.2623   6.2722   6.2753   6.2860   6.3005   6.3529   6.3615
     6.3876   6.4035   6.4338   6.4389   6.4735   6.4816   6.4853   6.5176
     6.5402   6.5452   6.5747   6.5747   6.5977   6.6187   6.6380   6.6570
     6.6725   6.6941   6.7462   6.7584   6.7591   6.7918   6.8149   6.8182
     6.8304   6.8427   6.8619   6.8720   6.8769   6.9145   6.9176   6.9628
     6.9676   6.9696   7.0221   7.0347   7.0649   7.0829   7.0998   7.1092
     7.1297   7.1531   7.1667   7.1723   7.1941   7.2243   7.2427   7.2476
     7.2764   7.2862   7.3152   7.3295   7.3464   7.3702   7.3877   7.3935
     7.3959   7.4084   7.4326   7.4481   7.4881   7.5079   7.5287   7.5525
     7.5550   7.5602   7.5732   7.5791   7.6071   7.6141   7.6259   7.6559
     7.6704   7.6781   7.6866   7.7028   7.7188   7.7485   7.7891   7.7993
     7.8109   7.8220   7.8362   7.8509   7.8792   7.8816   7.9375   7.9377
     7.9682   7.9790   8.0177   8.0318   8.0501   8.0665   8.0773   8.1257
     8.1451   8.1562   8.1640   8.1752   8.2064   8.2147   8.2392   8.2549
     8.2723   8.3084   8.3357   8.3489   8.3599   8.3663   8.3981   8.4103
     8.4185   8.4261   8.4478   8.4532   8.4707   8.4713   8.5128   8.5182
     8.5284   8.5316   8.5373   8.5516   8.5694   8.5841   8.5863   8.6069
     8.6162   8.6277   8.6571   8.6759   8.7130   8.7183   8.7294   8.7453
     8.7534   8.7895   8.8164   8.8240   8.8360   8.8397   8.8661   8.8789
     8.8877   8.9219   8.9339   8.9525   8.9738   8.9919   8.9922   9.0210
     9.0423   9.0610   9.0751   9.0972

          k = 0.0000 0.0000 0.0105 (148881 PWs)   bands (ev):

   -21.7757 -21.5400 -21.2919 -21.1419 -20.9102 -20.6702 -20.5891 -20.2430
   -20.0534 -20.0185 -19.8231 -19.7316 -19.4521 -19.1295 -18.9536 -18.8513
   -18.6515 -18.4921 -18.3347 -18.2056 -18.1909 -17.8998 -17.6032 -17.5320
   -17.3950 -17.2725 -17.0066 -16.8389 -16.7916 -16.7717 -16.5535 -16.2656
   -16.1474 -15.5903 -15.2932 -15.2645 -15.1494 -15.0229 -14.7577 -14.6380
   -14.5982 -14.4271 -14.3035 -14.0895 -13.7890 -13.7650 -13.6862 -13.2578
   -13.0796 -12.9580 -12.9174 -12.6575 -12.5496 -12.4156 -12.2675 -12.2156
   -12.1537 -12.0313 -11.6143 -11.3982 -11.3464 -11.1939 -11.1280 -10.9143
   -10.7961 -10.7350 -10.6700 -10.5595 -10.5413 -10.3976 -10.0894 -10.0602
    -9.9569  -9.9149  -9.8434  -9.7134  -9.5834  -9.5652  -9.5360  -9.4229
    -9.3845  -9.2847  -9.2717  -9.2281  -9.1468  -9.1198  -9.0315  -8.9663
    -8.8841  -8.8524  -8.8353  -8.7887  -8.6860  -8.6317  -8.5770  -8.5669
    -8.5457  -8.4420  -8.3797  -8.2453  -8.1799  -8.0949  -8.0929  -7.9778
    -7.8642  -7.8342  -7.8276  -7.7860  -7.6209  -7.5827  -7.5152  -7.5092
    -7.3328  -7.1675  -7.1626  -7.1049  -6.9416  -6.8601  -6.8011  -6.6754
    -6.6317  -6.5731  -6.5322  -6.3182  -6.2819  -6.1656  -5.9839  -5.9245
    -5.8629  -5.8326  -5.8042  -5.6035  -5.3797  -5.1753  -5.0942  -4.9914
    -4.7657  -4.6763  -4.5682  -4.4991  -4.1756  -3.9563  -3.6729  -2.8087
    -2.2455  -1.3974  -1.1414  -0.9284  -0.7463  -0.7020  -0.6539  -0.4719
    -0.2766  -0.2074   0.0162   0.1146   0.2886   0.5714   0.6170   0.7645
     0.8759   0.8919   0.9237   0.9263   0.9361   1.1989   1.2032   1.2389
     1.2722   1.3081   1.3990   1.4219   1.5482   1.5725   1.5731   1.7144
     1.7529   1.8367   1.9089   1.9911   2.0004   2.0309   2.0967   2.1037
     2.1483   2.1569   2.1853   2.2984   2.3692   2.4209   2.4521   2.4822
     2.5015   2.5235   2.5546   2.6372   2.6482   2.6796   2.7187   2.7625
     2.7809   2.7964   2.8277   2.8584   2.8629   2.8804   2.8915   2.9830
     2.9877   3.0369   3.0607   3.1124   3.1606   3.1957   3.2228   3.2311
     3.2481   3.2915   3.3213   3.3510   3.3730   3.4189   3.4354   3.5023
     3.5215   3.5607   3.5994   3.6197   3.6461   3.6588   3.6642   3.6818
     3.7029   3.7354   3.7734   3.7817   3.8623   3.8639   3.9070   3.9148
     3.9304   3.9475   3.9800   3.9911   4.0376   4.0409   4.0419   4.1008
     4.1210   4.1644   4.1972   4.2116   4.2195   4.2914   4.2987   4.3331
     4.4058   4.4112   4.4404   4.4606   4.4643   4.4953   4.5239   4.5466
     4.6224   4.6279   4.6483   4.6999   4.7178   4.7511   4.7668   4.7884
     4.8075   4.8432   4.8549   4.8965   4.8971   4.9374   4.9690   4.9973
     5.0062   5.0311   5.0498   5.0558   5.0866   5.1149   5.1487   5.1538
     5.1661   5.1795   5.1951   5.2276   5.2410   5.2794   5.3190   5.3192
     5.3309   5.3456   5.3998   5.4189   5.4214   5.4348   5.4458   5.4915
     5.5038   5.5115   5.5432   5.6130   5.6450   5.6642   5.7112   5.7146
     5.7292   5.7346   5.7518   5.7658   5.7911   5.8289   5.8498   5.8925
     5.9089   5.9328   5.9346   5.9484   5.9901   5.9919   6.0140   6.0477
     6.0706   6.0820   6.1210   6.1280   6.1346   6.1386   6.1615   6.1831
     6.2100   6.2514   6.2589   6.2688   6.2957   6.2998   6.3252   6.3590
     6.3831   6.3960   6.4248   6.4378   6.4383   6.4808   6.4934   6.5069
     6.5420   6.5431   6.5490   6.5862   6.5899   6.6128   6.6279   6.6511
     6.6775   6.6796   6.7111   6.7427   6.7505   6.7971   6.8060   6.8105
     6.8338   6.8419   6.8597   6.8875   6.8963   6.9000   6.9342   6.9417
     6.9612   6.9739   7.0314   7.0419   7.0552   7.0960   7.1068   7.1213
     7.1329   7.1523   7.1822   7.1984   7.2107   7.2381   7.2457   7.2566
     7.2635   7.2813   7.3043   7.3177   7.3686   7.3692   7.3807   7.3882
     7.4150   7.4219   7.4363   7.4505   7.4976   7.5028   7.5235   7.5364
     7.5366   7.5532   7.5807   7.5856   7.6121   7.6245   7.6372   7.6383
     7.6574   7.6889   7.7024   7.7221   7.7240   7.7676   7.8017   7.8037
     7.8158   7.8326   7.8412   7.8418   7.8734   7.9012   7.9368   7.9395
     7.9628   7.9831   7.9852   8.0266   8.0549   8.0617   8.0791   8.1083
     8.1353   8.1677   8.1726   8.1799   8.2032   8.2158   8.2450   8.2741
     8.2863   8.3093   8.3359   8.3428   8.3543   8.3638   8.4079   8.4196
     8.4237   8.4326   8.4535   8.4591   8.4668   8.4695   8.5099   8.5100
     8.5242   8.5277   8.5329   8.5653   8.5733   8.5826   8.5943   8.6032
     8.6120   8.6139   8.6526   8.6556   8.6776   8.6938   8.7065   8.7388
     8.7596   8.7786   8.8093   8.8192   8.8276   8.8453   8.8607   8.8657
     8.8758   8.9245   8.9462   8.9557   8.9650   8.9778   8.9957   9.0014
     9.0441   9.0745   9.0773   9.0859

          k = 0.0000 0.0000 0.0116 (148889 PWs)   bands (ev):

   -21.7732 -21.5511 -21.2766 -21.1387 -20.9202 -20.6572 -20.6116 -20.2426
   -20.0338 -20.0260 -19.8359 -19.7157 -19.4311 -19.1407 -18.9900 -18.8566
   -18.6437 -18.4904 -18.3401 -18.2011 -18.1652 -17.9142 -17.5898 -17.5204
   -17.3940 -17.2614 -17.0090 -16.8631 -16.8022 -16.7729 -16.5485 -16.2942
   -16.1423 -15.5881 -15.2764 -15.2530 -15.1343 -15.0128 -14.7694 -14.6178
   -14.5935 -14.4482 -14.3082 -14.0875 -13.8206 -13.7657 -13.6681 -13.3013
   -13.0902 -12.9722 -12.9005 -12.6524 -12.5567 -12.3812 -12.2471 -12.1918
   -12.1669 -12.0108 -11.5874 -11.4148 -11.3634 -11.2137 -11.1369 -10.9085
   -10.8114 -10.7256 -10.6726 -10.5526 -10.5331 -10.4211 -10.1301 -10.0317
    -9.9637  -9.9293  -9.8403  -9.7189  -9.5787  -9.5758  -9.5279  -9.4204
    -9.3800  -9.2733  -9.2541  -9.2123  -9.1238  -9.1151  -9.0308  -8.9607
    -8.8958  -8.8646  -8.8208  -8.8027  -8.6855  -8.6348  -8.5841  -8.5496
    -8.5492  -8.4708  -8.3692  -8.2449  -8.1718  -8.0950  -8.0897  -7.9848
    -7.8869  -7.8469  -7.7984  -7.7943  -7.6382  -7.5746  -7.5162  -7.4973
    -7.3126  -7.1795  -7.1371  -7.1084  -6.9451  -6.8706  -6.8061  -6.6965
    -6.6470  -6.6067  -6.5056  -6.3042  -6.2621  -6.1659  -5.9825  -5.9321
    -5.8682  -5.8554  -5.7624  -5.6158  -5.3851  -5.1491  -5.0747  -5.0052
    -4.7666  -4.6913  -4.5644  -4.5054  -4.1655  -3.9793  -3.6574  -2.8378
    -2.2156  -1.4099  -1.1200  -0.9384  -0.7457  -0.6797  -0.6545  -0.4683
    -0.2913  -0.2127   0.0306   0.0775   0.3136   0.5750   0.6206   0.7083
     0.8614   0.8912   0.9067   0.9152   0.9690   1.1883   1.2137   1.2523
     1.2765   1.2900   1.4030   1.4450   1.5329   1.5690   1.5956   1.6990
     1.7562   1.8921   1.9308   1.9824   2.0171   2.0444   2.0763   2.1069
     2.1441   2.1548   2.1845   2.3012   2.3561   2.4140   2.4625   2.4681
     2.4705   2.5233   2.5568   2.6275   2.6376   2.6824   2.7464   2.7807
     2.7850   2.8107   2.8221   2.8431   2.8555   2.8658   2.8985   2.9713
     2.9922   3.0051   3.0792   3.1007   3.1476   3.2196   3.2457   3.2522
     3.2618   3.2764   3.2930   3.3693   3.3767   3.4270   3.4408   3.4922
     3.5411   3.5971   3.6107   3.6195   3.6282   3.6326   3.6680   3.6842
     3.7068   3.7466   3.7752   3.7864   3.8487   3.8489   3.8951   3.9038
     3.9159   3.9475   3.9480   3.9888   4.0275   4.0499   4.0590   4.0973
     4.1230   4.1298   4.1759   4.2057   4.2146   4.2642   4.3159   4.3482
     4.3902   4.4345   4.4441   4.4599   4.4825   4.5029   4.5363   4.5648
     4.5955   4.6484   4.6703   4.6722   4.7109   4.7586   4.7730   4.7886
     4.8260   4.8401   4.8482   4.9102   4.9351   4.9507   4.9623   4.9912
     5.0182   5.0221   5.0389   5.0547   5.0794   5.1071   5.1238   5.1369
     5.1543   5.1603   5.1830   5.2269   5.2693   5.2752   5.3000   5.3002
     5.3461   5.3705   5.3904   5.3930   5.4170   5.4356   5.4522   5.4786
     5.5104   5.5275   5.5507   5.6189   5.6482   5.6722   5.7034   5.7315
     5.7439   5.7550   5.7656   5.7872   5.7903   5.8369   5.8599   5.8710
     5.9031   5.9458   5.9474   5.9661   5.9874   6.0070   6.0118   6.0472
     6.0669   6.0675   6.1188   6.1278   6.1417   6.1572   6.1578   6.1807
     6.2112   6.2340   6.2553   6.2786   6.2958   6.2964   6.3305   6.3527
     6.3755   6.3894   6.3902   6.4093   6.4411   6.4658   6.4935   6.5128
     6.5171   6.5429   6.5570   6.5858   6.5924   6.6057   6.6268   6.6479
     6.6626   6.6800   6.6829   6.7302   6.7539   6.7841   6.7899   6.8069
     6.8117   6.8302   6.8692   6.8993   6.9032   6.9139   6.9424   6.9490
     6.9594   6.9830   7.0349   7.0439   7.0559   7.0887   7.1123   7.1288
     7.1505   7.1539   7.1967   7.2258   7.2261   7.2368   7.2432   7.2567
     7.2701   7.2737   7.2917   7.3125   7.3470   7.3803   7.3814   7.4024
     7.4233   7.4342   7.4583   7.4656   7.4707   7.4791   7.5060   7.5277
     7.5489   7.5490   7.5842   7.6044   7.6058   7.6151   7.6414   7.6476
     7.6572   7.7033   7.7171   7.7244   7.7546   7.7776   7.7938   7.8097
     7.8329   7.8349   7.8472   7.8484   7.8705   7.9115   7.9219   7.9390
     7.9593   7.9863   8.0096   8.0127   8.0585   8.0595   8.0814   8.0924
     8.1252   8.1652   8.1720   8.2018   8.2058   8.2147   8.2450   8.2723
     8.2983   8.3109   8.3252   8.3293   8.3573   8.3726   8.3908   8.4089
     8.4278   8.4335   8.4527   8.4556   8.4674   8.4809   8.4945   8.5004
     8.5200   8.5261   8.5338   8.5677   8.5770   8.5889   8.5956   8.6045
     8.6173   8.6297   8.6471   8.6544   8.6567   8.6771   8.6843   8.7407
     8.7666   8.7668   8.7876   8.8208   8.8215   8.8435   8.8487   8.8630
     8.8716   8.9355   8.9386   8.9604   8.9614   8.9695   8.9813   9.0015
     9.0353   9.0494   9.0634   9.0996

          k = 0.0000 0.0000 0.0128 (148841 PWs)   bands (ev):

   -21.7704 -21.5620 -21.2614 -21.1350 -20.9300 -20.6530 -20.6249 -20.2436
   -20.0474 -19.9988 -19.8477 -19.6997 -19.4111 -19.1515 -19.0265 -18.8606
   -18.6395 -18.4856 -18.3514 -18.2039 -18.1247 -17.9290 -17.5929 -17.4932
   -17.3940 -17.2481 -17.0115 -16.8964 -16.8095 -16.7717 -16.5422 -16.3253
   -16.1359 -15.5899 -15.2620 -15.2359 -15.1181 -14.9984 -14.7819 -14.6119
   -14.5746 -14.4697 -14.3148 -14.0863 -13.8661 -13.7494 -13.6497 -13.3450
   -13.1020 -12.9896 -12.8870 -12.6436 -12.5622 -12.3476 -12.2285 -12.1978
   -12.1470 -11.9875 -11.5642 -11.4309 -11.3784 -11.2320 -11.1479 -10.9039
   -10.8323 -10.7313 -10.6633 -10.5442 -10.5231 -10.4349 -10.1721 -10.0110
    -9.9710  -9.9346  -9.8369  -9.7254  -9.5919  -9.5718  -9.5388  -9.4077
    -9.3658  -9.2664  -9.2368  -9.1910  -9.1097  -9.0991  -9.0330  -8.9582
    -8.9073  -8.8764  -8.8218  -8.7989  -8.6842  -8.6402  -8.5886  -8.5521
    -8.5324  -8.4981  -8.3586  -8.2468  -8.1669  -8.0960  -8.0921  -7.9815
    -7.9116  -7.8635  -7.8008  -7.7646  -7.6543  -7.5835  -7.5070  -7.4792
    -7.2921  -7.2003  -7.1132  -7.1039  -6.9494  -6.8806  -6.8120  -6.7167
    -6.6746  -6.6262  -6.4790  -6.2937  -6.2427  -6.1628  -5.9895  -5.9406
    -5.8741  -5.8695  -5.7204  -5.6285  -5.3899  -5.1257  -5.0739  -4.9973
    -4.7676  -4.7097  -4.5640  -4.5077  -4.1558  -4.0035  -3.6410  -2.8674
    -2.1853  -1.4231  -1.0976  -0.9489  -0.7449  -0.6633  -0.6460  -0.4641
    -0.3092  -0.2166   0.0211   0.0659   0.3401   0.5789   0.6245   0.6521
     0.8468   0.8837   0.8855   0.9103   1.0065   1.1741   1.2236   1.2441
     1.2692   1.3097   1.4074   1.4694   1.5181   1.5650   1.6185   1.6839
     1.7598   1.9444   1.9482   1.9684   2.0412   2.0416   2.0628   2.1205
     2.1250   2.1635   2.1940   2.3033   2.3431   2.4040   2.4348   2.4536
     2.4826   2.5226   2.5590   2.6164   2.6221   2.6854   2.7691   2.7809
     2.7833   2.8162   2.8251   2.8428   2.8479   2.8639   2.9155   2.9565
     2.9742   2.9978   3.0893   3.1015   3.1311   3.2308   3.2577   3.2645
     3.2689   3.2792   3.2917   3.3791   3.3875   3.4316   3.4466   3.4828
     3.5611   3.5989   3.6006   3.6272   3.6275   3.6348   3.6541   3.7010
     3.7080   3.7316   3.7718   3.8082   3.8336   3.8358   3.8815   3.8983
     3.9062   3.9265   3.9372   3.9889   4.0150   4.0588   4.0724   4.0950
     4.1004   4.1364   4.1494   4.2093   4.2132   4.2350   4.3331   4.3615
     4.3765   4.4285   4.4378   4.4689   4.5101   4.5209   4.5491   4.5773
     4.5809   4.6223   4.6708   4.7009   4.7208   4.7498   4.7821   4.8013
     4.8269   4.8450   4.8511   4.9078   4.9325   4.9631   4.9743   4.9919
     4.9986   5.0209   5.0356   5.0522   5.0735   5.1013   5.1056   5.1295
     5.1493   5.1526   5.1710   5.2157   5.2683   5.2791   5.2861   5.3150
     5.3501   5.3627   5.3853   5.4119   5.4141   5.4254   5.4593   5.4771
     5.5136   5.5522   5.5579   5.6187   5.6538   5.6723   5.6912   5.7351
     5.7508   5.7646   5.7797   5.8079   5.8188   5.8224   5.8503   5.8839
     5.9106   5.9455   5.9614   5.9742   5.9947   5.9965   6.0235   6.0447
     6.0654   6.0709   6.1162   6.1312   6.1320   6.1622   6.1742   6.1798
     6.2013   6.2307   6.2424   6.2679   6.2918   6.3086   6.3367   6.3408
     6.3551   6.3739   6.3926   6.3946   6.4310   6.4638   6.4844   6.4910
     6.5167   6.5402   6.5520   6.5809   6.5891   6.6190   6.6192   6.6363
     6.6526   6.6877   6.6883   6.7209   6.7535   6.7552   6.7722   6.7758
     6.8061   6.8255   6.8811   6.9069   6.9139   6.9281   6.9459   6.9576
     6.9713   6.9968   7.0280   7.0421   7.0695   7.0828   7.1214   7.1232
     7.1519   7.1879   7.1940   7.2053   7.2238   7.2399   7.2404   7.2690
     7.2708   7.2932   7.3028   7.3130   7.3334   7.3743   7.3869   7.4144
     7.4161   7.4287   7.4371   7.4797   7.4850   7.4957   7.4965   7.5204
     7.5265   7.5572   7.5847   7.5985   7.6009   7.6466   7.6479   7.6511
     7.6651   7.7138   7.7235   7.7418   7.7560   7.7709   7.7890   7.8236
     7.8376   7.8455   7.8535   7.8548   7.8803   7.9025   7.9212   7.9433
     7.9823   7.9929   8.0111   8.0360   8.0536   8.0636   8.0773   8.0874
     8.1171   8.1589   8.1726   8.1872   8.2124   8.2248   8.2459   8.2798
     8.2870   8.3067   8.3166   8.3184   8.3581   8.3673   8.3747   8.3899
     8.4197   8.4304   8.4452   8.4568   8.4611   8.4706   8.4922   8.5143
     8.5267   8.5277   8.5286   8.5432   8.5801   8.5882   8.5941   8.5963
     8.6178   8.6368   8.6402   8.6657   8.6687   8.6932   8.7078   8.7396
     8.7576   8.7629   8.7714   8.8059   8.8186   8.8395   8.8420   8.8624
     8.8835   8.9234   8.9450   8.9458   8.9509   8.9703   8.9815   8.9951
     9.0159   9.0445   9.0540   9.0912

          k = 0.0000 0.0000 0.0139 (148839 PWs)   bands (ev):

   -21.7674 -21.5726 -21.2463 -21.1307 -20.9393 -20.6693 -20.6172 -20.2461
   -20.0605 -19.9707 -19.8585 -19.6837 -19.3926 -19.1614 -19.0629 -18.8638
   -18.6392 -18.4779 -18.3666 -18.2014 -18.0843 -17.9434 -17.6032 -17.4597
   -17.3944 -17.2330 -17.0144 -16.9334 -16.8156 -16.7706 -16.5348 -16.3583
   -16.1283 -15.5965 -15.2456 -15.2169 -15.1012 -14.9801 -14.7950 -14.6121
   -14.5508 -14.4906 -14.3230 -14.0878 -13.9081 -13.7316 -13.6312 -13.3885
   -13.1148 -13.0081 -12.8780 -12.6340 -12.5635 -12.3166 -12.2238 -12.1990
   -12.1147 -11.9621 -11.5465 -11.4461 -11.3907 -11.2476 -11.1604 -10.9009
   -10.8551 -10.7535 -10.6441 -10.5338 -10.5115 -10.4401 -10.2145 -10.0028
    -9.9821  -9.9240  -9.8331  -9.7324  -9.6047  -9.5779  -9.5518  -9.3962
    -9.3413  -9.2593  -9.2200  -9.1694  -9.1032  -9.0739  -9.0348  -8.9680
    -8.9079  -8.8878  -8.8365  -8.7817  -8.6829  -8.6475  -8.5905  -8.5531
    -8.5335  -8.5070  -8.3480  -8.2512  -8.1641  -8.1013  -8.0978  -7.9679
    -7.9371  -7.8798  -7.8064  -7.7310  -7.6687  -7.6022  -7.4885  -7.4608
    -7.2723  -7.2241  -7.0966  -7.0919  -6.9545  -6.8892  -6.8192  -6.7355
    -6.7114  -6.6349  -6.4525  -6.2876  -6.2236  -6.1559  -6.0060  -5.9498
    -5.8805  -5.8732  -5.6801  -5.6400  -5.3942  -5.1075  -5.0865  -4.9706
    -4.7688  -4.7308  -4.5680  -4.5055  -4.1465  -4.0289  -3.6235  -2.8974
    -2.1547  -1.4373  -1.0746  -0.9593  -0.7432  -0.6617  -0.6201  -0.4595
    -0.3289  -0.2207  -0.0144   0.0827   0.3675   0.5833   0.5962   0.6287
     0.8325   0.8602   0.8748   0.9113   1.0428   1.1598   1.2115   1.2317
     1.2881   1.3305   1.4121   1.4946   1.5037   1.5608   1.6417   1.6695
     1.7636   1.9375   1.9819   1.9897   2.0149   2.0656   2.0692   2.1081
     2.1373   2.1758   2.2072   2.3044   2.3301   2.3931   2.4036   2.4393
     2.5015   2.5196   2.5606   2.6048   2.6056   2.6883   2.7503   2.7803
     2.8024   2.8096   2.8250   2.8426   2.8565   2.8841   2.9348   2.9348
     2.9515   3.0045   3.0783   3.1151   3.1247   3.2266   3.2441   3.2507
     3.2893   3.2981   3.3319   3.3840   3.3997   3.4310   3.4512   3.4791
     3.5694   3.5790   3.5837   3.6302   3.6371   3.6380   3.6693   3.6924
     3.7165   3.7250   3.7652   3.7939   3.8141   3.8602   3.8705   3.8832
     3.8909   3.9249   3.9376   3.9823   4.0030   4.0529   4.0605   4.0943
     4.1117   4.1223   4.1645   4.2034   4.2034   4.2260   4.3375   4.3648
     4.3770   4.4202   4.4282   4.4816   4.5187   4.5432   4.5446   4.5722
     4.5988   4.6021   4.6891   4.7258   4.7313   4.7387   4.7965   4.8131
     4.8210   4.8528   4.8615   4.8879   4.9064   4.9654   4.9698   4.9819
     5.0141   5.0147   5.0243   5.0602   5.0674   5.0769   5.1053   5.1286
     5.1331   5.1521   5.1818   5.2134   5.2542   5.2693   5.2852   5.3261
     5.3518   5.3664   5.3841   5.4130   5.4149   5.4426   5.4521   5.5035
     5.5148   5.5637   5.5776   5.6097   5.6575   5.6622   5.6948   5.7214
     5.7562   5.7748   5.7776   5.8023   5.8253   5.8527   5.8621   5.8912
     5.9225   5.9424   5.9695   5.9709   5.9787   6.0108   6.0318   6.0457
     6.0712   6.0874   6.1100   6.1262   6.1332   6.1639   6.1710   6.1887
     6.2001   6.2277   6.2316   6.2626   6.2837   6.2940   6.3094   6.3276
     6.3506   6.3749   6.3834   6.4135   6.4280   6.4579   6.4620   6.4917
     6.5065   6.5351   6.5511   6.5595   6.5807   6.6032   6.6310   6.6424
     6.6652   6.6914   6.7021   6.7137   6.7161   6.7329   6.7531   6.7712
     6.8090   6.8247   6.8884   6.9130   6.9314   6.9379   6.9421   6.9690
     6.9830   7.0109   7.0197   7.0386   7.0732   7.0935   7.1100   7.1431
     7.1539   7.1579   7.1896   7.2113   7.2191   7.2305   7.2520   7.2694
     7.2829   7.3044   7.3243   7.3285   7.3395   7.3553   7.3722   7.3955
     7.4107   7.4158   7.4628   7.4839   7.4870   7.4971   7.5058   7.5135
     7.5361   7.5572   7.5913   7.5970   7.6110   7.6467   7.6480   7.6504
     7.7023   7.7051   7.7213   7.7363   7.7592   7.7670   7.7957   7.8329
     7.8436   7.8473   7.8658   7.8665   7.8861   7.9059   7.9355   7.9640
     7.9750   8.0156   8.0347   8.0496   8.0522   8.0644   8.0672   8.1032
     8.1074   8.1552   8.1553   8.1785   8.2189   8.2222   8.2470   8.2583
     8.2898   8.2961   8.2990   8.3236   8.3425   8.3623   8.3701   8.3815
     8.4006   8.4146   8.4343   8.4537   8.4591   8.4834   8.4848   8.4911
     8.5170   8.5207   8.5213   8.5458   8.5551   8.5711   8.5958   8.6179
     8.6322   8.6524   8.6688   8.6688   8.6798   8.7200   8.7347   8.7384
     8.7494   8.7641   8.7680   8.7878   8.8157   8.8334   8.8462   8.8638
     8.8986   8.9086   8.9290   8.9294   8.9533   8.9673   8.9805   8.9809
     9.0061   9.0431   9.0553   9.0807

          k = 0.0000 0.0000 0.0151 (148786 PWs)   bands (ev):

   -21.7641 -21.5829 -21.2316 -21.1257 -20.9483 -20.6915 -20.6030 -20.2501
   -20.0726 -19.9428 -19.8676 -19.6677 -19.3766 -19.1699 -19.0985 -18.8664
   -18.6427 -18.4677 -18.3834 -18.1953 -18.0460 -17.9558 -17.6163 -17.4255
   -17.3937 -17.2165 -17.0188 -16.9707 -16.8225 -16.7698 -16.5268 -16.3927
   -16.1193 -15.6078 -15.2267 -15.1961 -15.0839 -14.9584 -14.8085 -14.6136
   -14.5328 -14.5054 -14.3325 -14.0954 -13.9428 -13.7131 -13.6128 -13.4314
   -13.1287 -13.0273 -12.8726 -12.6279 -12.5574 -12.2935 -12.2316 -12.1817
   -12.0805 -11.9350 -11.5364 -11.4605 -11.4001 -11.2595 -11.1734 -10.9008
   -10.8781 -10.7836 -10.6220 -10.5211 -10.4987 -10.4392 -10.2566 -10.0033
    -9.9955  -9.9036  -9.8291  -9.7391  -9.6171  -9.5994  -9.5551  -9.3863
    -9.3135  -9.2498  -9.2039  -9.1505  -9.0955  -9.0537  -9.0290  -8.9886
    -8.8988  -8.8987  -8.8515  -8.7657  -8.6824  -8.6550  -8.5902  -8.5594
    -8.5527  -8.4907  -8.3377  -8.2579  -8.1630  -8.1142  -8.1006  -7.9632
    -7.9473  -7.8953  -7.8116  -7.7026  -7.6764  -7.6238  -7.4669  -7.4423
    -7.2616  -7.2403  -7.0886  -7.0748  -6.9606  -6.8948  -6.8279  -6.7524
    -6.7507  -6.6394  -6.4262  -6.2859  -6.2049  -6.1453  -6.0287  -5.9598
    -5.8875  -5.8696  -5.6620  -5.6296  -5.3980  -5.1165  -5.0783  -4.9374
    -4.7706  -4.7538  -4.5753  -4.5004  -4.1378  -4.0553  -3.6048  -2.9276
    -2.1237  -1.4525  -1.0514  -0.9688  -0.7409  -0.6618  -0.5901  -0.4546
    -0.3494  -0.2262  -0.0514   0.1040   0.3953   0.5408   0.5880   0.6333
     0.8185   0.8366   0.8623   0.9148   1.0770   1.1457   1.1791   1.2387
     1.3082   1.3520   1.4174   1.4900   1.5194   1.5577   1.6536   1.6673
     1.7676   1.9170   1.9861   2.0050   2.0219   2.0671   2.0942   2.1013
     2.1568   2.1938   2.2229   2.3034   2.3171   2.3698   2.3875   2.4255
     2.5120   2.5213   2.5601   2.5901   2.5971   2.6883   2.7250   2.7765
     2.8037   2.8081   2.8321   2.8402   2.8732   2.9028   2.9197   2.9387
     2.9541   3.0124   3.0681   3.1016   3.1464   3.2054   3.2290   3.2552
     3.3126   3.3172   3.3725   3.3897   3.4059   3.4227   3.4527   3.4858
     3.5455   3.5576   3.6037   3.6231   3.6335   3.6429   3.6749   3.6791
     3.7257   3.7266   3.7687   3.7734   3.7995   3.8579   3.8594   3.8717
     3.8902   3.9389   3.9458   3.9727   3.9912   4.0264   4.0444   4.0927
     4.1161   4.1465   4.1717   4.1903   4.1967   4.2391   4.3269   4.3521
     4.3939   4.4169   4.4289   4.4888   4.4896   4.5224   4.5679   4.5817
     4.6024   4.6370   4.7022   4.7235   4.7432   4.7529   4.8063   4.8178
     4.8350   4.8532   4.8586   4.8708   4.8829   4.9458   4.9512   4.9736
     5.0015   5.0056   5.0411   5.0530   5.0720   5.0862   5.0878   5.1155
     5.1328   5.1453   5.2022   5.2227   5.2479   5.2611   5.2871   5.3131
     5.3498   5.3838   5.4035   5.4078   5.4139   5.4335   5.4907   5.5128
     5.5319   5.5641   5.5969   5.6038   5.6461   5.6622   5.7001   5.7159
     5.7303   5.7641   5.7886   5.8194   5.8304   5.8640   5.8813   5.9165
     5.9184   5.9247   5.9562   5.9719   6.0059   6.0159   6.0276   6.0482
     6.0869   6.0939   6.1048   6.1318   6.1351   6.1610   6.1789   6.1957
     6.1997   6.2038   6.2236   6.2527   6.2631   6.2952   6.2984   6.3087
     6.3566   6.3594   6.3705   6.4234   6.4337   6.4404   6.4524   6.5045
     6.5099   6.5103   6.5289   6.5646   6.5802   6.6049   6.6285   6.6466
     6.6676   6.6757   6.6767   6.7081   6.7141   6.7211   6.7545   6.7827
     6.8155   6.8283   6.8900   6.9183   6.9358   6.9500   6.9512   6.9745
     6.9891   7.0136   7.0219   7.0349   7.0729   7.0840   7.1152   7.1194
     7.1641   7.1673   7.1706   7.2070   7.2265   7.2410   7.2557   7.2632
     7.2865   7.3052   7.3239   7.3361   7.3399   7.3548   7.3866   7.3966
     7.3995   7.4032   7.4718   7.4800   7.4857   7.4873   7.5248   7.5377
     7.5461   7.5544   7.5878   7.6074   7.6300   7.6435   7.6450   7.6546
     7.6756   7.6887   7.7237   7.7541   7.7678   7.7855   7.8110   7.8322
     7.8467   7.8506   7.8608   7.8797   7.8872   7.9314   7.9586   7.9830
     7.9870   8.0131   8.0437   8.0508   8.0620   8.0681   8.0862   8.0930
     8.1208   8.1311   8.1640   8.1668   8.2117   8.2233   8.2348   8.2458
     8.2744   8.2748   8.3069   8.3147   8.3411   8.3445   8.3716   8.3794
     8.3833   8.4108   8.4210   8.4393   8.4459   8.4588   8.4760   8.4920
     8.5019   8.5064   8.5139   8.5362   8.5555   8.5627   8.6101   8.6269
     8.6530   8.6679   8.6893   8.6895   8.7079   8.7278   8.7348   8.7425
     8.7473   8.7524   8.7859   8.7910   8.8125   8.8393   8.8483   8.8710
     8.8960   8.9050   8.9120   8.9142   8.9503   8.9546   8.9798   8.9916
     8.9962   9.0371   9.0442   9.0673

          k = 0.0000 0.0000 0.0163 (148752 PWs)   bands (ev):

[...]
    -1.8487  -1.6391  -1.0511  -0.7736  -0.7303  -0.6097  -0.5523  -0.4548
    -0.4147  -0.2232  -0.1857   0.0615   0.3017   0.6098   0.6456   0.6872
     0.6956   0.7106   0.7604   0.8809   0.9738   1.0335   1.3029   1.3029
     1.3662   1.4663   1.4879   1.5373   1.5474   1.5666   1.6969   1.7232
     1.8117   1.8201   1.9015   1.9537   2.0227   2.0740   2.1664   2.1677
     2.2176   2.2404   2.2544   2.2676   2.3599   2.3865   2.4078   2.4411
     2.4602   2.5016   2.6022   2.6050   2.6437   2.6444   2.6711   2.6863
     2.7008   2.7219   2.7731   2.8113   2.8688   2.9002   2.9439   3.0174
     3.0729   3.0775   3.1385   3.1539   3.1828   3.1830   3.2201   3.2694
     3.3040   3.3356   3.3551   3.4006   3.4173   3.4487   3.4665   3.4995
     3.5213   3.5409   3.5495   3.5811   3.5911   3.6251   3.6535   3.6992
     3.7203   3.7224   3.7321   3.7506   3.7778   3.7846   3.8058   3.8231
     3.8297   3.8871   3.9048   3.9868   4.0004   4.0012   4.0610   4.1199
     4.1276   4.1941   4.2030   4.2168   4.2807   4.3155   4.3240   4.3884
     4.3895   4.3977   4.4448   4.4751   4.4913   4.5638   4.5729   4.5759
     4.5830   4.6266   4.6470   4.6493   4.7092   4.7339   4.7973   4.8027
     4.8108   4.8142   4.8259   4.8321   4.8936   4.9119   4.9147   4.9415
     4.9709   4.9932   5.0149   5.0171   5.0293   5.0751   5.1178   5.1604
     5.1932   5.2027   5.2056   5.2171   5.2788   5.2888   5.2993   5.3645
     5.4072   5.4174   5.4364   5.4668   5.4696   5.4835   5.5017   5.5376
     5.5978   5.6154   5.6380   5.6697   5.6940   5.7256   5.7472   5.7679
     5.7718   5.7827   5.7970   5.8168   5.8515   5.8601   5.8891   5.8894
     5.8983   5.9232   5.9391   5.9444   5.9627   5.9658   5.9736   6.0000
     6.0284   6.0321   6.0524   6.0885   6.0910   6.1140   6.1310   6.1562
     6.1964   6.2051   6.2363   6.2375   6.2432   6.2585   6.2745   6.3239
     6.3276   6.3471   6.3595   6.3636   6.3910   6.4249   6.4638   6.4793
     6.4826   6.5545   6.5684   6.5864   6.6055   6.6310   6.6380   6.6602
     6.6645   6.6835   6.6924   6.7008   6.7199   6.7651   6.7954   6.7969
     6.8439   6.8498   6.8510   6.8581   6.8813   6.8864   6.9282   6.9381
     6.9732   6.9805   7.0055   7.0262   7.0405   7.0965   7.1192   7.1412
     7.1430   7.1492   7.1774   7.1956   7.2296   7.2370   7.2603   7.2803
     7.2911   7.2953   7.3159   7.3618   7.3706   7.3830   7.4074   7.4115
     7.4336   7.4480   7.4801   7.4908   7.5171   7.5208   7.5300   7.5549
     7.5570   7.5914   7.6009   7.6203   7.6412   7.6520   7.6928   7.6986
     7.7366   7.7462   7.7627   7.7856   7.8008   7.8059   7.8317   7.8407
     7.8751   7.8879   7.9095   7.9270   7.9434   7.9494   7.9691   7.9944
     7.9951   8.0058   8.0229   8.0426   8.0669   8.0797   8.0865   8.1076
     8.1098   8.1425   8.1485   8.1604   8.1797   8.2007   8.2134   8.2235
     8.2354   8.2595   8.2713   8.2724   8.2875   8.2910   8.3171   8.3315
     8.3834   8.3852   8.4109   8.4498   8.4588   8.4627   8.4736   8.4861
     8.5144   8.5387   8.5489   8.5508   8.5538   8.5773   8.5802   8.6059
     8.6385   8.6473   8.6540   8.6736   8.6911   8.6946   8.7449   8.7613
     8.7638   8.7694   8.7818   8.8073   8.8233   8.8400   8.8679   8.8798
     8.8836   8.8963   8.9149   8.9597   8.9721   8.9787   8.9971   9.0034
     9.0163   9.0273   9.0399   9.0460

          k = 0.0000 0.0000 0.0267 (148818 PWs)   bands (ev):

   -21.7258 -21.6605 -21.1428 -21.0379 -20.9792 -20.9105 -20.4381 -20.3668
   -20.1249 -19.9362 -19.6252 -19.5357 -19.4469 -19.3988 -19.0725 -18.8803
   -18.7710 -18.5023 -18.2981 -18.1710 -18.0685 -17.7486 -17.5931 -17.4211
   -17.3999 -17.0950 -17.0516 -16.9955 -16.9110 -16.8140 -16.7124 -16.4603
   -15.9467 -15.8440 -15.0958 -14.9578 -14.8956 -14.8324 -14.7371 -14.6817
   -14.6305 -14.5730 -14.4710 -14.1954 -13.9741 -13.7606 -13.5371 -13.4801
   -13.2548 -13.2068 -12.8696 -12.6424 -12.4140 -12.4030 -12.0562 -11.9888
   -11.7861 -11.6731 -11.5837 -11.5615 -11.4416 -11.4232 -11.2852 -11.0663
   -10.9503 -10.8372 -10.6971 -10.4810 -10.4029 -10.3865 -10.2266 -10.1331
    -9.9911  -9.9195  -9.9000  -9.7786  -9.7147  -9.6213  -9.4710  -9.3294
    -9.2554  -9.2003  -9.1358  -9.1163  -9.0636  -8.9968  -8.9905  -8.9560
    -8.9139  -8.8237  -8.7920  -8.7510  -8.7222  -8.6931  -8.6401  -8.5816
    -8.4856  -8.3974  -8.3426  -8.2987  -8.2438  -8.2106  -8.1290  -8.1060
    -7.9756  -7.8916  -7.7914  -7.7690  -7.6513  -7.5366  -7.3297  -7.2580
    -7.2365  -7.1750  -7.1323  -7.1136  -7.0758  -7.0076  -6.9680  -6.8155
    -6.7824  -6.5699  -6.4430  -6.1987  -6.1960  -6.0954  -6.0399  -5.9863
    -5.9686  -5.8735  -5.7022  -5.4307  -5.2890  -5.2221  -5.0721  -4.9215
    -4.8028  -4.6630  -4.5834  -4.4382  -4.3599  -4.0832  -3.3658  -3.2320
    -1.8236  -1.6609  -1.0538  -0.7425  -0.7304  -0.6182  -0.5569  -0.4761
    -0.4151  -0.1893  -0.1776   0.0122   0.3147   0.6058   0.6527   0.6926
     0.7020   0.7158   0.7528   0.8510   0.9823   1.0232   1.3104   1.3140
     1.3577   1.4725   1.4825   1.5392   1.5604   1.5910   1.6729   1.6982
     1.8219   1.8424   1.9294   1.9480   2.0027   2.0446   2.1659   2.1715
     2.2175   2.2482   2.2616   2.2679   2.3537   2.3774   2.3958   2.4646
     2.4892   2.4935   2.5773   2.6070   2.6385   2.6484   2.6646   2.6909
     2.7224   2.7391   2.7845   2.8041   2.8691   2.8779   2.9216   2.9955
     3.0777   3.0959   3.1228   3.1705   3.1942   3.2028   3.2460   3.2739
     3.2892   3.3310   3.3312   3.3703   3.4329   3.4467   3.4792   3.4900
     3.5103   3.5413   3.5761   3.5819   3.5936   3.6184   3.6399   3.6960
     3.7087   3.7287   3.7293   3.7449   3.7632   3.8104   3.8233   3.8255
     3.8508   3.8579   3.8996   3.9719   3.9940   4.0234   4.0302   4.1104
     4.1488   4.1764   4.2080   4.2285   4.3061   4.3176   4.3403   4.3749
     4.4135   4.4220   4.4405   4.4753   4.5009   4.5340   4.5464   4.5531
     4.5835   4.6249   4.6535   4.6724   4.6964   4.7186   4.7738   4.7791
     4.8038   4.8229   4.8275   4.8341   4.8919   4.9114   4.9266   4.9598
     4.9675   4.9823   5.0245   5.0338   5.0405   5.0886   5.1168   5.1629
     5.1725   5.2065   5.2326   5.2388   5.2577   5.2666   5.2804   5.3723
     5.3973   5.4204   5.4367   5.4378   5.4734   5.4859   5.5232   5.5569
     5.6220   5.6373   5.6621   5.6736   5.6927   5.7196   5.7251   5.7602
     5.7775   5.7798   5.7850   5.8370   5.8435   5.8621   5.8724   5.8951
     5.9053   5.9108   5.9352   5.9468   5.9619   5.9775   5.9920   5.9924
     6.0269   6.0269   6.0327   6.0891   6.0950   6.1059   6.1111   6.1534
     6.1661   6.2102   6.2241   6.2335   6.2463   6.2549   6.2771   6.3074
     6.3269   6.3472   6.3675   6.3789   6.3931   6.4235   6.4764   6.4784
     6.4934   6.5697   6.5876   6.5989   6.6021   6.6332   6.6396   6.6643
     6.6697   6.6801   6.6944   6.7248   6.7337   6.7592   6.7915   6.8043
     6.8138   6.8274   6.8436   6.8580   6.8683   6.8764   6.9201   6.9282
     6.9359   6.9527   7.0159   7.0371   7.0449   7.1095   7.1289   7.1440
     7.1558   7.1583   7.1784   7.2176   7.2341   7.2468   7.2547   7.2817
     7.2987   7.3133   7.3340   7.3440   7.3673   7.3785   7.3933   7.4034
     7.4369   7.4421   7.4706   7.4883   7.5126   7.5222   7.5252   7.5341
     7.5682   7.5790   7.6096   7.6410   7.6527   7.6665   7.6911   7.7033
     7.7346   7.7677   7.7703   7.7737   7.7914   7.7956   7.8241   7.8488
     7.8673   7.9016   7.9076   7.9307   7.9360   7.9518   7.9756   7.9824
     7.9855   8.0017   8.0214   8.0537   8.0592   8.0688   8.1026   8.1042
     8.1170   8.1278   8.1382   8.1481   8.1909   8.1921   8.2048   8.2179
     8.2519   8.2657   8.2845   8.2872   8.2946   8.2987   8.3127   8.3455
     8.3782   8.3845   8.4308   8.4412   8.4420   8.4609   8.4795   8.4835
     8.4964   8.5217   8.5392   8.5559   8.5705   8.5744   8.5892   8.6108
     8.6365   8.6500   8.6693   8.6728   8.6905   8.7019   8.7508   8.7587
     8.7688   8.7749   8.7856   8.8060   8.8385   8.8397   8.8640   8.8689
     8.8827   8.8905   8.8989   8.9449   8.9678   8.9731   8.9793   8.9977
     8.9990   9.0164   9.0323   9.0385

          k = 0.0000 0.0000 0.0279 (148816 PWs)   bands (ev):

   -21.7238 -21.6633 -21.1410 -21.0355 -20.9666 -20.9289 -20.4226 -20.3817
   -20.1254 -19.9376 -19.5959 -19.5451 -19.4565 -19.4090 -19.0651 -18.8813
   -18.7776 -18.5044 -18.2887 -18.1782 -18.0673 -17.7525 -17.5500 -17.4600
   -17.4047 -17.0827 -17.0382 -17.0070 -16.8917 -16.8393 -16.7196 -16.4588
   -15.9225 -15.8701 -15.0910 -14.9598 -14.8884 -14.8138 -14.7315 -14.6677
   -14.6372 -14.6032 -14.4805 -14.1855 -13.9764 -13.7702 -13.5285 -13.4787
   -13.2566 -13.2155 -12.8698 -12.6422 -12.4182 -12.3991 -12.0519 -11.9805
   -11.7688 -11.6887 -11.5638 -11.5613 -11.4442 -11.4180 -11.3230 -11.0649
   -10.9342 -10.8363 -10.7197 -10.4773 -10.4010 -10.3849 -10.2052 -10.1470
    -9.9840  -9.9278  -9.9126  -9.7754  -9.7188  -9.6203  -9.4468  -9.3541
    -9.2454  -9.2107  -9.1242  -9.1144  -9.0690  -8.9909  -8.9883  -8.9658
    -8.8933  -8.8477  -8.7855  -8.7432  -8.7274  -8.6783  -8.6385  -8.5891
    -8.4815  -8.4040  -8.3475  -8.2830  -8.2482  -8.2251  -8.1269  -8.1064
    -7.9767  -7.8970  -7.7932  -7.7708  -7.6242  -7.5641  -7.2967  -7.2508
    -7.2220  -7.1924  -7.1554  -7.1258  -7.0685  -7.0012  -6.9804  -6.8163
    -6.7780  -6.5548  -6.4618  -6.2014  -6.1817  -6.1076  -6.0258  -5.9989
    -5.9562  -5.8837  -5.6993  -5.4324  -5.2931  -5.1841  -5.1086  -4.9157
    -4.8057  -4.6644  -4.5664  -4.4268  -4.3869  -4.0821  -3.3422  -3.2569
    -1.8043  -1.6782  -1.0555  -0.7310  -0.7131  -0.6381  -0.5502  -0.4944
    -0.4148  -0.1891  -0.1341  -0.0357   0.3231   0.6010   0.6586   0.6931
     0.6988   0.7379   0.7474   0.8249   0.9905   1.0137   1.3167   1.3210
     1.3507   1.4769   1.4789   1.5339   1.5811   1.6139   1.6523   1.6739
     1.8233   1.8675   1.9444   1.9576   1.9835   2.0155   2.1648   2.1750
     2.2180   2.2440   2.2579   2.2954   2.3499   2.3510   2.3981   2.4856
     2.4916   2.5147   2.5517   2.5945   2.6379   2.6547   2.6555   2.6824
     2.7534   2.7718   2.7829   2.8130   2.8556   2.8571   2.8986   2.9825
     3.0861   3.1094   3.1111   3.1715   3.2116   3.2202   3.2691   3.2704
     3.2823   3.3133   3.3301   3.3415   3.4401   3.4513   3.4692   3.4910
     3.5175   3.5458   3.5664   3.5888   3.6040   3.6102   3.6537   3.6669
     3.7083   3.7200   3.7277   3.7424   3.7748   3.8144   3.8225   3.8292
     3.8695   3.8705   3.8956   3.9554   3.9598   4.0229   4.0488   4.0948
     4.1613   4.1658   4.2084   4.2514   4.3131   4.3231   4.3336   4.3967
     4.4052   4.4394   4.4517   4.4881   4.5028   4.5106   4.5172   4.5358
     4.5756   4.6287   4.6756   4.6822   4.6976   4.7070   4.7452   4.7531
     4.8003   4.8243   4.8290   4.8523   4.8863   4.9143   4.9340   4.9438
     4.9701   4.9995   5.0251   5.0379   5.0486   5.1160   5.1218   5.1472
     5.1691   5.2081   5.2112   5.2489   5.2548   5.2740   5.2801   5.3724
     5.3925   5.4007   5.4279   5.4400   5.4663   5.4761   5.5692   5.5790
     5.6453   5.6532   5.6549   5.6659   5.6948   5.7082   5.7131   5.7512
     5.7703   5.7923   5.8044   5.8253   5.8323   5.8493   5.8621   5.9073
     5.9113   5.9189   5.9268   5.9523   5.9661   5.9788   5.9860   6.0023
     6.0240   6.0317   6.0327   6.0695   6.1040   6.1112   6.1119   6.1254
     6.1439   6.1909   6.2294   6.2419   6.2494   6.2602   6.2787   6.2919
     6.3174   6.3460   6.3601   6.3905   6.4175   6.4304   6.4776   6.4825
     6.5043   6.5471   6.5880   6.6048   6.6232   6.6239   6.6387   6.6786
     6.6899   6.6905   6.6954   6.7218   6.7539   6.7629   6.7835   6.7933
     6.8134   6.8175   6.8392   6.8571   6.8601   6.8735   6.8863   6.9039
     6.9320   6.9334   7.0156   7.0427   7.0524   7.1177   7.1286   7.1472
     7.1653   7.1763   7.1906   7.2156   7.2501   7.2546   7.2567   7.2842
     7.2986   7.3196   7.3292   7.3513   7.3633   7.3678   7.3964   7.3986
     7.4294   7.4357   7.4620   7.4747   7.5003   7.5058   7.5303   7.5473
     7.5738   7.5865   7.6210   7.6407   7.6650   7.6712   7.6952   7.7062
     7.7303   7.7576   7.7620   7.7797   7.7870   7.8083   7.8269   7.8518
     7.8631   7.9053   7.9084   7.9246   7.9306   7.9444   7.9678   7.9779
     7.9829   8.0079   8.0386   8.0529   8.0605   8.0687   8.0934   8.1074
     8.1232   8.1258   8.1319   8.1385   8.1693   8.1881   8.2183   8.2261
     8.2412   8.2590   8.2829   8.2930   8.3146   8.3180   8.3317   8.3672
     8.3749   8.3779   8.4214   8.4272   8.4353   8.4530   8.4746   8.4904
     8.5081   8.5111   8.5253   8.5484   8.5666   8.5837   8.6004   8.6016
     8.6260   8.6364   8.6822   8.6898   8.7040   8.7327   8.7445   8.7605
     8.7748   8.7763   8.8058   8.8081   8.8235   8.8559   8.8609   8.8615
     8.8780   8.8787   8.8879   8.9150   8.9590   8.9604   8.9746   8.9803
     9.0020   9.0026   9.0314   9.0459

          k = 0.0000 0.0000-0.0290 (148818 PWs)   bands (ev):

   -21.7231 -21.6643 -21.1405 -21.0349 -20.9566 -20.9406 -20.4136 -20.3905
   -20.1256 -19.9380 -19.5756 -19.5595 -19.4586 -19.4129 -19.0625 -18.8816
   -18.7799 -18.5051 -18.2851 -18.1809 -18.0668 -17.7538 -17.5158 -17.4939
   -17.4052 -17.0789 -17.0225 -17.0223 -16.8673 -16.8655 -16.7218 -16.4583
   -15.9021 -15.8912 -15.0893 -14.9607 -14.8855 -14.8088 -14.7249 -14.6662
   -14.6291 -14.6245 -14.4837 -14.1820 -13.9774 -13.7734 -13.5253 -13.4785
   -13.2570 -13.2187 -12.8698 -12.6421 -12.4197 -12.3977 -12.0505 -11.9776
   -11.7612 -11.6959 -11.5646 -11.5526 -11.4495 -11.4069 -11.3417 -11.0646
   -10.9277 -10.8359 -10.7283 -10.4760 -10.4003 -10.3844 -10.1948 -10.1547
    -9.9807  -9.9319  -9.9166  -9.7743  -9.7203  -9.6201  -9.4346  -9.3665
    -9.2400  -9.2162  -9.1191  -9.1138  -9.0725  -8.9911  -8.9778  -8.9764
    -8.8727  -8.8694  -8.7834  -8.7357  -8.7344  -8.6719  -8.6376  -8.5930
    -8.4801  -8.4061  -8.3491  -8.2755  -8.2498  -8.2322  -8.1261  -8.1065
    -7.9770  -7.8989  -7.7938  -7.7714  -7.6044  -7.5842  -7.2757  -7.2565
    -7.2161  -7.1980  -7.1651  -7.1310  -7.0660  -6.9946  -6.9890  -6.8166
    -6.7765  -6.5479  -6.4699  -6.2023  -6.1757  -6.1128  -6.0133  -6.0110
    -5.9511  -5.8880  -5.6983  -5.4330  -5.2945  -5.1496  -5.1425  -4.9137
    -4.8067  -4.6649  -4.5600  -4.4113  -4.4082  -4.0817  -3.3303  -3.2693
    -1.7965  -1.6854  -1.0560  -0.7310  -0.6969  -0.6520  -0.5449  -0.5029
    -0.4146  -0.1893  -0.0990  -0.0720   0.3260   0.5991   0.6611   0.6907
     0.6999   0.7453   0.7497   0.8120   0.9956   1.0083   1.3195   1.3234
     1.3476   1.4777   1.4785   1.5319   1.5921   1.6253   1.6464   1.6570
     1.8238   1.8785   1.9432   1.9745   1.9833   1.9895   2.1644   2.1763
     2.2183   2.2425   2.2566   2.3213   2.3252   2.3486   2.3992   2.4857
     2.5056   2.5274   2.5354   2.5846   2.6419   2.6496   2.6581   2.6784
     2.7610   2.7776   2.8136   2.8264   2.8275   2.8384   2.8920   2.9786
     3.0936   3.1004   3.1177   3.1688   3.2243   3.2283   3.2562   3.2819
     3.2865   3.3129   3.3209   3.3295   3.4434   3.4545   3.4620   3.4878
     3.5368   3.5460   3.5494   3.5900   3.5982   3.6374   3.6385   3.6664
     3.6950   3.7266   3.7273   3.7344   3.7981   3.8041   3.8165   3.8215
     3.8786   3.8933   3.9103   3.9214   3.9478   4.0226   4.0705   4.0762
     4.1625   4.1649   4.2085   4.2693   4.3014   4.3151   4.3541   4.3795
     4.4193   4.4552   4.4680   4.4744   4.4899   4.5004   4.5262   4.5278
     4.5627   4.6503   4.6554   4.6901   4.7157   4.7175   4.7215   4.7328
     4.7998   4.8230   4.8304   4.8640   4.8807   4.9217   4.9284   4.9363
     4.9727   5.0129   5.0198   5.0396   5.0498   5.1167   5.1377   5.1564
     5.1694   5.1715   5.2143   5.2489   5.2611   5.2668   5.2985   5.3699
     5.3819   5.3928   5.4320   5.4465   5.4525   5.4763   5.5889   5.6110
     5.6186   5.6522   5.6601   5.6738   5.6908   5.6954   5.7111   5.7652
     5.7680   5.7964   5.8030   5.8195   5.8288   5.8472   5.8492   5.9140
     5.9150   5.9230   5.9443   5.9470   5.9545   5.9687   5.9830   6.0206
     6.0226   6.0310   6.0360   6.0822   6.0836   6.1056   6.1190   6.1200
     6.1345   6.1823   6.2293   6.2485   6.2506   6.2650   6.2792   6.2843
     6.3124   6.3466   6.3542   6.3985   6.4144   6.4575   6.4762   6.4773
     6.4971   6.5625   6.5639   6.5979   6.6289   6.6303   6.6475   6.6815
     6.6936   6.6985   6.7139   6.7168   6.7290   6.7705   6.7770   6.8077
     6.8216   6.8282   6.8334   6.8471   6.8569   6.8587   6.8776   6.8896
     6.9281   6.9327   7.0144   7.0464   7.0538   7.1218   7.1255   7.1511
     7.1633   7.1893   7.2033   7.2040   7.2466   7.2617   7.2745   7.2891
     7.2990   7.3104   7.3162   7.3445   7.3611   7.3889   7.3970   7.4048
     7.4139   7.4301   7.4622   7.4691   7.4894   7.4981   7.5321   7.5635
     7.5750   7.5900   7.6273   7.6394   7.6595   7.6681   7.7085   7.7203
     7.7204   7.7311   7.7709   7.7806   7.7903   7.8127   7.8413   7.8440
     7.8561   7.9063   7.9130   7.9142   7.9268   7.9529   7.9665   7.9709
     7.9757   8.0109   8.0548   8.0643   8.0652   8.0680   8.0706   8.0980
     8.1233   8.1311   8.1383   8.1429   8.1527   8.1860   8.2229   8.2335
     8.2402   8.2440   8.2811   8.3044   8.3149   8.3275   8.3561   8.3634
     8.3685   8.3845   8.4094   8.4242   8.4391   8.4444   8.4565   8.5113
     8.5155   8.5169   8.5223   8.5270   8.5607   8.5853   8.6032   8.6051
     8.6227   8.6298   8.6846   8.6897   8.7221   8.7346   8.7415   8.7746
     8.7856   8.7937   8.7963   8.8082   8.8266   8.8307   8.8481   8.8545
     8.8859   8.8870   8.9010   8.9045   8.9261   8.9555   8.9767   8.9876
     8.9930   9.0038   9.0313   9.0572

     the Fermi energy is    -2.5486 ev

     Writing output data file C_2Z_3A_W9.save/

     init_run     :     21.25s CPU     21.91s WALL (       1 calls)
     electrons    :  11484.22s CPU  11608.15s WALL (       1 calls)

     Called by init_run:
     wfcinit      :      0.00s CPU      0.00s WALL (       1 calls)
     potinit      :      1.38s CPU      1.52s WALL (       1 calls)
     hinit0       :     15.68s CPU     15.79s WALL (       1 calls)

     Called by electrons:
     c_bands      :  11484.20s CPU  11608.08s WALL (       1 calls)
     v_of_rho     :      1.05s CPU      1.11s WALL (       1 calls)
     newd         :      0.96s CPU      1.31s WALL (       1 calls)

     Called by c_bands:
     init_us_2    :      1.36s CPU      1.49s WALL (      26 calls)
     cegterg      :  11215.47s CPU  11326.66s WALL (      78 calls)

     Called by sum_band:

     Called by *egterg:
     h_psi        :   4022.91s CPU   4080.92s WALL (    1187 calls)
     s_psi        :    407.17s CPU    409.13s WALL (    1187 calls)
     g_psi        :     18.19s CPU     18.25s WALL (    1083 calls)
     cdiaghg      :   3110.64s CPU   3121.19s WALL (    1109 calls)

     Called by h_psi:
     h_psi:pot    :   3999.59s CPU   4050.15s WALL (    1187 calls)
     h_psi:calbec :    378.23s CPU    382.14s WALL (    1187 calls)
     vloc_psi     :   3216.25s CPU   3260.89s WALL (    1187 calls)
     add_vuspsi   :    405.10s CPU    407.11s WALL (    1187 calls)

     General routines
     calbec       :    378.22s CPU    382.13s WALL (    1187 calls)
     fft          :      1.14s CPU      1.25s WALL (      14 calls)
     ffts         :      0.01s CPU      0.01s WALL (       1 calls)
     fftw         :   2549.80s CPU   2584.45s WALL (  571466 calls)
     interpolate  :      0.08s CPU      0.09s WALL (       1 calls)
     davcio       :      0.00s CPU      8.36s WALL (      52 calls)

     Parallel routines
     fft_scatt_xy :    549.52s CPU    555.77s WALL (  571481 calls)
     fft_scatt_yz :    401.63s CPU    413.17s WALL (  571481 calls)

     PWSCF        :     3h12m CPU       12h 3m WALL

      20h

   This run was terminated on:   6: 6:55  29Apr2021            

=------------------------------------------------------------------------------=
   JOB DONE.
=------------------------------------------------------------------------------=
