
     Program PWSCF v.6.3 starts on 17May2021 at 17:36:39 

     This program is part of the open-source Quantum ESPRESSO suite
     for quantum simulation of materials; please cite
         "P. Giannozzi et al., J. Phys.:Condens. Matter 21 395502 (2009);
         "P. Giannozzi et al., J. Phys.:Condens. Matter 29 465901 (2017);
          URL http://www.quantum-espresso.org", 
     in publications or presentations arising from this work. More details at
     http://www.quantum-espresso.org/quote

     Parallel version (MPI), running on    16 processors
     R & G space division:  proc/nbgrp/npool/nimage =      16
     Waiting for input...
     Reading input from standard input
     Message from routine read_cards :
     DEPRECATED: no units specified in CELL_PARAMETERS card

     Current dimensions of program PWSCF are:
     Max number of different atomic species (ntypx) = 10
     Max number of k-points (npk) =  40000
     Max angular momentum in pseudopotentials (lmaxx) =  3

     Atomic positions and unit cell read from directory:
     /home/zfwang/scratch/GNRDATASET/AGNR/C_3Z_1A_W7/C_3Z_1A_W7.save/


     Subspace diagonalization in iterative solution of the eigenvalue problem:
     a serial algorithm will be used


     Parallelization info
     --------------------
     sticks:   dense  smooth     PW     G-vecs:    dense   smooth      PW
     Min        2556     852    223               253239    48726    6533
     Max        2558     853    224               253241    48729    6536
     Sum       40909   13645   3583              4051833   779641  104545



     bravais-lattice index     =            0
     lattice parameter (alat)  =       1.8897  a.u.
     unit-cell volume          =   22816.1189 (a.u.)^3
     number of atoms/cell      =           46
     number of atomic types    =            2
     number of electrons       =       154.00
     number of Kohn-Sham states=          500
     kinetic-energy cutoff     =      40.0000  Ry
     charge density cutoff     =     480.0000  Ry
     Exchange-correlation      = PBE ( 1  4  3  4 0 0)

     celldm(1)=  18.897261  celldm(2)=   3.000000  celldm(3)=   1.127000
     celldm(4)=   0.000000  celldm(5)=   0.000000  celldm(6)=   0.000000

     crystal axes: (cart. coord. in units of alat)
               a(1) = (  10.000000   0.000000   0.000000 )  
               a(2) = (   0.000000  30.000000   0.000000 )  
               a(3) = (   0.000000   0.000000  11.270000 )  

     reciprocal axes: (cart. coord. in units 2 pi/alat)
               b(1) = (  0.100000  0.000000  0.000000 )  
               b(2) = (  0.000000  0.033333  0.000000 )  
               b(3) = (  0.000000  0.000000  0.088731 )  


     PseudoPot. # 1 for C  read from file:
     /home/zfwang/hp_home/MySoftware/qe-6.3/pseudo/C.pbe-n-rrkjus_psl.0.1.UPF
     MD5 check sum: fff530ed632a789b3b184014e67dd7f1
     Pseudo is Ultrasoft + core correction, Zval =  4.0
     Generated using "atomic" code by A. Dal Corso v.5.0.2 svn rev. 9415
     Using radial grid of 1073 points,  4 beta functions with: 
                l(1) =   0
                l(2) =   0
                l(3) =   1
                l(4) =   1
     Q(r) pseudized with 0 coefficients 


     PseudoPot. # 2 for H  read from file:
     /home/zfwang/hp_home/MySoftware/qe-6.3/pseudo/H.pbe-rrkjus_psl.0.1.UPF
     MD5 check sum: e164a6907b691c6980f16942be34de84
     Pseudo is Ultrasoft, Zval =  1.0
     Generated using "atomic" code by A. Dal Corso v.5.0.2 svn rev. 9415
     Using radial grid of  929 points,  2 beta functions with: 
                l(1) =   0
                l(2) =   0
     Q(r) pseudized with 0 coefficients 


     atomic species   valence    mass     pseudopotential
        C              4.00    12.01070     C ( 1.00)
        H              1.00     1.00794     H ( 1.00)

     No symmetry found



   Cartesian axes

     site n.     atom                  positions (alat units)
         1           C   tau(   1) = (   5.0000000  11.2556056   8.2521744  )
         2           C   tau(   2) = (   4.9999985  11.2863154   4.5458683  )
         3           C   tau(   3) = (   4.9999991  12.6427562   8.5679647  )
         4           C   tau(   4) = (   5.0000004  10.8096045   6.9600298  )
         5           C   tau(   5) = (   4.9999979  12.2357315  11.0072251  )
         6           C   tau(   6) = (   4.9999970  12.1914892   3.4711951  )
         7           C   tau(   7) = (   4.9999994  13.5812924   7.5090276  )
         8           C   tau(   8) = (   4.9999966  13.6065190   3.7486065  )
         9           C   tau(   9) = (   5.0000003  14.9930105   7.7815614  )
        10           C   tau(  10) = (   4.9999994  11.7228697   5.8705724  )
        11           C   tau(  11) = (   4.9999996  13.1151334   9.9329029  )
        12           C   tau(  12) = (   4.9999964  11.7643072   2.1355304  )
        13           C   tau(  13) = (   4.9999986  13.1292291   6.1598246  )
        14           C   tau(  14) = (   5.0000011  14.5364669  10.1927045  )
        15           C   tau(  15) = (   4.9999970  14.5391036   2.6847971  )
        16           C   tau(  16) = (   4.9999990  15.9117463   6.7105031  )
        17           C   tau(  17) = (   5.0000040  17.3574535  10.7518524  )
        18           C   tau(  18) = (   4.9999989  15.9400816   2.9594118  )
        19           C   tau(  19) = (   4.9999995  17.3263086   6.9766671  )
        20           C   tau(  20) = (   5.0000050  18.7445722  11.0675995  )
        21           C   tau(  21) = (   4.9999967  12.6738880   1.0731996  )
        22           C   tau(  22) = (   4.9999976  14.0601370   5.0904536  )
        23           C   tau(  23) = (   5.0000017  15.4637433   9.1270977  )
        24           C   tau(  24) = (   4.9999976  14.0884765   1.3393401  )
        25           C   tau(  25) = (   4.9999980  15.4610932   5.3651107  )
        26           C   tau(  26) = (   5.0000029  16.8850686   9.3868889  )
        27           C   tau(  27) = (   5.0000008  16.8709940   1.8900635  )
        28           C   tau(  28) = (   4.9999987  18.2358707   5.9143033  )
        29           C   tau(  29) = (   5.0000014  18.2773574   2.1792862  )
        30           C   tau(  30) = (   5.0000008  15.0071979   0.2683022  )
        31           C   tau(  31) = (   4.9999985  16.3936769   4.3012913  )
        32           C   tau(  32) = (   5.0000017  17.7645076   8.3125599  )
        33           C   tau(  33) = (   5.0000024  16.4189319   0.5407778  )
        34           C   tau(  34) = (   4.9999987  17.8086860   4.5786970  )
        35           C   tau(  35) = (   5.0000039  19.1906599   1.0899192  )
        36           C   tau(  36) = (   5.0000000  18.7139081   3.5040378  )
        37           H   tau(  37) = (   5.0000010  10.5191980   9.0528958  )
        38           H   tau(  38) = (   4.9999992  10.2138983   4.3378548  )
        39           H   tau(  39) = (   5.0000027   9.7393024   6.7485956  )
        40           H   tau(  40) = (   4.9999980  11.1593364  10.8424520  )
        41           H   tau(  41) = (   4.9999977  10.6935535   1.9176626  )
        42           H   tau(  42) = (   5.0000075  19.4809479  10.2669388  )
        43           H   tau(  43) = (   4.9999983  19.3065947   6.1322099  )
        44           H   tau(  44) = (   5.0000027  18.8408807   8.4773740  )
        45           H   tau(  45) = (   5.0000048  20.2609227   1.3012816  )
        46           H   tau(  46) = (   4.9999996  19.7863130   3.7119941  )

     number of k points=    26  Marzari-Vanderbilt smearing, width (Ry)=  0.0100
                       cart. coord. in units 2pi/alat
        k(    1) = (   0.0000000   0.0000000   0.0000000), wk =   0.0400000
        k(    2) = (   0.0000000   0.0000000   0.0017746), wk =   0.0800000
        k(    3) = (   0.0000000   0.0000000   0.0035492), wk =   0.0800000
        k(    4) = (   0.0000000   0.0000000   0.0053239), wk =   0.0800000
        k(    5) = (   0.0000000   0.0000000   0.0070985), wk =   0.0800000
        k(    6) = (   0.0000000   0.0000000   0.0088731), wk =   0.0800000
        k(    7) = (   0.0000000   0.0000000   0.0106477), wk =   0.0800000
        k(    8) = (   0.0000000   0.0000000   0.0124224), wk =   0.0800000
        k(    9) = (   0.0000000   0.0000000   0.0141970), wk =   0.0800000
        k(   10) = (   0.0000000   0.0000000   0.0159716), wk =   0.0800000
        k(   11) = (   0.0000000   0.0000000   0.0177462), wk =   0.0800000
        k(   12) = (   0.0000000   0.0000000   0.0195209), wk =   0.0800000
        k(   13) = (   0.0000000   0.0000000   0.0212955), wk =   0.0800000
        k(   14) = (   0.0000000   0.0000000   0.0230701), wk =   0.0800000
        k(   15) = (   0.0000000   0.0000000   0.0248447), wk =   0.0800000
        k(   16) = (   0.0000000   0.0000000   0.0266193), wk =   0.0800000
        k(   17) = (   0.0000000   0.0000000   0.0283940), wk =   0.0800000
        k(   18) = (   0.0000000   0.0000000   0.0301686), wk =   0.0800000
        k(   19) = (   0.0000000   0.0000000   0.0319432), wk =   0.0800000
        k(   20) = (   0.0000000   0.0000000   0.0337178), wk =   0.0800000
        k(   21) = (   0.0000000   0.0000000   0.0354925), wk =   0.0800000
        k(   22) = (   0.0000000   0.0000000   0.0372671), wk =   0.0800000
        k(   23) = (   0.0000000   0.0000000   0.0390417), wk =   0.0800000
        k(   24) = (   0.0000000   0.0000000   0.0408163), wk =   0.0800000
        k(   25) = (   0.0000000   0.0000000   0.0425909), wk =   0.0800000
        k(   26) = (   0.0000000   0.0000000  -0.0443656), wk =   0.0400000

     Dense  grid:  4051833 G-vectors     FFT dimensions: ( 135, 400, 150)

     Smooth grid:   779641 G-vectors     FFT dimensions: (  80, 240,  90)

     Estimated max dynamical RAM per process >     897.34 MB

     Estimated total dynamical RAM >      14.02 GB

     The potential is recalculated from file :
     /home/zfwang/scratch/GNRDATASET/AGNR/C_3Z_1A_W7/C_3Z_1A_W7.save/charge-density.dat


     negative rho (up, down):  2.703E-04 0.000E+00
     Starting wfcs are  154 randomized atomic wfcs +  346 random wfcs

     Band Structure Calculation
     Davidson diagonalization with overlap
     c_bands:  1 eigenvalues not converged
     c_bands:  1 eigenvalues not converged
     c_bands:  1 eigenvalues not converged

     ethr =  6.49E-09,  avg # of iterations = 74.4

     total cpu time spent up to now is     7442.5 secs

     End of band structure calculation

          k = 0.0000 0.0000 0.0000 ( 97367 PWs)   bands (ev):

   -21.8887 -21.1320 -21.0085 -20.9458 -20.3186 -20.0390 -19.5647 -19.0559
   -18.7155 -18.6045 -18.4732 -17.8224 -17.7227 -17.7176 -17.5069 -17.0551
   -16.2609 -16.2261 -15.1745 -14.9689 -14.7531 -14.6916 -14.6534 -14.1569
   -14.0522 -13.3206 -13.0151 -12.7930 -12.7177 -12.5799 -12.4989 -12.3989
   -11.3268 -11.1586 -10.7088 -10.5349 -10.2627 -10.1768 -10.1523  -9.9550
    -9.9151  -9.7701  -9.6162  -9.4386  -9.3882  -9.3089  -9.0980  -9.0698
    -9.0673  -9.0357  -8.9223  -8.8780  -8.8653  -8.7827  -8.2760  -8.1359
    -7.9201  -7.8922  -7.8684  -7.7156  -7.4227  -7.3896  -7.3248  -7.2205
    -6.7985  -6.3735  -6.2756  -6.1842  -6.1694  -6.1409  -5.7326  -5.4023
    -5.3774  -5.2225  -4.7372  -3.7604  -3.5589  -1.9700  -1.7419  -0.9461
    -0.5463  -0.2358  -0.2145  -0.1612   0.3609   0.4276   0.7390   0.7640
     0.7662   0.9816   1.1094   1.2510   1.3424   1.4083   1.4106   1.4800
     1.5104   1.5357   1.5742   1.8481   1.8766   1.8775   1.9349   2.1263
     2.1285   2.1344   2.3389   2.3407   2.4186   2.4213   2.4465   2.4916
     2.5907   2.6223   2.6582   2.7252   2.7961   2.8775   2.9592   2.9787
     3.0592   3.1474   3.1692   3.2226   3.2241   3.3133   3.3317   3.3460
     3.3791   3.4503   3.4650   3.4738   3.4749   3.5282   3.5300   3.5439
     3.6197   3.6329   3.7197   3.7313   3.7722   3.8293   3.8569   3.9285
     4.0053   4.0639   4.0934   4.1427   4.1692   4.1947   4.3421   4.4048
     4.4103   4.4170   4.4511   4.4964   4.5610   4.5631   4.5726   4.5982
     4.6191   4.6530   4.6541   4.6583   4.6585   4.6754   4.8820   5.0430
     5.0846   5.1399   5.1835   5.2619   5.2918   5.3156   5.3171   5.3772
     5.3914   5.4691   5.4903   5.5152   5.5446   5.5841   5.6017   5.6463
     5.6503   5.6551   5.6704   5.7111   5.7614   5.7885   5.8033   5.8395
     5.8610   5.8644   5.8704   5.9692   5.9759   5.9876   6.0128   6.0168
     6.0982   6.2025   6.2069   6.2231   6.3083   6.3384   6.3486   6.3511
     6.3579   6.4390   6.4532   6.4558   6.4983   6.5170   6.5445   6.5955
     6.6400   6.6647   6.6667   6.7137   6.7726   6.7968   6.8300   6.8364
     6.8537   6.8605   6.8926   6.9412   6.9827   7.0074   7.0383   7.0706
     7.0751   7.0766   7.1206   7.1216   7.1533   7.1700   7.1876   7.2130
     7.2227   7.2495   7.2780   7.2959   7.3126   7.3740   7.4076   7.4105
     7.4270   7.4328   7.5353   7.5447   7.5603   7.5861   7.5993   7.6239
     7.6724   7.7289   7.7631   7.7764   7.8206   7.8731   7.8767   7.8868
     7.8905   7.8924   7.9147   7.9253   7.9515   7.9633   7.9771   7.9870
     8.0010   8.0196   8.0249   8.0301   8.0456   8.1025   8.1029   8.1073
     8.1100   8.1556   8.1737   8.1840   8.1907   8.2900   8.3148   8.3331
     8.3523   8.3841   8.4024   8.4043   8.4736   8.4818   8.5406   8.5624
     8.5697   8.5919   8.6344   8.6813   8.7521   8.7997   8.8071   8.8461
     8.8698   8.9074   8.9388   8.9398   8.9587   9.0051   9.0190   9.0701
     9.0866   9.0912   9.1090   9.1231   9.1599   9.2487   9.2676   9.2833
     9.3493   9.3614   9.3733   9.4527   9.4630   9.4866   9.4873   9.5193
     9.5467   9.5698   9.5855   9.5910   9.6210   9.6367   9.6428   9.6784
     9.6888   9.7863   9.8567   9.8903   9.8926   9.8927   9.9010   9.9578
     9.9811   9.9994  10.0464  10.0731  10.1271  10.1639  10.1876  10.2590
    10.2803  10.3387  10.3775  10.4180  10.4603  10.4674  10.4794  10.5083
    10.5355  10.5676  10.6313  10.6749  10.6897  10.6972  10.7160  10.7260
    10.7767  10.8103  10.8111  10.8550  10.8659  10.8857  10.9124  10.9261
    10.9401  10.9496  10.9627  11.0297  11.0766  11.1047  11.1085  11.1237
    11.1513  11.1609  11.1774  11.1894  11.2244  11.2602  11.2864  11.3168
    11.3370  11.3594  11.3606  11.3791  11.4126  11.4298  11.4764  11.4861
    11.5069  11.5156  11.5400  11.5518  11.5728  11.5969  11.6299  11.6356
    11.6368  11.6871  11.6997  11.7101  11.7253  11.7580  11.7757  11.7940
    11.8153  11.8279  11.8284  11.8455  11.8773  11.8899  11.9095  11.9194
    11.9646  12.0022  12.0370  12.0669  12.0750  12.0831  12.1378  12.1585
    12.1710  12.1830  12.2008  12.2155  12.2357  12.3007  12.3596  12.3747
    12.3812  12.4003  12.4195  12.4335  12.4534  12.4720  12.4840  12.5531
    12.5800  12.6048  12.6148  12.6438  12.6525  12.7271  12.7435  12.7888
    12.7954  12.8478  12.8481  12.8772  12.9098  12.9108  12.9281  12.9405
    12.9590  12.9927  13.0042  13.0066  13.0275  13.0318  13.0496  13.0855
    13.1241  13.1542  13.1714  13.1889  13.1990  13.2001  13.2343  13.2419
    13.2503  13.2578  13.2634  13.3391  13.3411  13.3498  13.3690  13.3800
    13.4040  13.4047  13.4111  13.4351  13.4768  13.4825  13.4960  13.5293
    13.5757  13.5982  13.6331  13.6558

          k = 0.0000 0.0000 0.0018 ( 97369 PWs)   bands (ev):

   -21.8884 -21.1374 -21.0080 -20.9399 -20.3213 -20.0359 -19.5643 -19.0574
   -18.7278 -18.6069 -18.4559 -17.8233 -17.7756 -17.6646 -17.5065 -17.0548
   -16.2927 -16.1934 -15.1833 -14.9645 -14.7522 -14.7173 -14.6272 -14.1805
   -14.0278 -13.3284 -13.0143 -12.7898 -12.7166 -12.5793 -12.4952 -12.3965
   -11.3280 -11.1591 -10.7094 -10.5345 -10.2816 -10.1837 -10.1316  -9.9546
    -9.9248  -9.7546  -9.6209  -9.4426  -9.3877  -9.3155  -9.0976  -9.0787
    -9.0722  -9.0213  -8.9308  -8.8696  -8.8635  -8.7705  -8.2766  -8.1399
    -7.9288  -7.8833  -7.8641  -7.7159  -7.4220  -7.4061  -7.3127  -7.2169
    -6.8003  -6.3746  -6.2767  -6.2157  -6.1848  -6.0914  -5.7326  -5.4188
    -5.3748  -5.2098  -4.7365  -3.7726  -3.5466  -1.9832  -1.7290  -0.9466
    -0.5496  -0.2776  -0.1740  -0.1546   0.3613   0.4281   0.6870   0.7394
     0.8397   0.9820   1.1065   1.2507   1.3473   1.3863   1.4068   1.4921
     1.5219   1.5372   1.5784   1.8338   1.8486   1.9173   1.9391   2.0840
     2.1339   2.1725   2.3388   2.3412   2.3953   2.4211   2.4533   2.5094
     2.5911   2.5997   2.6815   2.7230   2.7970   2.8680   2.9637   2.9674
     3.0753   3.1230   3.1967   3.2177   3.2258   3.2843   3.3450   3.3652
     3.3764   3.4332   3.4462   3.4793   3.4859   3.5015   3.5509   3.5690
     3.5838   3.6722   3.7026   3.7226   3.7854   3.8339   3.8488   3.9408
     4.0000   4.0602   4.1000   4.1410   4.1649   4.2120   4.3277   4.3681
     4.4034   4.4574   4.4643   4.5004   4.5412   4.5493   4.5848   4.5966
     4.6002   4.6334   4.6561   4.6690   4.6861   4.7030   4.8845   5.0432
     5.0802   5.1041   5.1882   5.2448   5.2805   5.3062   5.3551   5.3802
     5.3988   5.4638   5.4914   5.5076   5.5383   5.5492   5.6056   5.6219
     5.6463   5.6733   5.7079   5.7220   5.7707   5.7749   5.7801   5.8542
     5.8660   5.8679   5.8886   5.9221   5.9723   5.9864   6.0154   6.0775
     6.0985   6.1832   6.2031   6.2515   6.2725   6.3296   6.3385   6.3570
     6.3609   6.4288   6.4541   6.4565   6.5062   6.5321   6.5745   6.5908
     6.6378   6.6670   6.6709   6.7030   6.7432   6.7913   6.8156   6.8299
     6.8580   6.8976   6.9114   6.9223   6.9287   7.0326   7.0447   7.0464
     7.0592   7.0817   7.1082   7.1311   7.1442   7.1777   7.2148   7.2225
     7.2342   7.2504   7.2903   7.2953   7.3267   7.3566   7.3590   7.4115
     7.4585   7.4789   7.5298   7.5309   7.5619   7.5935   7.6165   7.6222
     7.6796   7.7097   7.7591   7.7838   7.8090   7.8333   7.8403   7.8544
     7.8903   7.8935   7.9065   7.9250   7.9452   7.9729   7.9854   7.9881
     8.0178   8.0190   8.0350   8.0480   8.0684   8.0732   8.0925   8.1314
     8.1361   8.1734   8.1882   8.1975   8.2103   8.2909   8.2964   8.3415
     8.3558   8.3910   8.3993   8.4072   8.4717   8.4749   8.5482   8.5646
     8.5652   8.5922   8.6451   8.6593   8.7276   8.7954   8.8319   8.8395
     8.8829   8.8908   8.9215   8.9398   8.9674   9.0150   9.0389   9.0743
     9.0752   9.0904   9.1159   9.1223   9.1381   9.2095   9.2967   9.3201
     9.3349   9.3661   9.3810   9.4486   9.4489   9.4846   9.5053   9.5096
     9.5583   9.5671   9.5714   9.5839   9.5988   9.6518   9.6816   9.6831
     9.7054   9.7829   9.8241   9.8818   9.8891   9.9054   9.9059   9.9602
     9.9910  10.0025  10.0442  10.0718  10.1479  10.1654  10.1755  10.2522
    10.2634  10.3493  10.3744  10.4132  10.4444  10.4646  10.4876  10.5215
    10.5354  10.5735  10.6393  10.6758  10.6766  10.6937  10.7151  10.7213
    10.7691  10.7998  10.8061  10.8517  10.8575  10.8827  10.8915  10.9247
    10.9355  10.9688  11.0071  11.0239  11.0673  11.0856  11.1026  11.1143
    11.1389  11.1633  11.1921  11.2048  11.2157  11.2495  11.2982  11.3093
    11.3288  11.3431  11.3558  11.3732  11.3907  11.4198  11.4667  11.4845
    11.4950  11.5060  11.5183  11.5460  11.5704  11.6333  11.6362  11.6605
    11.6679  11.6743  11.6825  11.7083  11.7250  11.7547  11.7746  11.7815
    11.8323  11.8406  11.8454  11.8589  11.8719  11.8919  11.9137  11.9248
    11.9787  11.9971  12.0184  12.0362  12.0882  12.1023  12.1408  12.1453
    12.1686  12.1894  12.2149  12.2243  12.2516  12.3041  12.3348  12.3577
    12.3757  12.4009  12.4256  12.4492  12.4592  12.4663  12.4859  12.5645
    12.5783  12.6019  12.6112  12.6196  12.6590  12.7209  12.7591  12.7854
    12.8019  12.8144  12.8563  12.8749  12.8763  12.8918  12.8941  12.9411
    12.9478  12.9693  12.9877  13.0097  13.0163  13.0513  13.0809  13.1189
    13.1394  13.1428  13.1549  13.1764  13.2091  13.2150  13.2326  13.2524
    13.2581  13.2683  13.2906  13.2910  13.3194  13.3483  13.3779  13.3861
    13.4089  13.4113  13.4552  13.4620  13.4758  13.4833  13.5239  13.5330
    13.5663  13.6265  13.6345  13.6400

          k = 0.0000 0.0000 0.0035 ( 97403 PWs)   bands (ev):

   -21.8874 -21.1521 -21.0066 -20.9239 -20.3293 -20.0268 -19.5630 -19.0620
   -18.7610 -18.6075 -18.4148 -17.8401 -17.8152 -17.6112 -17.5041 -17.0541
   -16.3361 -16.1473 -15.2071 -14.9545 -14.7630 -14.7391 -14.5904 -14.2253
   -13.9803 -13.3502 -13.0139 -12.7799 -12.7133 -12.5772 -12.4844 -12.3894
   -11.3313 -11.1607 -10.7107 -10.5344 -10.3187 -10.2026 -10.0911  -9.9534
    -9.9430  -9.7190  -9.6345  -9.4542  -9.3871  -9.3323  -9.1161  -9.0862
    -9.0664  -9.0004  -8.9427  -8.8754  -8.8343  -8.7408  -8.2786  -8.1512
    -7.9444  -7.8672  -7.8521  -7.7166  -7.4386  -7.4200  -7.2950  -7.2046
    -6.8056  -6.3817  -6.2802  -6.2650  -6.1863  -6.0289  -5.7323  -5.4551
    -5.3727  -5.1795  -4.7342  -3.8029  -3.5161  -2.0162  -1.6969  -0.9479
    -0.5601  -0.3207  -0.1663  -0.1025   0.3626   0.4294   0.6074   0.7408
     0.9055   0.9833   1.1021   1.2496   1.3546   1.3606   1.3831   1.5156
     1.5416   1.5458   1.5928   1.7912   1.8499   1.9309   1.9721   2.0416
     2.1346   2.2175   2.3357   2.3426   2.3621   2.4205   2.4570   2.5402
     2.5730   2.5924   2.7149   2.7161   2.8005   2.8480   2.9347   2.9815
     3.0966   3.1073   3.2013   3.2281   3.2340   3.2605   3.3425   3.3635
     3.4013   3.4127   3.4200   3.4705   3.4950   3.4969   3.5346   3.5799
     3.6136   3.6722   3.7028   3.7194   3.7903   3.8403   3.8492   3.9676
     3.9902   4.0467   4.1184   4.1325   4.1791   4.2367   4.3000   4.3237
     4.3925   4.4884   4.4976   4.5066   4.5211   4.5274   4.5637   4.5847
     4.5935   4.6276   4.6720   4.6926   4.7249   4.7450   4.8915   5.0382
     5.0438   5.0659   5.1765   5.2183   5.2544   5.3016   5.3636   5.4173
     5.4195   5.4477   5.4793   5.4860   5.5129   5.5519   5.5810   5.5923
     5.6552   5.6918   5.7297   5.7389   5.7542   5.7687   5.8010   5.8259
     5.8737   5.8973   5.9051   5.9313   5.9687   5.9824   6.0164   6.0993
     6.1558   6.1677   6.2052   6.2131   6.2854   6.2856   6.3264   6.3590
     6.3650   6.4157   6.4496   6.4555   6.5471   6.5613   6.5722   6.6255
     6.6312   6.6672   6.6795   6.6820   6.7007   6.7817   6.8009   6.8342
     6.8578   6.8655   6.8721   6.9482   6.9512   6.9720   7.0217   7.0286
     7.0637   7.0742   7.0974   7.1661   7.1771   7.1884   7.1981   7.2418
     7.2466   7.2725   7.2827   7.3143   7.3144   7.3607   7.4058   7.4144
     7.4781   7.4829   7.5135   7.5524   7.5868   7.5930   7.6284   7.6356
     7.6932   7.6993   7.7283   7.7414   7.7649   7.7960   7.8208   7.8332
     7.8416   7.8734   7.9091   7.9285   7.9344   7.9344   7.9653   8.0135
     8.0328   8.0385   8.0482   8.0554   8.0951   8.1173   8.1288   8.1537
     8.1711   8.2021   8.2154   8.2280   8.2410   8.2919   8.3171   8.3226
     8.3730   8.3888   8.4020   8.4181   8.4667   8.4708   8.5435   8.5680
     8.5698   8.5851   8.6205   8.6720   8.7016   8.7868   8.8183   8.8314
     8.8661   8.9063   8.9065   8.9471   9.0013   9.0055   9.0401   9.0664
     9.0695   9.0900   9.1047   9.1286   9.1696   9.1738   9.3021   9.3380
     9.3426   9.3861   9.3949   9.4370   9.4439   9.4785   9.4916   9.5201
     9.5418   9.5477   9.5681   9.5979   9.6197   9.6657   9.6965   9.7262
     9.7525   9.7727   9.7776   9.8636   9.8842   9.9135   9.9155   9.9622
     9.9890  10.0088  10.0611  10.0812  10.1428  10.1660  10.1903  10.2325
    10.2328  10.3617  10.3617  10.4027  10.4173  10.4685  10.5034  10.5398
    10.5425  10.5790  10.6407  10.6666  10.6678  10.6843  10.7058  10.7232
    10.7577  10.7729  10.7898  10.8025  10.8405  10.8841  10.8965  10.9304
    10.9533  10.9741  10.9989  11.0523  11.0600  11.0665  11.0744  11.0965
    11.1453  11.1781  11.1853  11.1967  11.2181  11.2275  11.2656  11.2882
    11.2885  11.3333  11.3536  11.3585  11.3821  11.4071  11.4158  11.4686
    11.4891  11.5078  11.5197  11.5325  11.5518  11.6404  11.6408  11.6585
    11.6698  11.6804  11.7067  11.7267  11.7385  11.7568  11.7767  11.8067
    11.8244  11.8431  11.8521  11.8876  11.8917  11.8964  11.9097  11.9673
    11.9785  11.9930  12.0147  12.0371  12.0914  12.0975  12.1246  12.1313
    12.1733  12.2220  12.2488  12.2505  12.2635  12.3042  12.3104  12.3404
    12.3560  12.4008  12.4164  12.4596  12.4724  12.4764  12.4887  12.5404
    12.5833  12.5876  12.6015  12.6209  12.6673  12.7000  12.7456  12.7520
    12.7904  12.8015  12.8131  12.8274  12.8552  12.8616  12.8886  12.9389
    12.9464  12.9665  12.9739  13.0202  13.0316  13.0397  13.0506  13.0830
    13.0982  13.1602  13.1852  13.1919  13.2133  13.2227  13.2331  13.2627
    13.2774  13.2946  13.3181  13.3270  13.3370  13.3601  13.3619  13.3923
    13.4189  13.4566  13.4581  13.4792  13.5103  13.5184  13.5492  13.5547
    13.5819  13.6106  13.6503  13.6627

          k = 0.0000 0.0000 0.0053 ( 97401 PWs)   bands (ev):

   -21.8858 -21.1725 -21.0048 -20.9007 -20.3415 -20.0128 -19.5609 -19.0695
   -18.8062 -18.6023 -18.3628 -17.8926 -17.8192 -17.5666 -17.4935 -17.0530
   -16.3791 -16.0997 -15.2413 -14.9462 -14.7952 -14.7319 -14.5571 -14.2728
   -13.9272 -13.3828 -13.0173 -12.7630 -12.7070 -12.5729 -12.4681 -12.3777
   -11.3368 -11.1635 -10.7120 -10.5377 -10.3565 -10.2322 -10.0495  -9.9549
    -9.9515  -9.6811  -9.6515  -9.4726  -9.3879  -9.3535  -9.1384  -9.1075
    -9.0415  -8.9853  -8.9504  -8.8734  -8.7999  -8.7017  -8.2816  -8.1682
    -7.9612  -7.8496  -7.8341  -7.7179  -7.4751  -7.4165  -7.2848  -7.1819
    -6.8141  -6.4068  -6.2935  -6.2861  -6.1888  -5.9655  -5.7318  -5.4998
    -5.3718  -5.1420  -4.7302  -3.8422  -3.4764  -2.0596  -1.6550  -0.9500
    -0.5795  -0.3532  -0.1670  -0.0394   0.3648   0.4316   0.5274   0.7430
     0.9491   0.9854   1.1112   1.2461   1.3226   1.3536   1.3798   1.5325
     1.5494   1.5772   1.6181   1.7496   1.8523   1.9329   2.0014   2.0175
     2.1358   2.2608   2.3121   2.3450   2.3514   2.4195   2.4587   2.5241
     2.5945   2.5989   2.7036   2.7433   2.8095   2.8272   2.9050   2.9858
     3.0826   3.1396   3.1736   3.2313   3.2531   3.2704   3.3362   3.3403
     3.3754   3.4017   3.4516   3.4580   3.4930   3.4985   3.5067   3.5980
     3.6406   3.6607   3.6873   3.7669   3.7670   3.8375   3.8765   3.9818
     4.0006   4.0280   4.1293   4.1454   4.2004   4.2451   4.2788   4.2888
     4.3736   4.4844   4.4867   4.5081   4.5257   4.5291   4.5591   4.5867
     4.5885   4.6298   4.6890   4.7282   4.7677   4.7891   4.9000   4.9675
     5.0398   5.0435   5.1492   5.1911   5.2266   5.2838   5.3443   5.3998
     5.4514   5.4601   5.4674   5.4687   5.4887   5.5530   5.5592   5.5997
     5.6600   5.6847   5.7069   5.7250   5.7489   5.7817   5.7983   5.8721
     5.8826   5.9153   5.9416   5.9654   5.9714   5.9761   6.0185   6.0978
     6.1560   6.1649   6.1975   6.2266   6.2482   6.3079   6.3183   6.3572
     6.3699   6.4077   6.4526   6.4542   6.5300   6.5815   6.5872   6.6028
     6.6572   6.6616   6.6793   6.6934   6.7081   6.7592   6.7890   6.8180
     6.8238   6.8445   6.8621   6.9039   6.9541   6.9774   6.9887   7.0141
     7.0704   7.0831   7.1116   7.1418   7.1594   7.1864   7.2311   7.2475
     7.2719   7.2917   7.2973   7.3274   7.3527   7.3995   7.4126   7.4316
     7.4700   7.5116   7.5395   7.5397   7.5711   7.6124   7.6364   7.6432
     7.6735   7.6843   7.6960   7.7356   7.7378   7.7453   7.7924   7.8163
     7.8245   7.8594   7.8775   7.8884   7.9265   7.9602   7.9812   8.0171
     8.0317   8.0367   8.0403   8.0816   8.1410   8.1501   8.1762   8.2019
     8.2025   8.2225   8.2320   8.2641   8.2966   8.2994   8.3224   8.3570
     8.3828   8.3878   8.4122   8.4238   8.4607   8.4986   8.5101   8.5230
     8.5787   8.5971   8.6316   8.6731   8.7051   8.7724   8.7770   8.8115
     8.8689   8.8788   8.9227   8.9580   8.9688   8.9859   9.0220   9.0635
     9.0799   9.1021   9.1091   9.1742   9.1772   9.2081   9.3071   9.3139
     9.3291   9.3942   9.4257   9.4287   9.4444   9.4743   9.4848   9.4904
     9.5407   9.5513   9.5899   9.6047   9.6505   9.6771   9.7128   9.7556
     9.7643   9.7671   9.8124   9.8463   9.8800   9.9141   9.9233   9.9589
     9.9891  10.0038  10.0865  10.0987  10.1028  10.1691  10.2006  10.2037
    10.2271  10.3535  10.3577  10.3914  10.3989  10.4845  10.5137  10.5455
    10.5558  10.5782  10.6088  10.6261  10.6658  10.7034  10.7097  10.7292
    10.7326  10.7483  10.7655  10.7658  10.8220  10.8849  10.8888  10.8986
    10.9669  10.9836  10.9846  11.0048  11.0343  11.0634  11.0965  11.1154
    11.1350  11.1365  11.1736  11.1875  11.2039  11.2219  11.2298  11.2417
    11.2685  11.2882  11.3234  11.3571  11.3702  11.4172  11.4230  11.4457
    11.4500  11.5094  11.5199  11.5212  11.5870  11.5916  11.6368  11.6407
    11.6819  11.6920  11.7008  11.7270  11.7325  11.7833  11.7894  11.8056
    11.8139  11.8588  11.8660  11.8913  11.9241  11.9280  11.9462  11.9666
    11.9711  11.9963  12.0470  12.0632  12.0840  12.1038  12.1165  12.1282
    12.1905  12.2300  12.2448  12.2816  12.2817  12.3018  12.3249  12.3307
    12.3560  12.4033  12.4036  12.4254  12.4719  12.4845  12.4992  12.5445
    12.5569  12.5782  12.5900  12.6213  12.6438  12.6562  12.6587  12.7075
    12.7808  12.7942  12.8236  12.8356  12.8502  12.8635  12.8661  12.8945
    12.9309  12.9572  12.9723  12.9820  13.0214  13.0240  13.0413  13.0904
    13.1187  13.1513  13.1579  13.1680  13.1885  13.2103  13.2462  13.2770
    13.3190  13.3253  13.3569  13.3714  13.3804  13.3938  13.4045  13.4271
    13.4446  13.4704  13.4845  13.4908  13.5296  13.5440  13.5484  13.5620
    13.5927  13.5943  13.6527  13.6601

          k = 0.0000 0.0000 0.0071 ( 97445 PWs)   bands (ev):

   -21.8836 -21.1961 -21.0025 -20.8729 -20.3569 -19.9949 -19.5580 -19.0796
   -18.8568 -18.5923 -18.3056 -17.9481 -17.8198 -17.5445 -17.4610 -17.0517
   -16.4208 -16.0518 -15.2822 -14.9478 -14.8202 -14.7173 -14.5320 -14.3163
   -13.8721 -13.4224 -13.0267 -12.7407 -12.6965 -12.5660 -12.4475 -12.3617
   -11.3443 -11.1677 -10.7122 -10.5495 -10.3893 -10.2682 -10.0208  -9.9487
    -9.9481  -9.6894  -9.6315  -9.4928  -9.3942  -9.3724  -9.1566  -9.1336
    -9.0138  -8.9786  -8.9541  -8.8595  -8.7626  -8.6573  -8.2855  -8.1890
    -7.9784  -7.8319  -7.8118  -7.7200  -7.5123  -7.4116  -7.2823  -7.1517
    -6.8254  -6.4534  -6.2973  -6.2942  -6.1923  -5.9026  -5.7310  -5.5483
    -5.3714  -5.1031  -4.7242  -3.8855  -3.4326  -2.1076  -1.6092  -0.9528
    -0.6083  -0.3735  -0.1686   0.0258   0.3678   0.4346   0.4478   0.7462
     0.9561   0.9882   1.1490   1.2364   1.2940   1.3252   1.4025   1.5417
     1.5610   1.6137   1.6498   1.7103   1.8555   1.9286   1.9693   2.0641
     2.1371   2.2670   2.3112   2.3483   2.3572   2.4181   2.4576   2.4953
     2.5973   2.6434   2.6848   2.7576   2.8094   2.8280   2.8819   2.9734
     3.0826   3.1264   3.1843   3.2361   3.2548   3.2944   3.3025   3.3420
     3.3470   3.3998   3.4466   3.4490   3.4927   3.4972   3.5218   3.5953
     3.6120   3.6916   3.7091   3.7349   3.8146   3.8253   3.9123   3.9627
     4.0239   4.0370   4.1307   4.1778   4.2010   4.2361   4.2467   4.3039
     4.3507   4.4512   4.4611   4.4891   4.5251   4.5397   4.5825   4.5950
     4.6169   4.6347   4.7054   4.7699   4.8125   4.8333   4.8774   4.9290
     5.0020   5.0411   5.1168   5.1551   5.2047   5.2440   5.3358   5.3728
     5.4189   5.4399   5.4469   5.4511   5.5133   5.5385   5.5966   5.6265
     5.6339   5.6599   5.6725   5.7082   5.7566   5.8073   5.8352   5.8658
     5.8991   5.9442   5.9600   5.9773   5.9909   6.0051   6.0433   6.0792
     6.1235   6.1610   6.1699   6.2184   6.2990   6.3029   6.3292   6.3612
     6.3883   6.4083   6.4521   6.4584   6.4713   6.5718   6.5761   6.6054
     6.6360   6.6474   6.7158   6.7269   6.7367   6.7462   6.7656   6.7779
     6.8034   6.8241   6.8642   6.8876   6.9107   6.9591   7.0144   7.0163
     7.0570   7.0840   7.0990   7.1227   7.1367   7.1983   7.2528   7.2799
     7.2967   7.3128   7.3266   7.3634   7.3641   7.3965   7.4309   7.4348
     7.5034   7.5055   7.5304   7.5538   7.5825   7.5879   7.6064   7.6261
     7.6627   7.6801   7.6812   7.6876   7.7312   7.7587   7.7888   7.8111
     7.8296   7.8309   7.8476   7.8999   7.9327   7.9636   7.9822   8.0251
     8.0398   8.0476   8.0498   8.1009   8.1554   8.1587   8.1795   8.2306
     8.2417   8.2495   8.2863   8.3054   8.3106   8.3441   8.3587   8.3704
     8.3971   8.4050   8.4204   8.4432   8.4564   8.4771   8.4948   8.5408
     8.5972   8.6026   8.6381   8.6743   8.6960   8.7608   8.7667   8.8119
     8.8297   8.8763   8.8898   8.9158   8.9474   8.9725   9.0149   9.0346
     9.1106   9.1380   9.1431   9.1978   9.2184   9.2561   9.2836   9.3109
     9.3290   9.3737   9.4010   9.4164   9.4492   9.4536   9.4723   9.5244
     9.5374   9.5730   9.5879   9.6288   9.6569   9.6960   9.7305   9.7569
     9.7952   9.8020   9.8352   9.8736   9.8774   9.9034   9.9354   9.9580
     9.9878  10.0072  10.0538  10.0750  10.1219  10.1691  10.1763  10.1956
    10.2419  10.3223  10.3742  10.3851  10.3962  10.4955  10.5198  10.5483
    10.5501  10.5645  10.5771  10.5906  10.6357  10.6759  10.7148  10.7260
    10.7443  10.7488  10.7501  10.7641  10.8028  10.8271  10.8642  10.8915
    10.9411  10.9463  10.9687  11.0033  11.0246  11.0440  11.0630  11.1021
    11.1037  11.1307  11.1591  11.1749  11.1770  11.1970  11.2046  11.2249
    11.2547  11.2779  11.2904  11.3233  11.3823  11.3973  11.4208  11.4376
    11.4857  11.4914  11.5221  11.5237  11.5345  11.6044  11.6194  11.6338
    11.6581  11.6738  11.7267  11.7284  11.7400  11.7705  11.7747  11.7904
    11.8110  11.8645  11.8747  11.9084  11.9208  11.9462  11.9812  11.9973
    12.0142  12.0193  12.0332  12.0625  12.1050  12.1127  12.1461  12.1503
    12.2024  12.2406  12.2411  12.2620  12.2885  12.3077  12.3147  12.3528
    12.3674  12.3831  12.4214  12.4269  12.4704  12.4788  12.4861  12.5073
    12.5298  12.5464  12.5705  12.5947  12.6122  12.6218  12.6401  12.7074
    12.7656  12.7757  12.7968  12.8070  12.8253  12.8487  12.8972  12.9030
    12.9246  12.9288  12.9390  12.9744  12.9966  13.0402  13.0695  13.0718
    13.1284  13.1299  13.1414  13.1633  13.1676  13.2384  13.2537  13.2734
    13.3148  13.3343  13.3964  13.3985  13.4168  13.4238  13.4466  13.4666
    13.4688  13.4861  13.5007  13.5128  13.5363  13.5540  13.5581  13.5682
    13.5979  13.6042  13.6714  13.6787

          k = 0.0000 0.0000 0.0089 ( 97479 PWs)   bands (ev):

   -21.8807 -21.2212 -20.9998 -20.8421 -20.3746 -19.9741 -19.5542 -19.0923
   -18.9094 -18.5788 -18.2456 -18.0035 -17.8202 -17.5403 -17.4113 -17.0504
   -16.4607 -16.0039 -15.3276 -14.9648 -14.8317 -14.6977 -14.5224 -14.3479
   -13.8169 -13.4660 -13.0423 -12.7176 -12.6787 -12.5561 -12.4233 -12.3417
   -11.3537 -11.1734 -10.7108 -10.5729 -10.4192 -10.3018 -10.0120  -9.9452
    -9.9202  -9.7174  -9.6148  -9.4981  -9.4112  -9.3833  -9.1690  -9.1624
    -8.9935  -8.9705  -8.9548  -8.8355  -8.7234  -8.6104  -8.2899  -8.2123
    -7.9959  -7.8147  -7.7868  -7.7232  -7.5483  -7.4052  -7.2845  -7.1177
    -6.8391  -6.5101  -6.3046  -6.2881  -6.1968  -5.8416  -5.7296  -5.5975
    -5.3711  -5.0652  -4.7161  -3.9303  -3.3872  -2.1578  -1.5621  -0.9561
    -0.6444  -0.3829  -0.1710   0.0915   0.3694   0.3717   0.4385   0.7502
     0.9371   0.9919   1.2051   1.2163   1.2678   1.3052   1.4277   1.5475
     1.5772   1.6483   1.6687   1.6926   1.8598   1.9047   1.9592   2.1105
     2.1385   2.2333   2.3366   2.3525   2.3803   2.4163   2.4439   2.4804
     2.6008   2.6606   2.6881   2.7567   2.7947   2.8413   2.8833   2.9520
     3.0850   3.0887   3.2093   3.2429   3.2641   3.2700   3.2798   3.3321
     3.3730   3.3898   3.4228   3.4446   3.4903   3.4979   3.5564   3.5784
     3.5899   3.6999   3.7074   3.7596   3.8116   3.8654   3.9297   3.9505
     4.0368   4.0753   4.1281   4.1816   4.1941   4.2127   4.2682   4.3076
     4.3435   4.4160   4.4360   4.4563   4.5382   4.5457   4.5748   4.6304
     4.6410   4.6624   4.7211   4.8063   4.8204   4.8580   4.8733   4.9385
     4.9600   5.0315   5.0864   5.1036   5.1897   5.2076   5.3275   5.3355
     5.3782   5.4085   5.4203   5.4242   5.5145   5.5537   5.5976   5.6144
     5.6233   5.6461   5.6814   5.7054   5.8002   5.8215   5.8487   5.8627
     5.9060   5.9195   5.9613   6.0179   6.0196   6.0416   6.0458   6.0905
     6.1131   6.1402   6.1609   6.2425   6.2873   6.3106   6.3220   6.3862
     6.3903   6.4229   6.4434   6.4469   6.4708   6.5238   6.5584   6.6216
     6.6219   6.6309   6.6924   6.7087   6.7172   6.7561   6.7765   6.7901
     6.8060   6.8295   6.8588   6.8693   6.9267   6.9472   6.9859   7.0218
     7.0264   7.0666   7.0731   7.1611   7.1643   7.2041   7.2559   7.2833
     7.3100   7.3319   7.3384   7.3784   7.3930   7.4044   7.4203   7.4696
     7.4814   7.4831   7.4853   7.5437   7.5893   7.5995   7.6098   7.6132
     7.6316   7.6513   7.6960   7.6979   7.7316   7.7769   7.7832   7.7983
     7.8099   7.8404   7.8958   7.9279   7.9398   7.9491   7.9907   8.0241
     8.0452   8.0768   8.0772   8.1118   8.1351   8.1617   8.1869   8.2430
     8.2630   8.2690   8.3098   8.3171   8.3554   8.3761   8.3920   8.3988
     8.4091   8.4154   8.4349   8.4545   8.4678   8.4937   8.5304   8.5731
     8.5912   8.6171   8.6477   8.6581   8.7068   8.7590   8.7855   8.7958
     8.8136   8.8307   8.8629   8.8702   8.9127   8.9687   9.0000   9.0467
     9.1218   9.1699   9.1827   9.2293   9.2317   9.2717   9.3075   9.3099
     9.3481   9.3631   9.3632   9.3904   9.4315   9.4519   9.4596   9.5364
     9.5381   9.5616   9.6251   9.6514   9.6695   9.7086   9.7535   9.7696
     9.8330   9.8361   9.8421   9.8785   9.8969   9.9243   9.9588   9.9614
     9.9811  10.0115  10.0195  10.0359  10.1200  10.1383  10.1992  10.2114
    10.2512  10.2831  10.3579  10.3687  10.4415  10.4762  10.5135  10.5227
    10.5287  10.5513  10.5621  10.5870  10.6044  10.6350  10.6866  10.7210
    10.7424  10.7476  10.7484  10.7655  10.7851  10.8173  10.8307  10.8759
    10.8940  10.8984  10.9421  10.9583  11.0099  11.0252  11.0653  11.0721
    11.0763  11.1058  11.1125  11.1296  11.1424  11.1524  11.1970  11.2253
    11.2731  11.2864  11.3093  11.3197  11.3504  11.3739  11.4284  11.4352
    11.4635  11.4880  11.5051  11.5237  11.5426  11.5848  11.6095  11.6282
    11.6353  11.6462  11.6988  11.7181  11.7583  11.7712  11.7734  11.8022
    11.8163  11.8351  11.8652  11.9063  11.9209  11.9726  11.9801  12.0005
    12.0420  12.0532  12.0682  12.0875  12.1211  12.1251  12.1374  12.1766
    12.2169  12.2186  12.2615  12.2668  12.2803  12.2965  12.3050  12.3544
    12.3816  12.3881  12.3904  12.4368  12.4487  12.4515  12.4606  12.5008
    12.5137  12.5423  12.5684  12.5936  12.5949  12.6234  12.6274  12.6879
    12.7167  12.7174  12.7574  12.7952  12.8411  12.8521  12.8650  12.9062
    12.9120  12.9403  12.9496  12.9763  13.0245  13.0282  13.0450  13.0727
    13.1233  13.1254  13.1493  13.1644  13.1801  13.2462  13.2621  13.2677
    13.3257  13.3411  13.3892  13.3973  13.3980  13.4158  13.4734  13.4737
    13.4962  13.5226  13.5304  13.5445  13.5536  13.5632  13.5660  13.6006
    13.6186  13.6460  13.6551  13.6902

          k = 0.0000 0.0000 0.0106 ( 97473 PWs)   bands (ev):

   -21.8771 -21.2471 -20.9967 -20.8092 -20.3937 -19.9513 -19.5495 -19.1078
   -18.9617 -18.5626 -18.1841 -18.0583 -17.8207 -17.5420 -17.3562 -17.0494
   -16.4984 -15.9568 -15.3758 -14.9938 -14.8332 -14.6737 -14.5365 -14.3595
   -13.7636 -13.5100 -13.0630 -12.6982 -12.6521 -12.5426 -12.3961 -12.3183
   -11.3654 -11.1804 -10.7078 -10.6055 -10.4566 -10.3217 -10.0110  -9.9408
    -9.8945  -9.7383  -9.6330  -9.4738  -9.4323  -9.3914  -9.1926  -9.1753
    -8.9948  -8.9535  -8.9448  -8.8051  -8.6826  -8.5629  -8.2940  -8.2371
    -8.0137  -7.7993  -7.7603  -7.7279  -7.5812  -7.3972  -7.2896  -7.0821
    -6.8546  -6.5701  -6.3173  -6.2729  -6.2023  -5.7873  -5.7277  -5.6419
    -5.3707  -5.0302  -4.7054  -3.9756  -3.3413  -2.2088  -1.5153  -0.9600
    -0.6843  -0.3842  -0.1740   0.1539   0.2961   0.3765   0.4433   0.7552
     0.9064   0.9962   1.1880   1.2387   1.2633   1.2978   1.4556   1.5510
     1.5992   1.6286   1.6944   1.7268   1.8653   1.8700   1.9629   2.1325
     2.1587   2.2051   2.3455   2.3577   2.4141   2.4150   2.4259   2.4808
     2.6041   2.6330   2.7171   2.7589   2.7815   2.8404   2.9149   2.9293
     3.0500   3.0798   3.2099   3.2445   3.2469   3.2512   3.2876   3.3417
     3.3611   3.4018   3.4208   3.4479   3.4786   3.4968   3.5394   3.5773
     3.6138   3.6652   3.7073   3.8106   3.8191   3.8910   3.9164   3.9890
     4.0544   4.1073   4.1137   4.1522   4.1816   4.2472   4.2678   4.3086
     4.3618   4.3812   4.4092   4.4314   4.5395   4.5642   4.5667   4.6481
     4.6535   4.7106   4.7194   4.7751   4.8621   4.8760   4.9034   4.9492
     4.9516   5.0022   5.0475   5.0667   5.1802   5.1850   5.2679   5.3199
     5.3494   5.3757   5.3821   5.4041   5.4905   5.5594   5.5684   5.5910
     5.6205   5.6572   5.6909   5.7498   5.8078   5.8304   5.8395   5.8582
     5.9253   5.9349   5.9588   5.9956   6.0294   6.0359   6.0783   6.1154
     6.1356   6.1456   6.1994   6.2464   6.2693   6.3028   6.3152   6.3502
     6.4009   6.4089   6.4296   6.4714   6.4844   6.5100   6.5536   6.6054
     6.6097   6.6384   6.6425   6.6657   6.6960   6.7531   6.7763   6.8009
     6.8156   6.8753   6.8799   6.8935   6.9120   6.9250   6.9641   7.0022
     7.0318   7.0496   7.0894   7.1857   7.1951   7.2082   7.2692   7.2806
     7.2948   7.3102   7.3261   7.3638   7.3835   7.4029   7.4344   7.4463
     7.4626   7.4715   7.5178   7.5347   7.5554   7.5635   7.5931   7.6075
     7.6399   7.7038   7.7055   7.7406   7.7574   7.7657   7.7826   7.7955
     7.8422   7.8487   7.9185   7.9208   7.9762   7.9819   8.0200   8.0226
     8.0523   8.0737   8.1017   8.1130   8.1508   8.1592   8.1781   8.2429
     8.2582   8.2884   8.3087   8.3300   8.3631   8.3767   8.4026   8.4128
     8.4516   8.4581   8.4655   8.4956   8.5059   8.5429   8.5445   8.5759
     8.5809   8.6511   8.6639   8.6813   8.7375   8.7465   8.7601   8.7741
     8.8001   8.8208   8.8456   8.8531   8.8854   8.9735   8.9756   9.0638
     9.1408   9.1862   9.1907   9.2160   9.2433   9.2910   9.3154   9.3166
     9.3496   9.3586   9.3800   9.3872   9.4045   9.4555   9.4588   9.5403
     9.5445   9.5478   9.6403   9.6656   9.7065   9.7120   9.7631   9.7964
     9.8422   9.8609   9.8618   9.8920   9.9159   9.9438   9.9581   9.9686
     9.9941   9.9943  10.0227  10.0487  10.1097  10.1120  10.2079  10.2302
    10.2404  10.2756  10.3201  10.3643  10.4224  10.4524  10.4546  10.5239
    10.5297  10.5431  10.5555  10.5772  10.5914  10.6007  10.6455  10.6726
    10.7226  10.7407  10.7433  10.7549  10.7902  10.7983  10.8217  10.8442
    10.8614  10.8956  10.8974  10.9310  10.9470  11.0054  11.0228  11.0243
    11.0517  11.0761  11.0800  11.1053  11.1304  11.1507  11.1750  11.2097
    11.2663  11.2982  11.3015  11.3213  11.3676  11.3779  11.3963  11.4109
    11.4551  11.4858  11.5016  11.5196  11.5422  11.5529  11.5599  11.6151
    11.6248  11.6577  11.6723  11.7309  11.7400  11.7404  11.7639  11.8033
    11.8051  11.8643  11.8807  11.9048  11.9186  11.9301  11.9826  12.0136
    12.0527  12.0871  12.0935  12.1038  12.1280  12.1374  12.1407  12.1727
    12.1791  12.1860  12.2427  12.2521  12.2932  12.3139  12.3312  12.3539
    12.3616  12.3851  12.3977  12.4030  12.4180  12.4270  12.4798  12.5244
    12.5410  12.5469  12.5610  12.5719  12.6055  12.6075  12.6243  12.6553
    12.6706  12.7203  12.7498  12.7557  12.8147  12.8405  12.8870  12.9097
    12.9125  12.9453  12.9489  12.9573  13.0335  13.0437  13.0517  13.0806
    13.1188  13.1234  13.1574  13.1707  13.2065  13.2243  13.2566  13.2804
    13.3000  13.3520  13.3769  13.3923  13.4052  13.4220  13.4703  13.4815
    13.5034  13.5253  13.5429  13.5534  13.5760  13.5838  13.6189  13.6336
    13.6467  13.6477  13.6816  13.7118

          k = 0.0000 0.0000 0.0124 ( 97437 PWs)   bands (ev):

   -21.8729 -21.2732 -20.9931 -20.7748 -20.4136 -19.9270 -19.5440 -19.1270
   -19.0118 -18.5443 -18.1262 -18.1079 -17.8214 -17.5459 -17.2997 -17.0491
   -16.5337 -15.9113 -15.4252 -15.0282 -14.8304 -14.6468 -14.5706 -14.3540
   -13.7188 -13.5471 -13.0873 -12.6814 -12.6215 -12.5239 -12.3666 -12.2915
   -11.3794 -11.1881 -10.7064 -10.6400 -10.5065 -10.3250 -10.0113  -9.9357
    -9.8959  -9.7349  -9.6698  -9.4629  -9.4257  -9.4002  -9.2234  -9.1763
    -9.0030  -8.9507  -8.9146  -8.7711  -8.6407  -8.5169  -8.2969  -8.2627
    -8.0319  -7.7883  -7.7347  -7.7330  -7.6074  -7.3874  -7.2966  -7.0459
    -6.8718  -6.6310  -6.3322  -6.2545  -6.2087  -5.7543  -5.7372  -5.6546
    -5.3702  -4.9990  -4.6919  -4.0206  -3.2956  -2.2596  -1.4699  -0.9643
    -0.7246  -0.3800  -0.1776   0.1766   0.2641   0.3822   0.4490   0.7611
     0.8704   1.0011   1.1565   1.2072   1.2978   1.3146   1.4871   1.5491
     1.5996   1.6281   1.7302   1.7654   1.8359   1.8720   1.9708   2.1213
     2.1703   2.2202   2.3460   2.3638   2.3949   2.4115   2.4696   2.4874
     2.5963   2.6146   2.7027   2.7676   2.7941   2.8451   2.9090   2.9528
     3.0133   3.0646   3.1821   3.2063   3.2487   3.2562   3.3028   3.3420
     3.3614   3.4090   3.4282   3.4544   3.4830   3.4841   3.5184   3.5736
     3.6321   3.6589   3.6901   3.8487   3.8526   3.8627   3.9662   4.0257
     4.0697   4.0757   4.1135   4.1500   4.1951   4.2406   4.2782   4.3311
     4.3464   4.3757   4.3899   4.4204   4.5421   4.5483   4.5892   4.6220
     4.6557   4.7176   4.7615   4.7963   4.8331   4.9088   4.9366   4.9472
     4.9520   4.9906   5.0234   5.0503   5.1719   5.1749   5.2030   5.2755
     5.3161   5.3429   5.3658   5.3848   5.4629   5.5210   5.5556   5.5661
     5.6368   5.6746   5.7213   5.7288   5.7705   5.8292   5.8413   5.8855
     5.9524   5.9622   5.9700   5.9753   6.0115   6.0471   6.0984   6.1293
     6.1644   6.1690   6.2165   6.2485   6.2569   6.2799   6.3226   6.3439
     6.3629   6.4001   6.4325   6.4650   6.4701   6.5339   6.5453   6.5823
     6.5986   6.6170   6.6188   6.6765   6.6998   6.7466   6.7494   6.8190
     6.8302   6.8460   6.8812   6.9096   6.9365   6.9621   6.9808   6.9849
     7.0184   7.0609   7.1178   7.1618   7.2017   7.2476   7.2625   7.2786
     7.2793   7.2910   7.3017   7.3107   7.3482   7.3758   7.4238   7.4242
     7.4504   7.5048   7.5065   7.5208   7.5223   7.5786   7.6039   7.6420
     7.6454   7.7183   7.7201   7.7441   7.7759   7.7982   7.8203   7.8309
     7.8366   7.9048   7.9237   7.9253   7.9778   8.0173   8.0380   8.0592
     8.0685   8.0748   8.0870   8.1232   8.1565   8.1781   8.1841   8.2247
     8.2518   8.2663   8.3482   8.3494   8.3759   8.3954   8.4056   8.4248
     8.4535   8.4695   8.4970   8.5098   8.5260   8.5766   8.5895   8.5970
     8.6357   8.6392   8.6672   8.7328   8.7363   8.7440   8.7619   8.7666
     8.7910   8.8287   8.8355   8.8521   8.9108   8.9523   8.9855   9.0663
     9.1526   9.1628   9.1869   9.2204   9.2439   9.2880   9.2882   9.2963
     9.3520   9.3528   9.3871   9.4137   9.4307   9.4721   9.4873   9.5352
     9.5554   9.5593   9.6315   9.6737   9.6870   9.7547   9.7634   9.8174
     9.8238   9.8583   9.8888   9.9133   9.9470   9.9504   9.9603   9.9888
    10.0057  10.0085  10.0588  10.0771  10.1036  10.1042  10.1934  10.1968
    10.2453  10.2791  10.3020  10.3569  10.3863  10.3900  10.4117  10.4937
    10.4982  10.5314  10.5339  10.5694  10.5784  10.5962  10.6311  10.6480
    10.6741  10.7088  10.7227  10.7473  10.7786  10.8023  10.8085  10.8131
    10.8496  10.8655  10.8713  10.9063  10.9195  10.9518  10.9587  11.0132
    11.0202  11.0451  11.0803  11.0969  11.1053  11.1407  11.1624  11.2068
    11.2152  11.2876  11.2938  11.3126  11.3535  11.3667  11.4105  11.4231
    11.4293  11.4787  11.4850  11.5103  11.5169  11.5441  11.5463  11.5798
    11.6192  11.6423  11.6609  11.7101  11.7103  11.7236  11.7826  11.8032
    11.8080  11.8658  11.8786  11.8879  11.9084  11.9555  11.9808  12.0213
    12.0333  12.0624  12.0657  12.0826  12.0926  12.1330  12.1653  12.1665
    12.1775  12.2054  12.2309  12.2402  12.2940  12.3240  12.3251  12.3421
    12.3423  12.3718  12.3818  12.4014  12.4243  12.4677  12.4838  12.5111
    12.5154  12.5360  12.5507  12.5770  12.6150  12.6301  12.6430  12.6500
    12.6693  12.7117  12.7400  12.7710  12.7921  12.8257  12.9073  12.9096
    12.9169  12.9309  12.9339  12.9527  13.0369  13.0558  13.0643  13.1039
    13.1121  13.1281  13.1415  13.2038  13.2085  13.2159  13.2453  13.2772
    13.2873  13.3562  13.3835  13.3976  13.4249  13.4404  13.4523  13.4629
    13.5308  13.5371  13.5633  13.5686  13.5951  13.6005  13.6454  13.6478
    13.6806  13.6948  13.7251  13.7326

          k = 0.0000 0.0000 0.0142 ( 97443 PWs)   bands (ev):

   -21.8681 -21.2992 -20.9889 -20.7392 -20.4341 -19.9018 -19.5375 -19.1525
   -19.0563 -18.5247 -18.1676 -18.0567 -17.8223 -17.5505 -17.2432 -17.0497
   -16.5660 -15.8690 -15.4741 -15.0641 -14.8267 -14.6287 -14.6040 -14.3410
   -13.7026 -13.5571 -13.1136 -12.6649 -12.5925 -12.4980 -12.3355 -12.2617
   -11.3961 -11.1960 -10.7199 -10.6599 -10.5646 -10.3183 -10.0132  -9.9298
    -9.9257  -9.7302  -9.6884  -9.4858  -9.4095  -9.3819  -9.2542  -9.1731
    -9.0133  -8.9467  -8.8842  -8.7350  -8.5978  -8.4746  -8.2969  -8.2886
    -8.0505  -7.7881  -7.7412  -7.7057  -7.6230  -7.3758  -7.3048  -7.0096
    -6.8904  -6.6914  -6.3494  -6.2340  -6.2162  -5.7798  -5.7417  -5.6145
    -5.3694  -4.9724  -4.6753  -4.0649  -3.2508  -2.3097  -1.4268  -0.9696
    -0.7622  -0.3721  -0.1819   0.1171   0.3159   0.3887   0.4555   0.7678
     0.8312   1.0062   1.1246   1.1751   1.3013   1.3548   1.5219   1.5317
     1.5867   1.6659   1.7540   1.8043   1.8142   1.8804   1.9809   2.0973
     2.1652   2.2672   2.3348   2.3708   2.3853   2.4084   2.4891   2.5242
     2.5666   2.6168   2.6754   2.7514   2.8248   2.8678   2.8927   2.9644
     3.0057   3.0414   3.1479   3.1679   3.2527   3.2585   3.2847   3.3588
     3.3783   3.4043   3.4426   3.4515   3.4548   3.5113   3.5138   3.5763
     3.6048   3.6532   3.7181   3.8140   3.8881   3.9157   4.0121   4.0438
     4.0571   4.0645   4.0967   4.1815   4.1950   4.2306   4.3046   4.3118
     4.3372   4.3685   4.4087   4.4292   4.5239   4.5332   4.5704   4.6131
     4.6637   4.7366   4.7887   4.8125   4.8301   4.8675   4.9292   4.9544
     4.9874   5.0258   5.0357   5.0383   5.1310   5.1733   5.1740   5.2130
     5.2784   5.3112   5.3512   5.3763   5.4322   5.4826   5.5375   5.5496
     5.6403   5.6803   5.7029   5.7189   5.7646   5.7973   5.8235   5.9334
     5.9472   5.9759   5.9834   6.0109   6.0184   6.0684   6.0944   6.1420
     6.1506   6.2034   6.2116   6.2251   6.2461   6.2706   6.3150   6.3475
     6.3636   6.3983   6.4389   6.4408   6.4739   6.5124   6.5473   6.5483
     6.5884   6.5961   6.6275   6.7038   6.7120   6.7437   6.7520   6.7781
     6.8386   6.8731   6.8876   6.9043   6.9534   6.9671   6.9972   7.0236
     7.0384   7.0769   7.1370   7.1400   7.1608   7.2054   7.2354   7.2422
     7.2815   7.2838   7.3024   7.3258   7.3394   7.3430   7.3834   7.4100
     7.4269   7.4549   7.4919   7.5369   7.5557   7.5834   7.6506   7.6727
     7.6832   7.6928   7.6938   7.7935   7.7985   7.8197   7.8370   7.8552
     7.9076   7.9078   7.9413   7.9817   7.9844   8.0235   8.0285   8.0399
     8.0672   8.1018   8.1093   8.1501   8.1635   8.1792   8.1951   8.2294
     8.2719   8.2768   8.3383   8.3854   8.3879   8.4020   8.4240   8.4490
     8.4519   8.4654   8.4836   8.5315   8.5337   8.5620   8.5982   8.6265
     8.6658   8.6792   8.6968   8.7094   8.7469   8.7635   8.7846   8.7966
     8.8250   8.8461   8.8621   8.8724   8.9337   8.9614   9.0003   9.0621
     9.1298   9.1336   9.1796   9.2064   9.2381   9.2582   9.2696   9.2861
     9.3465   9.3725   9.3770   9.4193   9.4689   9.5014   9.5224   9.5597
     9.5743   9.5832   9.6253   9.6525   9.6559   9.7479   9.7814   9.7950
     9.8362   9.8847   9.9173   9.9335   9.9431   9.9705   9.9919  10.0109
    10.0143  10.0516  10.0540  10.0947  10.1156  10.1346  10.1651  10.1737
    10.2405  10.2517  10.2737  10.3279  10.3567  10.3673  10.4010  10.4218
    10.4422  10.4890  10.5200  10.5386  10.5707  10.5902  10.6090  10.6218
    10.6636  10.6781  10.6993  10.7181  10.7527  10.7826  10.7994  10.8082
    10.8271  10.8457  10.8687  10.8817  10.9037  10.9123  10.9132  10.9833
    11.0007  11.0590  11.0652  11.0659  11.0962  11.1222  11.1418  11.1603
    11.2192  11.2552  11.2654  11.3125  11.3375  11.3424  11.3761  11.3891
    11.4513  11.4724  11.4788  11.4814  11.5204  11.5360  11.5463  11.5466
    11.6111  11.6178  11.6562  11.6781  11.6999  11.7123  11.7734  11.7778
    11.8290  11.8415  11.8612  11.8886  11.9024  11.9420  11.9831  11.9954
    12.0020  12.0219  12.0573  12.0724  12.0793  12.0997  12.1392  12.1713
    12.2016  12.2304  12.2362  12.2448  12.2613  12.2764  12.3170  12.3266
    12.3484  12.3826  12.3959  12.4016  12.4221  12.4663  12.4695  12.4855
    12.5103  12.5403  12.5683  12.5817  12.6081  12.6127  12.6481  12.6775
    12.7088  12.7340  12.7693  12.7757  12.8024  12.8464  12.8708  12.8799
    12.9056  12.9228  12.9629  12.9866  13.0324  13.0593  13.0660  13.0812
    13.1091  13.1355  13.1771  13.1989  13.2129  13.2167  13.2533  13.2877
    13.2936  13.2941  13.4135  13.4256  13.4531  13.4531  13.4747  13.4953
    13.5406  13.5479  13.5815  13.5965  13.6073  13.6144  13.6239  13.6602
    13.6649  13.7522  13.7546  13.7729

          k = 0.0000 0.0000 0.0160 ( 97489 PWs)   bands (ev):

   -21.8627 -21.3249 -20.9843 -20.7027 -20.4546 -19.8762 -19.5302 -19.1871
   -19.0916 -18.5042 -18.2197 -17.9934 -17.8233 -17.5553 -17.1875 -17.0513
   -16.5949 -15.8331 -15.5192 -15.0995 -14.8233 -14.6693 -14.5810 -14.3265
   -13.7284 -13.5268 -13.1402 -12.6488 -12.5669 -12.4649 -12.3034 -12.2284
   -11.4160 -11.2033 -10.7549 -10.6603 -10.6230 -10.3072 -10.0235  -9.9615
    -9.9232  -9.7732  -9.6517  -9.5097  -9.4186  -9.3363  -9.2850  -9.1669
    -9.0247  -8.9418  -8.8541  -8.6978  -8.5541  -8.4393  -8.3143  -8.2913
    -8.0694  -7.8049  -7.7430  -7.6788  -7.6259  -7.3623  -7.3139  -6.9736
    -6.9108  -6.7503  -6.3688  -6.2246  -6.2124  -5.8302  -5.7389  -5.5575
    -5.3683  -4.9509  -4.6560  -4.1081  -3.2073  -2.3588  -1.3869  -0.9765
    -0.7944  -0.3615  -0.1871   0.0439   0.3832   0.3961   0.4628   0.7755
     0.7901   1.0107   1.0937   1.1433   1.3067   1.3838   1.5016   1.5570
     1.5879   1.7131   1.7409   1.8240   1.8478   1.8913   1.9910   2.0708
     2.1633   2.3102   2.3221   2.3787   2.3880   2.4049   2.4969   2.5344
     2.5749   2.6204   2.6457   2.7330   2.8386   2.8808   2.9103   2.9332
     3.0139   3.0442   3.1135   3.1299   3.2308   3.2651   3.2810   3.3585
     3.3735   3.4206   3.4291   3.4536   3.4647   3.5095   3.5271   3.5868
     3.5998   3.6260   3.7686   3.7778   3.9303   3.9697   3.9989   4.0288
     4.0697   4.0780   4.1102   4.1674   4.2072   4.2520   4.2782   4.3114
     4.3326   4.3850   4.4311   4.4562   4.4775   4.4880   4.5687   4.6361
     4.6715   4.7467   4.7540   4.7944   4.8639   4.8715   4.9054   4.9838
     5.0201   5.0291   5.0373   5.0723   5.0886   5.1459   5.1729   5.1788
     5.2437   5.2821   5.3233   5.3793   5.4000   5.4444   5.5184   5.5387
     5.6337   5.6416   5.6465   5.7348   5.7624   5.8022   5.8133   5.9119
     5.9384   5.9932   6.0040   6.0424   6.0544   6.0765   6.0972   6.1428
     6.1545   6.1873   6.1964   6.2191   6.2440   6.2500   6.2992   6.3457
     6.3706   6.3930   6.4113   6.4618   6.4915   6.5118   6.5160   6.5618
     6.5749   6.6119   6.6325   6.6571   6.7117   6.7402   6.7590   6.8297
     6.8595   6.8816   6.8949   6.8991   6.9634   6.9691   7.0149   7.0405
     7.0795   7.0914   7.0992   7.1236   7.1426   7.1500   7.1970   7.2262
     7.2316   7.2714   7.3076   7.3262   7.3284   7.3612   7.3708   7.4078
     7.4219   7.4319   7.4950   7.5250   7.5750   7.5949   7.6441   7.6648
     7.7083   7.7115   7.7411   7.7987   7.8213   7.8342   7.8604   7.9054
     7.9216   7.9279   7.9764   7.9815   7.9938   8.0084   8.0457   8.0719
     8.0824   8.1087   8.1136   8.1518   8.1768   8.1984   8.2341   8.2381
     8.2991   8.3285   8.3382   8.3662   8.3952   8.4192   8.4354   8.4384
     8.4687   8.4928   8.4934   8.5035   8.5522   8.5549   8.5803   8.6118
     8.6604   8.6932   8.7324   8.7650   8.7679   8.7869   8.8041   8.8460
     8.8601   8.8930   8.9141   8.9222   8.9354   9.0167   9.0198   9.0517
     9.0960   9.1019   9.1497   9.1784   9.2193   9.2373   9.2477   9.2970
     9.3477   9.3573   9.3968   9.4244   9.4872   9.5108   9.5412   9.5904
     9.5978   9.6094   9.6185   9.6333   9.6430   9.7496   9.7659   9.8318
     9.8515   9.8926   9.9403   9.9514   9.9519   9.9739   9.9853  10.0291
    10.0497  10.0535  10.0847  10.0909  10.1215  10.1428  10.1557  10.1865
    10.1960  10.2289  10.2562  10.2840  10.3182  10.3510  10.3842  10.3881
    10.4156  10.4572  10.4865  10.5087  10.5123  10.5538  10.5895  10.6221
    10.6437  10.6536  10.6726  10.6764  10.7234  10.7580  10.7748  10.7979
    10.8177  10.8357  10.8471  10.8779  10.8925  10.9109  10.9177  10.9635
    10.9702  11.0319  11.0373  11.0729  11.0823  11.0857  11.1125  11.1548
    11.2108  11.2128  11.2425  11.2862  11.3091  11.3211  11.3482  11.3577
    11.4336  11.4588  11.4654  11.4696  11.4931  11.5109  11.5167  11.5761
    11.6023  11.6364  11.6454  11.6686  11.6820  11.7012  11.7537  11.7560
    11.7694  11.7889  11.8282  11.8782  11.9033  11.9298  11.9691  11.9756
    12.0106  12.0232  12.0382  12.0596  12.0651  12.0974  12.1067  12.1656
    12.1705  12.2024  12.2164  12.2491  12.2512  12.2764  12.3063  12.3226
    12.3254  12.3738  12.3954  12.4031  12.4534  12.4635  12.4693  12.4821
    12.5307  12.5308  12.5633  12.5859  12.6104  12.6173  12.6428  12.6882
    12.7271  12.7559  12.7984  12.8029  12.8338  12.8339  12.8496  12.8868
    12.9304  12.9352  12.9745  13.0031  13.0231  13.0548  13.0776  13.0852
    13.1113  13.1341  13.1596  13.2051  13.2163  13.2415  13.2615  13.2704
    13.2967  13.3475  13.4278  13.4582  13.4623  13.4946  13.4977  13.5276
    13.5416  13.5570  13.5806  13.6011  13.6098  13.6141  13.6396  13.6784
    13.6880  13.7510  13.7708  13.7785

          k = 0.0000 0.0000 0.0177 ( 97425 PWs)   bands (ev):

   -21.8566 -21.3503 -20.9792 -20.6654 -20.4748 -19.8504 -19.5221 -19.2309
   -19.1174 -18.4838 -18.2701 -17.9310 -17.8236 -17.5598 -17.1348 -17.0525
   -16.6200 -15.8092 -15.5547 -15.1334 -14.8214 -14.7180 -14.5492 -14.3127
   -13.7747 -13.4792 -13.1648 -12.6336 -12.5430 -12.4271 -12.2710 -12.1914
   -11.4392 -11.2100 -10.7971 -10.6986 -10.6352 -10.2954 -10.0583  -9.9783
    -9.9158  -9.8230  -9.6129  -9.5275  -9.4265  -9.3153  -9.2921  -9.1584
    -9.0368  -8.9361  -8.8244  -8.6607  -8.5100  -8.4140  -8.3395  -8.2778
    -8.0881  -7.8339  -7.7431  -7.6528  -7.6183  -7.3468  -7.3231  -6.9380
    -6.9341  -6.8059  -6.3903  -6.2339  -6.1904  -5.8826  -5.7379  -5.4970
    -5.3667  -4.9343  -4.6344  -4.1498  -3.1653  -2.4063  -1.3509  -0.9864
    -0.8182  -0.3489  -0.1937  -0.0295   0.4043   0.4530   0.4711   0.7476
     0.7840   1.0117   1.0668   1.1127   1.3133   1.4044   1.4687   1.5893
     1.5939   1.7099   1.7674   1.8511   1.8900   1.9066   1.9931   2.0551
     2.1610   2.2946   2.3669   2.3875   2.3983   2.4010   2.5022   2.5050
     2.6134   2.6216   2.6290   2.7142   2.8483   2.8723   2.8940   2.9650
     2.9853   3.0751   3.0909   3.0925   3.1970   3.2739   3.2880   3.3282
     3.3705   3.3907   3.4467   3.4724   3.4834   3.5112   3.5191   3.5966
     3.6023   3.6346   3.7454   3.8205   3.9589   3.9789   3.9913   4.0242
     4.0834   4.1056   4.1186   4.1558   4.2229   4.2556   4.2699   4.2895
     4.3673   4.3748   4.4390   4.4420   4.4550   4.4951   4.5797   4.6578
     4.6782   4.6942   4.7327   4.7897   4.8551   4.9172   4.9254   4.9774
     4.9883   5.0411   5.0473   5.0705   5.0997   5.1404   5.1698   5.1873
     5.2149   5.2611   5.2932   5.3677   5.3819   5.4062   5.4997   5.5290
     5.5651   5.6105   5.6560   5.6678   5.7785   5.8178   5.8441   5.8705
     5.9256   5.9711   5.9977   6.0473   6.0894   6.1009   6.1253   6.1326
     6.1499   6.1710   6.1814   6.1937   6.2500   6.2660   6.2808   6.3344
     6.3512   6.3751   6.4318   6.4638   6.4754   6.5096   6.5628   6.5672
     6.5841   6.6077   6.6385   6.6436   6.7156   6.7420   6.7545   6.8542
     6.8669   6.9019   6.9085   6.9173   6.9701   6.9867   7.0077   7.0360
     7.0397   7.0687   7.0868   7.1076   7.1361   7.1712   7.1748   7.1754
     7.2136   7.2332   7.3116   7.3138   7.3315   7.3533   7.3935   7.4161
     7.4174   7.4860   7.5043   7.5114   7.5658   7.6097   7.6243   7.6459
     7.7285   7.7400   7.7684   7.8172   7.8272   7.8537   7.8820   7.8989
     7.9359   7.9491   7.9528   7.9809   8.0214   8.0598   8.0693   8.0868
     8.1102   8.1175   8.1476   8.1587   8.1992   8.2018   8.2414   8.2982
     8.3206   8.3211   8.3623   8.3898   8.4087   8.4188   8.4334   8.4417
     8.4615   8.4653   8.5184   8.5334   8.5657   8.5695   8.5755   8.6059
     8.6581   8.7189   8.7254   8.7371   8.8047   8.8451   8.8574   8.8969
     8.9139   8.9347   8.9577   8.9741   9.0025   9.0248   9.0418   9.0627
     9.0717   9.0717   9.1279   9.1569   9.1931   9.2041   9.2394   9.3107
     9.3134   9.3585   9.4169   9.4304   9.4806   9.4964   9.5526   9.5635
     9.5952   9.6259   9.6394   9.6450   9.7022   9.7683   9.7863   9.8566
     9.8630   9.8784   9.9450   9.9506   9.9671   9.9717   9.9777  10.0232
    10.0461  10.0665  10.0892  10.0948  10.1064  10.1350  10.1587  10.1632
    10.1932  10.2176  10.2396  10.2638  10.3120  10.3268  10.3365  10.3652
    10.4080  10.4216  10.4539  10.4910  10.4986  10.5063  10.5606  10.5982
    10.6213  10.6245  10.6571  10.6729  10.6907  10.6999  10.7218  10.7685
    10.7921  10.8211  10.8670  10.8862  10.8996  10.9229  10.9408  10.9488
    10.9499  11.0098  11.0105  11.0206  11.0675  11.0688  11.1178  11.1339
    11.1563  11.1918  11.2422  11.2439  11.2552  11.2928  11.3296  11.3563
    11.4021  11.4166  11.4432  11.4514  11.4649  11.5007  11.5015  11.5763
    11.6040  11.6155  11.6386  11.6531  11.6816  11.6885  11.6908  11.7005
    11.7487  11.7875  11.7984  11.8448  11.8663  11.9495  11.9496  11.9748
    11.9915  12.0088  12.0263  12.0410  12.0746  12.0856  12.1009  12.1220
    12.1582  12.1725  12.1772  12.2076  12.2394  12.2726  12.2875  12.3345
    12.3421  12.3688  12.3989  12.4143  12.4313  12.4544  12.4625  12.4968
    12.5368  12.5693  12.5802  12.5815  12.6106  12.6585  12.6623  12.6962
    12.7225  12.7558  12.7570  12.7978  12.8021  12.8556  12.9108  12.9204
    12.9552  12.9727  12.9840  13.0067  13.0249  13.0520  13.0744  13.0855
    13.1205  13.1535  13.1805  13.2125  13.2431  13.2627  13.2693  13.2870
    13.3149  13.4115  13.4323  13.4570  13.4756  13.4853  13.5062  13.5363
    13.5622  13.5724  13.5890  13.5922  13.6076  13.6441  13.6721  13.6830
    13.7225  13.7297  13.7880  13.7903

          k = 0.0000 0.0000 0.0195 ( 97457 PWs)   bands (ev):

   -21.8500 -21.3752 -20.9737 -20.6279 -20.4942 -19.8247 -19.5133 -19.2801
   -19.1367 -18.4657 -18.3169 -17.8755 -17.8178 -17.5636 -17.0949 -17.0444
   -16.6410 -15.8059 -15.5726 -15.1646 -14.8246 -14.7621 -14.5168 -14.3003
   -13.8279 -13.4320 -13.1828 -12.6201 -12.5182 -12.3881 -12.2383 -12.1503
   -11.4656 -11.2162 -10.8402 -10.7610 -10.6188 -10.2865 -10.1093  -9.9791
    -9.9076  -9.8738  -9.6016  -9.5187  -9.4309  -9.3451  -9.2505  -9.1481
    -9.0491  -8.9295  -8.7954  -8.6248  -8.4664  -8.3986  -8.3629  -8.2574
    -8.1054  -7.8686  -7.7442  -7.6281  -7.6040  -7.3318  -7.3295  -6.9629
    -6.9029  -6.8550  -6.4138  -6.2443  -6.1689  -5.9349  -5.7377  -5.4360
    -5.3643  -4.9223  -4.6115  -4.1898  -3.1253  -2.4519  -1.3197  -1.0003
    -0.8310  -0.3351  -0.2037  -0.0992   0.4134   0.4801   0.5236   0.7042
     0.7934   1.0018   1.0496   1.0851   1.3202   1.4196   1.4361   1.6018
     1.6176   1.6764   1.8209   1.8770   1.9305   1.9310   1.9795   2.0623
     2.1559   2.2805   2.3952   2.3957   2.3986   2.4311   2.4708   2.5130
     2.5857   2.6162   2.6801   2.6994   2.8530   2.8640   2.8652   2.9587
     3.0177   3.0458   3.0559   3.1299   3.1619   3.2826   3.2960   3.2969
     3.3434   3.3737   3.4422   3.4872   3.4925   3.5088   3.5429   3.5887
     3.6112   3.6808   3.7202   3.8701   3.9303   3.9546   4.0153   4.0694
     4.0844   4.0939   4.1263   4.1943   4.2007   4.2447   4.2752   4.3069
     4.3230   4.3802   4.4096   4.4532   4.4818   4.5391   4.5932   4.6163
     4.6803   4.6827   4.7249   4.8054   4.8214   4.9133   4.9415   4.9707
     4.9767   5.0075   5.0491   5.1012   5.1254   5.1510   5.1844   5.1934
     5.1962   5.2635   5.2702   5.3370   5.3678   5.3803   5.4805   5.4988
     5.5198   5.5898   5.6005   5.6674   5.7577   5.8044   5.8686   5.8799
     5.9064   5.9228   5.9941   6.0302   6.0745   6.0863   6.1326   6.1351
     6.1553   6.1585   6.2048   6.2120   6.2249   6.2586   6.2781   6.3150
     6.3751   6.3834   6.4309   6.4548   6.4675   6.5259   6.5474   6.5816
     6.5933   6.6218   6.6522   6.6779   6.7364   6.7545   6.7551   6.8271
     6.8746   6.8915   6.9113   6.9542   6.9643   6.9654   6.9750   7.0040
     7.0515   7.0616   7.0823   7.0969   7.1209   7.1457   7.1673   7.1692
     7.1778   7.2670   7.2954   7.3147   7.3341   7.3628   7.4108   7.4305
     7.4452   7.4987   7.5066   7.5568   7.5652   7.5826   7.6079   7.6728
     7.7229   7.7363   7.7937   7.8166   7.8208   7.8297   7.8847   7.9092
     7.9361   7.9471   7.9836   8.0220   8.0610   8.0784   8.0919   8.1114
     8.1123   8.1282   8.1741   8.1861   8.2128   8.2457   8.2574   8.2997
     8.3342   8.3463   8.3607   8.3754   8.4166   8.4421   8.4468   8.4668
     8.4781   8.4909   8.4935   8.5608   8.5819   8.5822   8.6115   8.6497
     8.6537   8.7032   8.7070   8.7782   8.8047   8.8703   8.8903   8.9472
     8.9567   8.9906   9.0027   9.0050   9.0274   9.0337   9.0593   9.0684
     9.0788   9.1005   9.1272   9.1670   9.1721   9.1797   9.2246   9.2753
     9.3259   9.3265   9.4285   9.4352   9.4502   9.4981   9.5460   9.5756
     9.5787   9.6395   9.6691   9.6907   9.7214   9.7905   9.8356   9.8399
     9.8795   9.8802   9.9156   9.9218   9.9800   9.9802   9.9819   9.9995
    10.0092  10.0587  10.0746  10.0777  10.0918  10.1267  10.1433  10.1781
    10.1939  10.2213  10.2302  10.2375  10.2637  10.2909  10.3475  10.3656
    10.3813  10.4112  10.4500  10.4646  10.4962  10.5044  10.5218  10.5677
    10.5967  10.6013  10.6408  10.6439  10.6537  10.6663  10.7042  10.7072
    10.7862  10.8206  10.8589  10.8692  10.8872  10.8950  10.9400  10.9453
    10.9621  11.0009  11.0097  11.0360  11.0486  11.0540  11.0859  11.0927
    11.1081  11.1861  11.1876  11.2099  11.2223  11.2735  11.3154  11.3579
    11.3613  11.3709  11.4102  11.4411  11.4420  11.4904  11.5027  11.5191
    11.5530  11.5679  11.6028  11.6235  11.6552  11.6616  11.6756  11.7301
    11.7422  11.7846  11.8191  11.8192  11.8373  11.8875  11.9290  11.9535
    11.9769  11.9833  12.0270  12.0544  12.0618  12.0632  12.0846  12.0905
    12.1179  12.1478  12.1717  12.1769  12.1925  12.2924  12.2959  12.3308
    12.3515  12.3676  12.3860  12.4064  12.4353  12.4616  12.4618  12.4898
    12.5115  12.5851  12.5904  12.6257  12.6493  12.6730  12.6784  12.7194
    12.7274  12.7341  12.7640  12.7882  12.7999  12.8665  12.9191  12.9282
    12.9307  12.9447  12.9872  13.0544  13.0614  13.0618  13.0940  13.1352
    13.1489  13.2048  13.2082  13.2486  13.2523  13.2830  13.2900  13.3210
    13.3455  13.3907  13.4238  13.4299  13.4931  13.4977  13.5228  13.5432
    13.5565  13.5689  13.5791  13.6104  13.6398  13.6536  13.6893  13.7138
    13.7504  13.7544  13.7758  13.8096

          k = 0.0000 0.0000 0.0213 ( 97423 PWs)   bands (ev):

   -21.8427 -21.3996 -20.9677 -20.5914 -20.5115 -19.7995 -19.5038 -19.3319
   -19.1519 -18.4565 -18.3533 -17.8514 -17.7820 -17.5660 -17.0877 -17.0079
   -16.6577 -15.8267 -15.5706 -15.1917 -14.8458 -14.7873 -14.4848 -14.2892
   -13.8837 -13.3976 -13.1853 -12.6087 -12.4910 -12.3507 -12.2050 -12.1053
   -11.4948 -11.2233 -10.8836 -10.8214 -10.5986 -10.2874 -10.1584  -9.9749
    -9.9246  -9.8986  -9.6203  -9.4895  -9.4244  -9.3744  -9.2131  -9.1361
    -9.0610  -8.9224  -8.7670  -8.5914  -8.4297  -8.3888  -8.3781  -8.2372
    -8.1178  -7.9058  -7.7468  -7.6049  -7.5868  -7.3388  -7.3106  -7.0010
    -6.8932  -6.8684  -6.4394  -6.2555  -6.1497  -5.9849  -5.7381  -5.3782
    -5.3584  -4.9145  -4.5883  -4.2277  -3.0877  -2.4953  -1.2937  -1.0179
    -0.8323  -0.3206  -0.2259  -0.1557   0.4233   0.4900   0.5943   0.6602
     0.8036   0.9791   1.0353   1.0697   1.3261   1.4061   1.4313   1.6108
     1.6423   1.6430   1.8625   1.8964   1.9441   1.9727   1.9861   2.0826
     2.1479   2.2735   2.3906   2.4081   2.4081   2.4418   2.4821   2.5183
     2.5614   2.6000   2.6937   2.7319   2.8222   2.8564   2.8712   2.9377
     3.0137   3.0201   3.0734   3.1270   3.1691   3.2634   3.2841   3.3004
     3.3244   3.3537   3.4227   3.4885   3.4894   3.5408   3.5432   3.6062
     3.6330   3.7056   3.7299   3.8829   3.9159   3.9383   4.0396   4.0544
     4.0734   4.1366   4.1419   4.1685   4.1992   4.2489   4.2703   4.2945
     4.3312   4.3385   4.4545   4.4705   4.5126   4.5389   4.5861   4.6080
     4.6852   4.6976   4.7275   4.7859   4.8176   4.8529   4.9032   4.9387
     5.0223   5.0399   5.0466   5.1185   5.1258   5.1647   5.1720   5.1788
     5.2469   5.2643   5.2901   5.3095   5.3284   5.3724   5.4380   5.4611
     5.5141   5.5350   5.5770   5.6788   5.7211   5.7611   5.8422   5.8798
     5.9115   5.9396   5.9503   6.0110   6.0310   6.0837   6.0923   6.1322
     6.1425   6.1689   6.2088   6.2282   6.2468   6.2506   6.2667   6.3350
     6.3738   6.3922   6.4324   6.4534   6.5090   6.5289   6.5396   6.5854
     6.6000   6.6464   6.6706   6.6853   6.7583   6.7704   6.8023   6.8047
     6.8400   6.8721   6.8760   6.9200   6.9470   6.9535   6.9742   6.9919
     7.0286   7.0413   7.0932   7.0942   7.1137   7.1314   7.1741   7.1793
     7.2021   7.2740   7.3083   7.3162   7.3317   7.3817   7.4316   7.4620
     7.4718   7.4959   7.5106   7.5448   7.5858   7.5912   7.6249   7.7011
     7.7092   7.7349   7.7455   7.8039   7.8049   7.8442   7.8762   7.8811
     7.9456   7.9836   8.0155   8.0532   8.0731   8.0928   8.1185   8.1209
     8.1322   8.1595   8.1894   8.2120   8.2205   8.2470   8.2865   8.2884
     8.3226   8.3798   8.3976   8.4187   8.4207   8.4561   8.4565   8.4601
     8.4822   8.5253   8.5650   8.5723   8.6040   8.6120   8.6614   8.6666
     8.6735   8.6914   8.7024   8.8071   8.8316   8.8686   8.8916   8.9269
     8.9813   8.9931   9.0164   9.0169   9.0563   9.0902   9.0925   9.1038
     9.1124   9.1258   9.1478   9.1592   9.1731   9.2033   9.2373   9.2414
     9.2766   9.3467   9.4273   9.4348   9.4449   9.5032   9.5497   9.5620
     9.5966   9.6648   9.6702   9.7286   9.7440   9.7462   9.8474   9.8490
     9.8650   9.8716   9.9161   9.9228   9.9414   9.9442   9.9846  10.0176
    10.0187  10.0384  10.0514  10.0669  10.0811  10.1016  10.1017  10.1618
    10.1897  10.2024  10.2031  10.2122  10.2644  10.2823  10.3543  10.3842
    10.3908  10.3987  10.4336  10.4418  10.5064  10.5140  10.5250  10.5358
    10.5428  10.5711  10.6021  10.6208  10.6258  10.6520  10.6792  10.7133
    10.7740  10.8239  10.8288  10.8362  10.8421  10.8716  10.9194  10.9524
    10.9584  10.9885  11.0105  11.0307  11.0313  11.0535  11.0623  11.0838
    11.0848  11.1413  11.1554  11.1570  11.2062  11.2555  11.3045  11.3198
    11.3447  11.3549  11.3916  11.3933  11.4106  11.4400  11.4670  11.4831
    11.5031  11.5340  11.5784  11.5839  11.6402  11.6660  11.6792  11.6928
    11.7262  11.7850  11.7942  11.8121  11.8731  11.8733  11.8792  11.9295
    11.9592  11.9624  11.9889  12.0092  12.0193  12.0350  12.0486  12.0851
    12.0963  12.1499  12.1636  12.1822  12.1965  12.2785  12.2988  12.3374
    12.3445  12.3525  12.3830  12.3913  12.4294  12.4368  12.4883  12.4961
    12.5386  12.5708  12.5841  12.6509  12.6685  12.6869  12.6907  12.7245
    12.7304  12.7537  12.7756  12.8065  12.8429  12.8650  12.9023  12.9036
    12.9210  12.9491  12.9986  13.0316  13.0921  13.1044  13.1433  13.1734
    13.2178  13.2264  13.2488  13.2522  13.3002  13.3053  13.3186  13.3589
    13.3610  13.3712  13.4007  13.4127  13.4915  13.4919  13.5128  13.5512
    13.5583  13.5740  13.6239  13.6393  13.6436  13.6710  13.6990  13.7385
    13.7511  13.7670  13.7915  13.7973

          k = 0.0000 0.0000 0.0231 ( 97421 PWs)   bands (ev):

   -21.8348 -21.4233 -20.9614 -20.5640 -20.5184 -19.7750 -19.4939 -19.3847
   -19.1640 -18.4707 -18.3652 -17.8516 -17.7241 -17.5661 -17.0960 -16.9606
   -16.6698 -15.8642 -15.5579 -15.2122 -14.8856 -14.7922 -14.4541 -14.2789
   -13.9405 -13.3869 -13.1627 -12.5994 -12.4609 -12.3172 -12.1703 -12.0567
   -11.5263 -11.2333 -10.9298 -10.8728 -10.5768 -10.3118 -10.1889  -9.9757
    -9.9673  -9.8889  -9.6475  -9.4757  -9.4030  -9.3929  -9.1823  -9.1225
    -9.0702  -8.9146  -8.7394  -8.5624  -8.4280  -8.3795  -8.3570  -8.2284
    -8.1182  -7.9439  -7.7505  -7.5833  -7.5700  -7.3423  -7.2907  -7.0487
    -6.9194  -6.8346  -6.4670  -6.2678  -6.1381  -6.0273  -5.7389  -5.3610
    -5.3121  -4.9102  -4.5659  -4.2631  -3.0526  -2.5362  -1.2729  -1.0371
    -0.8235  -0.3064  -0.2755  -0.1825   0.4341   0.5008   0.6155   0.6652
     0.8145   0.9514   1.0109   1.0716   1.3265   1.3833   1.4407   1.6084
     1.6225   1.6635   1.8895   1.8950   1.9406   2.0232   2.0311   2.1024
     2.1450   2.2738   2.3818   2.4139   2.4186   2.4239   2.5108   2.5346
     2.5536   2.5739   2.6966   2.7809   2.7884   2.8435   2.8843   2.9251
     2.9855   2.9860   3.0919   3.1291   3.1997   3.2309   3.2644   3.2940
     3.3303   3.3414   3.3950   3.4867   3.4942   3.5298   3.5675   3.6372
     3.6637   3.7076   3.7797   3.8530   3.8818   3.9817   4.0250   4.0318
     4.0821   4.1322   4.1347   4.1713   4.1878   4.2435   4.2450   4.3052
     4.3551   4.3652   4.4565   4.4926   4.5025   4.5468   4.6224   4.6329
     4.6898   4.7021   4.7363   4.7548   4.7915   4.8133   4.8591   4.9176
     5.0366   5.0627   5.0756   5.0993   5.1289   5.1393   5.1760   5.2214
     5.2654   5.2845   5.2942   5.2981   5.3197   5.3590   5.3938   5.4432
     5.4744   5.5139   5.5657   5.6716   5.6879   5.7138   5.8107   5.8562
     5.8638   5.9345   5.9703   5.9998   6.0120   6.0353   6.0786   6.0808
     6.1489   6.1816   6.2046   6.2295   6.2369   6.2773   6.2789   6.3300
     6.3695   6.3985   6.4647   6.4936   6.5232   6.5416   6.5517   6.5924
     6.6103   6.6600   6.6808   6.7015   6.7613   6.7624   6.7832   6.7903
     6.8027   6.8545   6.8822   6.9164   6.9179   6.9316   6.9615   6.9787
     7.0002   7.0233   7.0635   7.1018   7.1144   7.1488   7.1957   7.2210
     7.2536   7.2617   7.3042   7.3271   7.3477   7.4123   7.4456   7.4779
     7.4886   7.4906   7.5291   7.5471   7.5834   7.6094   7.6704   7.6782
     7.6877   7.7250   7.7567   7.7809   7.8003   7.8426   7.8500   7.8930
     7.9664   7.9774   7.9925   8.0802   8.1055   8.1081   8.1244   8.1262
     8.1687   8.1853   8.2043   8.2159   8.2169   8.2397   8.2631   8.3480
     8.3740   8.3888   8.4237   8.4353   8.4555   8.4590   8.4746   8.5099
     8.5138   8.5646   8.5836   8.6193   8.6263   8.6505   8.6534   8.6796
     8.7088   8.7183   8.7351   8.8190   8.8292   8.8862   8.8892   8.9325
     8.9607   8.9688   8.9985   9.0412   9.0619   9.0905   9.0983   9.1025
     9.1300   9.1602   9.1927   9.1987   9.2105   9.2229   9.2496   9.2671
     9.2999   9.3737   9.4144   9.4432   9.4544   9.5140   9.5346   9.5741
     9.6145   9.6213   9.6776   9.6970   9.7638   9.7763   9.7937   9.8031
     9.8397   9.8805   9.8972   9.9381   9.9443   9.9574   9.9730   9.9910
     9.9939  10.0132  10.0406  10.0692  10.0709  10.0764  10.0928  10.1207
    10.1484  10.1619  10.2133  10.2319  10.2732  10.3189  10.3194  10.3615
    10.3987  10.4090  10.4141  10.4549  10.4674  10.4837  10.5267  10.5370
    10.5439  10.5659  10.5708  10.6023  10.6038  10.6575  10.6644  10.7104
    10.7569  10.7833  10.8105  10.8125  10.8315  10.8526  10.8785  10.9505
    10.9579  10.9658  10.9790  10.9979  11.0159  11.0329  11.0413  11.0677
    11.0716  11.0969  11.1369  11.1637  11.2028  11.2294  11.2672  11.2815
    11.3096  11.3189  11.3651  11.3709  11.3826  11.4102  11.4256  11.4324
    11.4766  11.5307  11.5585  11.5604  11.6047  11.6253  11.6445  11.6918
    11.7224  11.7549  11.7746  11.8131  11.8347  11.8792  11.8978  11.9009
    11.9174  11.9237  11.9237  11.9794  12.0070  12.0118  12.0386  12.0605
    12.0929  12.1341  12.1851  12.1971  12.2020  12.2466  12.3046  12.3158
    12.3274  12.3378  12.3582  12.3907  12.4261  12.4641  12.4993  12.5172
    12.5503  12.5552  12.5762  12.6469  12.6791  12.6931  12.6953  12.7190
    12.7459  12.7471  12.7966  12.8539  12.8707  12.8810  12.9028  12.9272
    12.9530  12.9732  12.9986  13.0228  13.1073  13.1322  13.1650  13.2052
    13.2084  13.2435  13.2510  13.2820  13.3033  13.3108  13.3569  13.3572
    13.3980  13.3994  13.4157  13.4430  13.4660  13.5074  13.5299  13.5458
    13.5697  13.5878  13.6370  13.6407  13.6706  13.6743  13.6977  13.7272
    13.7528  13.7613  13.7953  13.8158

          k = 0.0000 0.0000 0.0248 ( 97397 PWs)   bands (ev):

   -21.8264 -21.4465 -20.9547 -20.5658 -20.4949 -19.7515 -19.4842 -19.4377
   -19.1731 -18.5070 -18.3538 -17.8574 -17.6654 -17.5615 -17.1091 -16.9143
   -16.6775 -15.9094 -15.5463 -15.2228 -14.9289 -14.7910 -14.4258 -14.2689
   -13.9974 -13.3982 -13.1171 -12.5918 -12.4283 -12.2887 -12.1341 -12.0050
   -11.5591 -11.2491 -10.9818 -10.9080 -10.5550 -10.3621 -10.1974 -10.0230
    -9.9603  -9.8785  -9.6770  -9.4751  -9.4309  -9.3450  -9.1612  -9.1111
    -9.0699  -8.9063  -8.7129  -8.5395  -8.4472  -8.3668  -8.3135  -8.2370
    -8.1029  -7.9817  -7.7551  -7.5635  -7.5566  -7.3402  -7.2705  -7.1024
    -6.9362  -6.8015  -6.4963  -6.2809  -6.1484  -6.0480  -5.7401  -5.3564
    -5.2536  -4.9090  -4.5453  -4.2958  -3.0205  -2.5743  -1.2570  -1.0559
    -0.8068  -0.3413  -0.2917  -0.1915   0.4458   0.5123   0.5708   0.7355
     0.8261   0.9230   0.9831   1.0803   1.3128   1.3761   1.4484   1.5770
     1.6326   1.6814   1.8711   1.9092   1.9539   2.0518   2.0951   2.1126
     2.1636   2.2803   2.3658   2.4049   2.4269   2.4338   2.4923   2.5423
     2.5571   2.5927   2.7046   2.7552   2.8213   2.8266   2.9017   2.9201
     2.9528   2.9651   3.0587   3.1748   3.1989   3.2069   3.2554   3.2760
     3.3354   3.3593   3.3652   3.4712   3.5024   3.5283   3.5883   3.6577
     3.7021   3.7325   3.8203   3.8284   3.8474   3.9817   4.0081   4.0393
     4.0756   4.0852   4.1005   4.1617   4.1863   4.2489   4.2605   4.3578
     4.3763   4.3920   4.3997   4.5070   4.5523   4.5826   4.6327   4.6688
     4.6738   4.7069   4.7274   4.7392   4.7493   4.7930   4.8417   4.9074
     5.0206   5.0391   5.0798   5.1126   5.1250   5.1492   5.2048   5.2386
     5.2401   5.2753   5.2951   5.3053   5.3479   5.3579   5.3851   5.4270
     5.4383   5.5174   5.5484   5.6211   5.6586   5.6977   5.7868   5.7959
     5.8272   5.9057   5.9416   5.9864   6.0076   6.0177   6.0548   6.0783
     6.1508   6.1675   6.2114   6.2143   6.2185   6.2806   6.2970   6.3525
     6.3718   6.4248   6.4845   6.5272   6.5285   6.5584   6.5713   6.6193
     6.6220   6.6655   6.6771   6.7089   6.7238   6.7368   6.7518   6.7822
     6.7858   6.8286   6.8777   6.8865   6.9092   6.9186   6.9445   6.9808
     7.0002   7.0430   7.0676   7.0816   7.1284   7.1552   7.2207   7.2351
     7.2577   7.3076   7.3133   7.3579   7.3616   7.4420   7.4531   7.4602
     7.4914   7.4915   7.5436   7.5797   7.6149   7.6158   7.6295   7.6876
     7.6921   7.7072   7.7469   7.7913   7.8322   7.8333   7.8382   7.8972
     7.9498   7.9801   7.9933   8.0664   8.0924   8.1110   8.1270   8.1345
     8.1565   8.1736   8.2006   8.2462   8.2658   8.2908   8.3188   8.3298
     8.4073   8.4449   8.4457   8.4536   8.4637   8.4834   8.5038   8.5489
     8.5878   8.5933   8.6101   8.6272   8.6545   8.6625   8.6868   8.6919
     8.7291   8.7702   8.7901   8.7919   8.8347   8.8893   8.9252   8.9424
[...]
     3.9016   4.1009   4.1010   4.1421   4.1865   4.3060   4.3446   4.4084
     4.4789   4.5245   4.5481   4.5762   4.6454   4.6783   4.6984   4.7270
     4.7435   4.7593   4.7617   4.8189   4.8527   4.8542   4.8760   4.9059
     4.9418   4.9778   4.9894   5.0327   5.0444   5.0691   5.0818   5.0978
     5.1044   5.1376   5.1836   5.2081   5.2788   5.3655   5.3973   5.4417
     5.4874   5.5038   5.5383   5.5988   5.6233   5.6724   5.6835   5.7108
     5.7451   5.7526   5.8279   5.8420   5.8549   5.9075   5.9819   6.0539
     6.0631   6.0812   6.1081   6.1556   6.1664   6.2313   6.2463   6.2967
     6.3444   6.3506   6.3577   6.3834   6.4799   6.4853   6.5546   6.5723
     6.6064   6.6574   6.7167   6.7169   6.7421   6.7698   6.8056   6.8348
     6.8597   6.8939   6.9282   6.9560   6.9677   6.9940   7.0171   7.0577
     7.0841   7.0871   7.0975   7.1308   7.1424   7.2053   7.2109   7.2361
     7.2461   7.2829   7.3426   7.3605   7.4002   7.4286   7.4623   7.4670
     7.5081   7.5299   7.5690   7.5764   7.6053   7.6381   7.6954   7.7484
     7.7665   7.8183   7.8324   7.8640   7.8941   7.9371   7.9566   7.9799
     8.0150   8.0844   8.0882   8.1095   8.1175   8.1507   8.1601   8.2374
     8.2447   8.2485   8.2928   8.3063   8.3573   8.3787   8.3895   8.4052
     8.4224   8.5016   8.5179   8.5285   8.5945   8.5948   8.6032   8.6227
     8.6415   8.6606   8.7097   8.7190   8.7903   8.8169   8.8240   8.8439
     8.8775   8.8954   8.9194   8.9330   8.9535   8.9619   8.9786   8.9993
     9.0308   9.0522   9.0818   9.1049   9.1339   9.1566   9.2007   9.2063
     9.2483   9.2661   9.2910   9.2914   9.3193   9.3675   9.3790   9.3919
     9.4213   9.4251   9.4588   9.4704   9.4796   9.5242   9.5862   9.5954
     9.6152   9.6300   9.6369   9.6415   9.6883   9.7121   9.7243   9.7331
     9.7410   9.7559   9.7911   9.8056   9.8304   9.8339   9.8851   9.9020
     9.9401   9.9888  10.0008  10.0080  10.0627  10.0757  10.1151  10.1187
    10.1299  10.1561  10.1760  10.1811  10.2070  10.2137  10.2179  10.2493
    10.2698  10.2921  10.3184  10.3326  10.3445  10.3566  10.3764  10.4004
    10.4045  10.4174  10.4201  10.4548  10.5130  10.5942  10.5966  10.6367
    10.6683  10.6733  10.6775  10.7183  10.7275  10.7732  10.7923  10.8111
    10.8327  10.8557  10.8733  10.8734  10.8989  10.9046  10.9314  10.9619
    10.9647  11.0052  11.0196  11.0250  11.0579  11.0701  11.0981  11.0995
    11.1155  11.1291  11.1678  11.1857  11.1925  11.1974  11.2292  11.2889
    11.3034  11.3214  11.3372  11.3731  11.3916  11.4053  11.4246  11.4536
    11.5719  11.5948  11.6559  11.6599  11.6732  11.7048  11.7481  11.7581
    11.8327  11.8675  11.8850  11.8912  11.9350  11.9552  12.0045  12.0051
    12.0459  12.1121  12.1414  12.1904  12.2212  12.2346  12.2502  12.2736
    12.3135  12.3386  12.3692  12.4118  12.4265  12.4768  12.5096  12.5132
    12.5414  12.5427  12.6042  12.6075  12.6398  12.6575  12.6788  12.6930
    12.7575  12.7695  12.8159  12.8304  12.8634  12.9093  12.9476  12.9480
    12.9707  12.9947  13.0761  13.1101  13.1152  13.1468  13.1660  13.2192
    13.2365  13.2585  13.3412  13.3677  13.3942  13.4300  13.4470  13.4690
    13.4870  13.5346  13.5523  13.5640  13.6021  13.6477  13.6657  13.6868
    13.7120  13.7242  13.7765  13.7833  13.8002  13.8141  13.8547  13.8670
    13.8876  13.9119  13.9401  13.9500

          k = 0.0000 0.0000 0.0408 ( 97406 PWs)   bands (ev):

   -21.7373 -21.6109 -20.8963 -20.6830 -20.1029 -19.9070 -19.6028 -19.4578
   -19.0637 -18.9069 -18.1553 -17.9713 -17.5606 -17.2470 -17.0579 -16.8001
   -16.7356 -16.0266 -15.8402 -15.1766 -14.9194 -14.7433 -14.5472 -14.3092
   -14.0708 -13.6468 -12.5755 -12.5158 -12.3313 -12.0712 -11.8948 -11.7598
   -11.7081 -11.3701 -11.3468 -11.0420 -10.7430 -10.5657 -10.2623 -10.1165
    -9.9390  -9.8769  -9.7635  -9.6359  -9.4767  -9.2348  -9.0787  -8.8913
    -8.8425  -8.8294  -8.6705  -8.6020  -8.5258  -8.4077  -8.2714  -8.1299
    -7.8970  -7.8508  -7.8274  -7.6331  -7.6272  -7.4559  -7.2026  -7.0650
    -6.8162  -6.7783  -6.5851  -6.5368  -6.4410  -5.9192  -5.7674  -5.3031
    -4.9671  -4.8498  -4.5007  -4.4476  -2.8473  -2.7910  -1.1816  -1.0759
    -0.8800  -0.5686  -0.3209  -0.0460   0.2063   0.5836   0.6443   0.6882
     0.7583   0.9803   1.0707   1.2238   1.2962   1.3185   1.4496   1.5194
     1.6075   1.6739   1.7833   1.8707   2.0828   2.0979   2.1215   2.2044
     2.2541   2.3261   2.3939   2.4543   2.4901   2.5790   2.5891   2.6367
     2.6804   2.6816   2.7110   2.7128   2.7810   2.7950   2.8288   2.8380
     2.9258   2.9861   3.0252   3.0779   3.1284   3.1614   3.1894   3.3124
     3.4123   3.4281   3.4604   3.4893   3.5563   3.5823   3.6162   3.6642
     3.6815   3.7177   3.7391   3.7393   3.8024   3.8140   3.8573   3.8635
     3.9016   4.0486   4.1091   4.1371   4.1983   4.3596   4.3622   4.3954
     4.4786   4.5084   4.5263   4.5948   4.6276   4.6587   4.7084   4.7514
     4.7518   4.7770   4.8136   4.8176   4.8660   4.8784   4.8931   4.9227
     4.9295   4.9516   4.9988   5.0094   5.0444   5.0622   5.0686   5.1021
     5.1146   5.1208   5.1412   5.2167   5.2581   5.3175   5.3794   5.3945
     5.4887   5.5277   5.5301   5.5496   5.6458   5.6860   5.7157   5.7322
     5.7552   5.7740   5.8476   5.8987   5.9007   5.9046   5.9917   6.0052
     6.0378   6.0654   6.0736   6.1237   6.1313   6.2045   6.2300   6.2459
     6.3052   6.3593   6.3688   6.3689   6.4621   6.4928   6.5789   6.6154
     6.6236   6.6678   6.7152   6.7168   6.7613   6.7901   6.8047   6.8278
     6.8706   6.8706   6.9150   6.9350   6.9853   6.9956   7.0276   7.0627
     7.1027   7.1062   7.1283   7.1467   7.1681   7.1999   7.2059   7.2159
     7.2392   7.2815   7.3175   7.3365   7.3816   7.4072   7.4095   7.4846
     7.5183   7.5370   7.5792   7.6063   7.6095   7.6442   7.7152   7.7332
     7.7497   7.8216   7.8323   7.8735   7.9426   7.9726   7.9841   7.9984
     8.0303   8.0358   8.0816   8.0890   8.1140   8.1605   8.1798   8.2453
     8.2589   8.2985   8.3164   8.3484   8.3575   8.3805   8.4182   8.4242
     8.4487   8.4629   8.5167   8.5190   8.5309   8.5823   8.5885   8.6205
     8.6477   8.6533   8.6938   8.7099   8.7692   8.7872   8.8309   8.8403
     8.8553   8.9036   8.9113   8.9176   8.9591   8.9782   9.0076   9.0424
     9.0545   9.0941   9.1166   9.1276   9.1436   9.1676   9.1867   9.1954
     9.2390   9.2685   9.2937   9.3295   9.3473   9.3551   9.3700   9.3917
     9.4099   9.4301   9.4692   9.4777   9.5356   9.5629   9.5887   9.5895
     9.5971   9.6163   9.6497   9.6625   9.6678   9.6928   9.7135   9.7274
     9.7589   9.7711   9.7865   9.7901   9.8405   9.8616   9.8773   9.8842
     9.8936   9.9525   9.9838   9.9889  10.0420  10.0578  10.0838  10.0844
    10.1506  10.1527  10.1571  10.2181  10.2279  10.2385  10.2400  10.2700
    10.2841  10.3005  10.3073  10.3223  10.3307  10.3445  10.3612  10.3762
    10.4142  10.4180  10.4324  10.4593  10.5344  10.5627  10.5736  10.6361
    10.6442  10.6596  10.6852  10.7123  10.7202  10.7530  10.7769  10.7875
    10.7875  10.8134  10.8536  10.8580  10.8874  10.9164  10.9414  10.9527
    10.9805  10.9855  11.0220  11.0359  11.0741  11.0841  11.1046  11.1062
    11.1320  11.1478  11.1614  11.1650  11.1953  11.2093  11.2134  11.2268
    11.2859  11.3103  11.3282  11.3285  11.3538  11.4221  11.4423  11.4561
    11.5572  11.5584  11.6269  11.6634  11.6778  11.7345  11.7457  11.8068
    11.8333  11.8666  11.8672  11.8736  11.9397  11.9581  11.9893  11.9939
    12.0877  12.0964  12.1307  12.1905  12.1960  12.2355  12.2596  12.2849
    12.3301  12.3406  12.3507  12.4182  12.4585  12.4654  12.4712  12.5198
    12.5601  12.5697  12.5869  12.5908  12.6058  12.6250  12.6706  12.7375
    12.7558  12.7664  12.8018  12.8289  12.8313  12.8969  12.9164  12.9367
    12.9698  13.0200  13.0654  13.1056  13.1154  13.1503  13.1800  13.2087
    13.2176  13.2721  13.3401  13.3857  13.4039  13.4132  13.4652  13.5093
    13.5099  13.5427  13.5456  13.5942  13.6050  13.6774  13.7003  13.7062
    13.7136  13.7367  13.7732  13.8049  13.8248  13.8379  13.8567  13.8863
    13.8955  13.9318  13.9495  13.9553

          k = 0.0000 0.0000 0.0426 ( 97406 PWs)   bands (ev):

   -21.7314 -21.6188 -20.8937 -20.6873 -20.0566 -19.9550 -19.5977 -19.4597
   -19.0345 -18.9426 -18.1441 -17.9801 -17.5587 -17.2525 -17.0072 -16.8376
   -16.7363 -15.9890 -15.8869 -15.1824 -14.8965 -14.7300 -14.5834 -14.3101
   -14.0597 -13.6591 -12.5697 -12.4639 -12.3686 -12.0602 -11.8669 -11.7662
   -11.7386 -11.3855 -11.2818 -11.1126 -10.7051 -10.6055 -10.2551 -10.1142
    -9.9493  -9.8763  -9.7545  -9.6472  -9.4755  -9.2398  -9.0766  -8.8842
    -8.8257  -8.7945  -8.7048  -8.6078  -8.5385  -8.3901  -8.2908  -8.1198
    -7.8844  -7.8364  -7.7961  -7.6836  -7.6400  -7.4526  -7.2040  -7.0373
    -6.8429  -6.7400  -6.6286  -6.5124  -6.4628  -5.9134  -5.7695  -5.3002
    -4.9711  -4.8345  -4.5015  -4.4532  -2.8340  -2.8059  -1.1793  -1.0588
    -0.9131  -0.5578  -0.3261  -0.0298   0.1852   0.5984   0.6541   0.6738
     0.7433   1.0012   1.0472   1.2424   1.2974   1.3339   1.4363   1.5402
     1.5844   1.6650   1.7996   1.8515   2.0975   2.1069   2.1227   2.1783
     2.2432   2.3244   2.4143   2.4642   2.4772   2.6109   2.6115   2.6571
     2.6605   2.6838   2.7086   2.7291   2.7519   2.7591   2.7963   2.8577
     2.9164   3.0271   3.0626   3.0976   3.1158   3.1662   3.2215   3.2324
     3.3489   3.4774   3.4910   3.5160   3.5336   3.5569   3.6220   3.6539
     3.6746   3.6893   3.7383   3.7553   3.8033   3.8299   3.8446   3.8777
     3.9404   3.9885   4.0536   4.1624   4.2391   4.3496   4.3996   4.4136
     4.4550   4.4925   4.5309   4.5795   4.6011   4.6598   4.7367   4.7552
     4.7589   4.8110   4.8252   4.8323   4.8803   4.8855   4.9107   4.9171
     4.9207   4.9437   5.0029   5.0170   5.0380   5.0389   5.0480   5.0661
     5.1130   5.1553   5.1628   5.1702   5.2662   5.2997   5.3414   5.3932
     5.4630   5.4879   5.5395   5.5711   5.6469   5.6947   5.7193   5.7275
     5.8055   5.8206   5.8504   5.9276   5.9409   5.9410   5.9516   5.9655
     6.0238   6.0460   6.0820   6.0842   6.0982   6.1926   6.1970   6.2211
     6.2842   6.3523   6.3672   6.3869   6.4412   6.5010   6.5878   6.6374
     6.6625   6.6827   6.7070   6.7147   6.7751   6.8058   6.8093   6.8164
     6.8319   6.8704   6.8998   6.9296   7.0014   7.0117   7.0354   7.0567
     7.1231   7.1236   7.1306   7.1645   7.1795   7.1809   7.1923   7.2454
     7.2635   7.2687   7.2977   7.3328   7.3513   7.3741   7.3762   7.4485
     7.5150   7.5589   7.6093   7.6137   7.6445   7.6739   7.7080   7.7382
     7.7568   7.8243   7.8274   7.8768   7.8891   7.9340   8.0135   8.0294
     8.0457   8.0656   8.0661   8.1106   8.1287   8.1713   8.1794   8.2581
     8.2795   8.3013   8.3361   8.3443   8.3710   8.3784   8.3913   8.4596
     8.4624   8.4854   8.5019   8.5178   8.5222   8.5496   8.5904   8.6369
     8.6487   8.6660   8.6762   8.6889   8.7197   8.7437   8.7820   8.8450
     8.8469   8.8913   8.9317   8.9523   8.9774   9.0068   9.0286   9.0705
     9.0720   9.1142   9.1235   9.1267   9.1346   9.1551   9.1801   9.2289
     9.2567   9.2705   9.2888   9.3082   9.3106   9.3840   9.3863   9.3984
     9.4201   9.4440   9.4711   9.5178   9.5415   9.5526   9.5706   9.5916
     9.5923   9.6173   9.6538   9.6611   9.6799   9.7011   9.7106   9.7300
     9.7566   9.7601   9.7928   9.8179   9.8497   9.8590   9.8746   9.8994
     9.9049   9.9315   9.9388   9.9393  10.0107  10.0200  10.0758  10.0771
    10.1055  10.1498  10.1686  10.2298  10.2355  10.2448  10.2567  10.2567
    10.2807  10.2898  10.2936  10.3242  10.3454  10.3642  10.3907  10.4060
    10.4420  10.4547  10.4657  10.4893  10.5267  10.5320  10.5818  10.5952
    10.6024  10.6155  10.6611  10.6697  10.7129  10.7227  10.7434  10.7838
    10.7988  10.8105  10.8286  10.8602  10.8979  10.9009  10.9354  10.9780
    10.9800  11.0004  11.0405  11.0425  11.0704  11.0878  11.1033  11.1170
    11.1242  11.1365  11.1608  11.1818  11.1884  11.2111  11.2153  11.2407
    11.2667  11.2841  11.2911  11.3179  11.3466  11.4272  11.4393  11.4720
    11.4869  11.5475  11.6608  11.6675  11.6815  11.7217  11.7650  11.7826
    11.8424  11.8625  11.8827  11.9161  11.9375  11.9548  11.9792  11.9901
    12.0463  12.1084  12.1484  12.1507  12.1937  12.2337  12.2678  12.3109
    12.3246  12.3409  12.3668  12.4145  12.4464  12.4761  12.4891  12.5210
    12.5408  12.5714  12.5763  12.5765  12.6086  12.6145  12.6430  12.7464
    12.7652  12.7915  12.7923  12.8146  12.8213  12.8855  12.9043  12.9161
    12.9569  13.0265  13.0815  13.1135  13.1317  13.1538  13.1647  13.1955
    13.2166  13.2867  13.3247  13.3630  13.4248  13.4339  13.4620  13.4632
    13.5206  13.5800  13.5940  13.6173  13.6259  13.6841  13.7069  13.7152
    13.7417  13.7436  13.7745  13.8132  13.8364  13.8424  13.8634  13.8875
    13.9209  13.9215  13.9401  13.9686

          k = 0.0000 0.0000-0.0444 ( 97398 PWs)   bands (ev):

   -21.7292 -21.6216 -20.8928 -20.6887 -20.0215 -19.9907 -19.5960 -19.4604
   -19.0170 -18.9622 -18.1401 -17.9833 -17.5580 -17.2543 -16.9829 -16.8580
   -16.7362 -15.9614 -15.9175 -15.1843 -14.8884 -14.7226 -14.5987 -14.3104
   -14.0558 -13.6634 -12.5686 -12.4151 -12.4118 -12.0570 -11.8448 -11.7915
   -11.7377 -11.3913 -11.2385 -11.1572 -10.6807 -10.6305 -10.2524 -10.1133
    -9.9531  -9.8760  -9.7510  -9.6514  -9.4751  -9.2414  -9.0758  -8.8819
    -8.8244  -8.7564  -8.7385  -8.6098  -8.5425  -8.3823  -8.2992  -8.1163
    -7.8789  -7.8407  -7.7467  -7.7335  -7.6424  -7.4515  -7.2045  -7.0261
    -6.8538  -6.7169  -6.6534  -6.4945  -6.4798  -5.9114  -5.7702  -5.2991
    -4.9725  -4.8292  -4.5017  -4.4553  -2.8221  -2.8184  -1.1786  -1.0505
    -0.9267  -0.5540  -0.3280  -0.0236   0.1773   0.6053   0.6544   0.6712
     0.7372   1.0190   1.0285   1.2534   1.2856   1.3505   1.4282   1.5617
     1.5622   1.6616   1.8091   1.8411   2.1006   2.1103   2.1309   2.1636
     2.2392   2.3238   2.4276   2.4519   2.4825   2.6222   2.6311   2.6362
     2.6755   2.6953   2.7079   2.7221   2.7340   2.7603   2.7744   2.8679
     2.9072   3.0356   3.0929   3.1078   3.1439   3.1550   3.1630   3.2770
     3.2921   3.4921   3.5133   3.5293   3.5336   3.5636   3.5724   3.6593
     3.6766   3.6793   3.7360   3.7651   3.8079   3.8271   3.8348   3.9264
     3.9266   3.9868   4.0076   4.1716   4.2622   4.3330   4.4160   4.4340
     4.4422   4.4829   4.5360   4.5552   4.6012   4.6595   4.7443   4.7616
     4.7723   4.8066   4.8337   4.8544   4.8582   4.8925   4.8988   4.9100
     4.9579   4.9649   4.9786   4.9926   5.0267   5.0404   5.0568   5.0776
     5.0905   5.1276   5.1972   5.2038   5.2224   5.2796   5.3795   5.3927
     5.4109   5.4875   5.5425   5.5834   5.6423   5.7073   5.7122   5.7210
     5.8322   5.8611   5.8750   5.8955   5.8969   5.9549   5.9769   5.9810
     6.0189   6.0311   6.0618   6.0689   6.1061   6.1706   6.1894   6.2181
     6.2777   6.3487   6.3678   6.3975   6.4297   6.5039   6.5911   6.6432
     6.6704   6.7027   6.7131   6.7141   6.7639   6.8043   6.8132   6.8177
     6.8191   6.8679   6.8923   6.9284   7.0049   7.0295   7.0363   7.0528
     7.1198   7.1310   7.1360   7.1563   7.1753   7.1857   7.2187   7.2239
     7.2802   7.2904   7.2919   7.3281   7.3361   7.3454   7.3678   7.4327
     7.5146   7.5695   7.6022   7.6155   7.6637   7.6855   7.7340   7.7503
     7.7679   7.8103   7.8253   7.8368   7.8776   7.9225   8.0310   8.0406
     8.0427   8.0580   8.0712   8.1324   8.1378   8.1760   8.2101   8.2503
     8.2919   8.3015   8.3173   8.3238   8.3395   8.3940   8.4139   8.4557
     8.4799   8.4934   8.5114   8.5157   8.5205   8.5501   8.6229   8.6323
     8.6474   8.6525   8.6628   8.6802   8.6837   8.7354   8.7622   8.8420
     8.8474   8.8834   8.9426   8.9792   8.9940   9.0066   9.0453   9.0759
     9.0863   9.0876   9.1177   9.1207   9.1238   9.1628   9.2206   9.2372
     9.2653   9.2678   9.2717   9.2932   9.2960   9.3673   9.4040   9.4114
     9.4445   9.4566   9.5039   9.5094   9.5293   9.5373   9.5404   9.5770
     9.6091   9.6221   9.6350   9.6770   9.6921   9.6933   9.7247   9.7486
     9.7611   9.7859   9.8062   9.8106   9.8366   9.8448   9.8537   9.8638
     9.9018   9.9400   9.9744   9.9762   9.9844  10.0010  10.0046  10.0753
    10.1087  10.1543  10.1741  10.2246  10.2304  10.2561  10.2585  10.2610
    10.2753  10.2813  10.2823  10.3149  10.3360  10.3672  10.4309  10.4487
    10.4793  10.4854  10.5054  10.5144  10.5171  10.5274  10.5341  10.5609
    10.5710  10.6066  10.6097  10.6317  10.7247  10.7412  10.7465  10.7643
    10.7964  10.8160  10.8224  10.8780  10.8814  10.8896  10.9438  10.9575
    11.0150  11.0254  11.0255  11.0424  11.0845  11.0959  11.1034  11.1043
    11.1165  11.1275  11.1453  11.1692  11.1897  11.2331  11.2378  11.2406
    11.2512  11.2762  11.3021  11.3139  11.3456  11.4063  11.4297  11.4477
    11.5000  11.5431  11.6721  11.6754  11.6994  11.7158  11.7290  11.8116
    11.8189  11.8592  11.8987  11.9230  11.9578  11.9725  11.9888  11.9893
    12.0085  12.0552  12.1612  12.1864  12.2043  12.2284  12.2404  12.3080
    12.3319  12.3349  12.3814  12.4325  12.4475  12.4663  12.5032  12.5173
    12.5360  12.5547  12.5566  12.5827  12.6084  12.6098  12.6549  12.7328
    12.7596  12.7970  12.7976  12.8111  12.8487  12.8736  12.8824  12.9166
    12.9421  13.0318  13.1003  13.1124  13.1430  13.1642  13.1720  13.1749
    13.1926  13.2976  13.3120  13.3951  13.4104  13.4351  13.4421  13.4578
    13.5194  13.6016  13.6076  13.6351  13.6518  13.6688  13.7088  13.7197
    13.7434  13.7484  13.7776  13.8234  13.8376  13.8582  13.8652  13.8793
    13.8862  13.9233  13.9557  13.9564

     the Fermi energy is    -2.8096 ev

     Writing output data file C_3Z_1A_W7.save/

     init_run     :     12.64s CPU     12.94s WALL (       1 calls)
     electrons    :   7342.68s CPU   7429.02s WALL (       1 calls)

     Called by init_run:
     wfcinit      :      0.00s CPU      0.00s WALL (       1 calls)
     potinit      :      0.87s CPU      0.96s WALL (       1 calls)
     hinit0       :      9.36s CPU      9.39s WALL (       1 calls)

     Called by electrons:
     c_bands      :   7342.67s CPU   7428.81s WALL (       1 calls)
     v_of_rho     :      0.67s CPU      0.71s WALL (       1 calls)
     newd         :      0.47s CPU      0.61s WALL (       1 calls)

     Called by c_bands:
     init_us_2    :      0.30s CPU      0.37s WALL (      26 calls)
     cegterg      :   7201.80s CPU   7278.80s WALL (     108 calls)

     Called by sum_band:

     Called by *egterg:
     h_psi        :   1801.78s CPU   1832.49s WALL (    2068 calls)
     s_psi        :    141.39s CPU    142.41s WALL (    2068 calls)
     g_psi        :     10.61s CPU     10.72s WALL (    1934 calls)
     cdiaghg      :   3117.14s CPU   3128.99s WALL (    1960 calls)

     Called by h_psi:
     h_psi:pot    :   1787.52s CPU   1812.89s WALL (    2068 calls)
     h_psi:calbec :    134.19s CPU    136.11s WALL (    2068 calls)
     vloc_psi     :   1520.18s CPU   1542.70s WALL (    2068 calls)
     add_vuspsi   :    133.12s CPU    134.07s WALL (    2068 calls)

     General routines
     calbec       :    134.18s CPU    136.09s WALL (    2068 calls)
     fft          :      0.70s CPU      0.75s WALL (      14 calls)
     ffts         :      0.01s CPU      0.01s WALL (       1 calls)
     fftw         :   1200.63s CPU   1218.71s WALL (  547130 calls)
     interpolate  :      0.05s CPU      0.05s WALL (       1 calls)
     davcio       :      0.00s CPU      6.45s WALL (      52 calls)

     Parallel routines
     fft_scatt_xy :    213.70s CPU    215.97s WALL (  547145 calls)
     fft_scatt_yz :    217.08s CPU    222.25s WALL (  547145 calls)

     PWSCF        :     2h 2m CPU        2h 2m WALL

       8h

   This run was terminated on:  19:45:31  17May2021            

=------------------------------------------------------------------------------=
   JOB DONE.
=------------------------------------------------------------------------------=
