
     Program PWSCF v.6.3 starts on 28Apr2021 at 23:15: 2 

     This program is part of the open-source Quantum ESPRESSO suite
     for quantum simulation of materials; please cite
         "P. Giannozzi et al., J. Phys.:Condens. Matter 21 395502 (2009);
         "P. Giannozzi et al., J. Phys.:Condens. Matter 29 465901 (2017);
          URL http://www.quantum-espresso.org", 
     in publications or presentations arising from this work. More details at
     http://www.quantum-espresso.org/quote

     Parallel version (MPI), running on    16 processors
     R & G space division:  proc/nbgrp/npool/nimage =      16
     Waiting for input...
     Reading input from standard input
     Message from routine read_cards :
     DEPRECATED: no units specified in CELL_PARAMETERS card

     Current dimensions of program PWSCF are:
     Max number of different atomic species (ntypx) = 10
     Max number of k-points (npk) =  40000
     Max angular momentum in pseudopotentials (lmaxx) =  3

     Atomic positions and unit cell read from directory:
     /home/zfwang/scratch/GNRDATASET/AGNR/C_3Z_1A_W9/C_3Z_1A_W9.save/


     Subspace diagonalization in iterative solution of the eigenvalue problem:
     a serial algorithm will be used


     Parallelization info
     --------------------
     sticks:   dense  smooth     PW     G-vecs:    dense   smooth      PW
     Min        2556     852    223               253239    48726    6533
     Max        2558     853    224               253241    48729    6536
     Sum       40909   13645   3583              4051833   779641  104545



     bravais-lattice index     =            0
     lattice parameter (alat)  =       1.8897  a.u.
     unit-cell volume          =   22816.1189 (a.u.)^3
     number of atoms/cell      =           56
     number of atomic types    =            2
     number of electrons       =       194.00
     number of Kohn-Sham states=          500
     kinetic-energy cutoff     =      40.0000  Ry
     charge density cutoff     =     480.0000  Ry
     Exchange-correlation      = PBE ( 1  4  3  4 0 0)

     celldm(1)=  18.897261  celldm(2)=   3.000000  celldm(3)=   1.127000
     celldm(4)=   0.000000  celldm(5)=   0.000000  celldm(6)=   0.000000

     crystal axes: (cart. coord. in units of alat)
               a(1) = (  10.000000   0.000000   0.000000 )  
               a(2) = (   0.000000  30.000000   0.000000 )  
               a(3) = (   0.000000   0.000000  11.270000 )  

     reciprocal axes: (cart. coord. in units 2 pi/alat)
               b(1) = (  0.100000  0.000000  0.000000 )  
               b(2) = (  0.000000  0.033333  0.000000 )  
               b(3) = (  0.000000  0.000000  0.088731 )  


     PseudoPot. # 1 for C  read from file:
     /home/zfwang/hp_home/MySoftware/qe-6.3/pseudo/C.pbe-n-rrkjus_psl.0.1.UPF
     MD5 check sum: fff530ed632a789b3b184014e67dd7f1
     Pseudo is Ultrasoft + core correction, Zval =  4.0
     Generated using "atomic" code by A. Dal Corso v.5.0.2 svn rev. 9415
     Using radial grid of 1073 points,  4 beta functions with: 
                l(1) =   0
                l(2) =   0
                l(3) =   1
                l(4) =   1
     Q(r) pseudized with 0 coefficients 


     PseudoPot. # 2 for H  read from file:
     /home/zfwang/hp_home/MySoftware/qe-6.3/pseudo/H.pbe-rrkjus_psl.0.1.UPF
     MD5 check sum: e164a6907b691c6980f16942be34de84
     Pseudo is Ultrasoft, Zval =  1.0
     Generated using "atomic" code by A. Dal Corso v.5.0.2 svn rev. 9415
     Using radial grid of  929 points,  2 beta functions with: 
                l(1) =   0
                l(2) =   0
     Q(r) pseudized with 0 coefficients 


     atomic species   valence    mass     pseudopotential
        C              4.00    12.01070     C ( 1.00)
        H              1.00     1.00794     H ( 1.00)

     No symmetry found



   Cartesian axes

     site n.     atom                  positions (alat units)
         1           C   tau(   1) = (   4.9999971  10.0895809   8.6544390  )
         2           C   tau(   2) = (   4.9999977  10.1216978   4.9511935  )
         3           C   tau(   3) = (   4.9999963  11.4776018   8.9695488  )
         4           C   tau(   4) = (   4.9999970   9.6434978   7.3633528  )
         5           C   tau(   5) = (   4.9999988  11.0653378   0.1401366  )
         6           C   tau(   6) = (   4.9999979  11.0275810   3.8753218  )
         7           C   tau(   7) = (   4.9999948  12.4179954   7.9106556  )
         8           C   tau(   8) = (   4.9999971  12.4415484   4.1522891  )
         9           C   tau(   9) = (   4.9999959  13.8283023   8.1814496  )
        10           C   tau(  10) = (   4.9999962  10.5585678   6.2734757  )
        11           C   tau(  11) = (   4.9999974  11.9460183  10.3349614  )
        12           C   tau(  12) = (   4.9999997  10.5957895   2.5415633  )
        13           C   tau(  13) = (   4.9999950  11.9655252   6.5616865  )
        14           C   tau(  14) = (   4.9999973  13.3647488  10.5942359  )
        15           C   tau(  15) = (   4.9999982  13.3714260   3.0828255  )
        16           C   tau(  16) = (   4.9999968  14.7577214   7.1151104  )
        17           C   tau(  17) = (   4.9999996  14.7726821   3.3519564  )
        18           C   tau(  18) = (   4.9999987  16.1648645   7.3841138  )
        19           C   tau(  19) = (   4.9999990  11.5039442   1.4764378  )
        20           C   tau(  20) = (   4.9999964  12.8979848   5.4939053  )
        21           C   tau(  21) = (   4.9999968  14.2959528   9.5256637  )
        22           C   tau(  22) = (   4.9999982  12.9159349   1.7422708  )
        23           C   tau(  23) = (   4.9999970  14.3007904   5.7670485  )
        24           C   tau(  24) = (   4.9999991  15.7042973   9.7941444  )
        25           C   tau(  25) = (   5.0000007  15.6994490   2.2827865  )
        26           C   tau(  26) = (   5.0000009  17.0842981   6.3075989  )
        27           C   tau(  27) = (   5.0000029  18.5226535  10.3502221  )
        28           C   tau(  28) = (   5.0000027  17.1022477   2.5559547  )
        29           C   tau(  29) = (   5.0000027  18.4962921   6.5733759  )
        30           C   tau(  30) = (   5.0000046  19.9106700  10.6656039  )
        31           C   tau(  31) = (   4.9999990  13.8353635   0.6656725  )
        32           C   tau(  32) = (   4.9999990  15.2275652   4.6979394  )
        33           C   tau(  33) = (   5.0000001  16.6355093   8.7255623  )
        34           C   tau(  34) = (   5.0000005  15.2425285   0.9347476  )
        35           C   tau(  35) = (   5.0000006  16.6288114   4.9670081  )
        36           C   tau(  36) = (   5.0000021  18.0542145   8.9848451  )
        37           C   tau(  37) = (   5.0000040  18.0347086   1.4880980  )
        38           C   tau(  38) = (   5.0000028  19.4044323   5.5083297  )
        39           C   tau(  39) = (   5.0000037  19.4417189   1.7764252  )
        40           C   tau(  40) = (   5.0000009  16.1719511  11.1383376  )
        41           C   tau(  41) = (   5.0000025  17.5586656   3.8975628  )
        42           C   tau(  42) = (   5.0000030  18.9349067   7.9097288  )
        43           C   tau(  43) = (   5.0000028  17.5822489   0.1392409  )
        44           C   tau(  44) = (   5.0000035  18.9726723   4.1744945  )
        45           C   tau(  45) = (   5.0000044  20.3566705   0.6863073  )
        46           C   tau(  46) = (   5.0000034  19.8785125   3.0986798  )
        47           H   tau(  47) = (   4.9999980   9.3546868   9.4565161  )
        48           H   tau(  48) = (   4.9999982   9.0497891   4.7431660  )
        49           H   tau(  49) = (   4.9999980   8.5738122   7.1498288  )
        50           H   tau(  50) = (   5.0000000   9.9893765  11.2445522  )
        51           H   tau(  51) = (   5.0000010   9.5247974   2.3266317  )
        52           H   tau(  52) = (   5.0000053  20.6455337   9.8632531  )
        53           H   tau(  53) = (   5.0000030  20.4754009   5.7232241  )
        54           H   tau(  54) = (   5.0000047  20.0108516   8.0752734  )
        55           H   tau(  55) = (   5.0000048  21.4264998   0.8999958  )
        56           H   tau(  56) = (   5.0000035  20.9504645   3.3066658  )

     number of k points=    26  Marzari-Vanderbilt smearing, width (Ry)=  0.0100
                       cart. coord. in units 2pi/alat
        k(    1) = (   0.0000000   0.0000000   0.0000000), wk =   0.0400000
        k(    2) = (   0.0000000   0.0000000   0.0017746), wk =   0.0800000
        k(    3) = (   0.0000000   0.0000000   0.0035492), wk =   0.0800000
        k(    4) = (   0.0000000   0.0000000   0.0053239), wk =   0.0800000
        k(    5) = (   0.0000000   0.0000000   0.0070985), wk =   0.0800000
        k(    6) = (   0.0000000   0.0000000   0.0088731), wk =   0.0800000
        k(    7) = (   0.0000000   0.0000000   0.0106477), wk =   0.0800000
        k(    8) = (   0.0000000   0.0000000   0.0124224), wk =   0.0800000
        k(    9) = (   0.0000000   0.0000000   0.0141970), wk =   0.0800000
        k(   10) = (   0.0000000   0.0000000   0.0159716), wk =   0.0800000
        k(   11) = (   0.0000000   0.0000000   0.0177462), wk =   0.0800000
        k(   12) = (   0.0000000   0.0000000   0.0195209), wk =   0.0800000
        k(   13) = (   0.0000000   0.0000000   0.0212955), wk =   0.0800000
        k(   14) = (   0.0000000   0.0000000   0.0230701), wk =   0.0800000
        k(   15) = (   0.0000000   0.0000000   0.0248447), wk =   0.0800000
        k(   16) = (   0.0000000   0.0000000   0.0266193), wk =   0.0800000
        k(   17) = (   0.0000000   0.0000000   0.0283940), wk =   0.0800000
        k(   18) = (   0.0000000   0.0000000   0.0301686), wk =   0.0800000
        k(   19) = (   0.0000000   0.0000000   0.0319432), wk =   0.0800000
        k(   20) = (   0.0000000   0.0000000   0.0337178), wk =   0.0800000
        k(   21) = (   0.0000000   0.0000000   0.0354925), wk =   0.0800000
        k(   22) = (   0.0000000   0.0000000   0.0372671), wk =   0.0800000
        k(   23) = (   0.0000000   0.0000000   0.0390417), wk =   0.0800000
        k(   24) = (   0.0000000   0.0000000   0.0408163), wk =   0.0800000
        k(   25) = (   0.0000000   0.0000000   0.0425909), wk =   0.0800000
        k(   26) = (   0.0000000   0.0000000  -0.0443656), wk =   0.0400000

     Dense  grid:  4051833 G-vectors     FFT dimensions: ( 135, 400, 150)

     Smooth grid:   779641 G-vectors     FFT dimensions: (  80, 240,  90)

     Estimated max dynamical RAM per process >     905.39 MB

     Estimated total dynamical RAM >      14.15 GB

     The potential is recalculated from file :
     /home/zfwang/scratch/GNRDATASET/AGNR/C_3Z_1A_W9/C_3Z_1A_W9.save/charge-density.dat


     negative rho (up, down):  2.609E-04 0.000E+00
     Starting wfcs are  194 randomized atomic wfcs +  306 random wfcs

     Band Structure Calculation
     Davidson diagonalization with overlap
     c_bands:  1 eigenvalues not converged

     ethr =  5.15E-09,  avg # of iterations = 73.3

     total cpu time spent up to now is     7702.6 secs

     End of band structure calculation

          k = 0.0000 0.0000 0.0000 ( 97367 PWs)   bands (ev):

   -21.7682 -21.1816 -20.9294 -20.9111 -20.4800 -20.2823 -20.1376 -19.6053
   -19.3516 -18.8711 -18.5014 -18.4885 -18.4024 -18.1488 -17.9282 -17.8446
   -17.3936 -17.1688 -17.0812 -16.9462 -16.8073 -15.7941 -15.7714 -15.1822
   -14.8077 -14.7084 -14.6405 -14.5966 -14.2661 -14.0281 -13.7704 -13.5076
   -13.0299 -12.9527 -12.8741 -12.7641 -12.6010 -12.5031 -12.3120 -11.6012
   -11.3880 -11.1394 -11.1154 -10.8578 -10.1748 -10.1593 -10.1036  -9.9132
    -9.8444  -9.7669  -9.7281  -9.7006  -9.5527  -9.3631  -9.2377  -9.2331
    -9.1812  -9.1558  -8.9281  -8.8424  -8.8309  -8.8172  -8.7406  -8.7007
    -8.6650  -8.5146  -8.5075  -8.3510  -8.1657  -8.1509  -8.1378  -8.0045
    -7.5500  -7.4304  -7.3987  -7.3793  -7.1206  -7.1116  -7.1115  -6.8743
    -6.6765  -6.6556  -6.1943  -6.0755  -6.0301  -5.8944  -5.8211  -5.7975
    -5.5113  -5.4651  -5.2773  -5.0244  -4.8852  -4.4324  -4.4264  -3.2501
    -3.1970  -1.7951  -1.7787  -0.7116  -0.6780  -0.3825  -0.2809  -0.1069
     0.3830   0.4455   0.6089   0.6680   0.8840   0.9061   1.0631   1.2234
     1.2662   1.2721   1.3958   1.5108   1.6284   1.6649   1.7360   1.7478
     1.8771   2.0381   2.0395   2.0585   2.1015   2.2772   2.3804   2.4233
     2.4274   2.5230   2.5523   2.5620   2.5713   2.6726   2.7100   2.7810
     2.8639   2.8999   2.9750   2.9971   3.1924   3.2079   3.2482   3.2823
     3.2855   3.2860   3.3789   3.4511   3.4869   3.5061   3.5845   3.6150
     3.6205   3.7016   3.7178   3.7413   3.7449   3.7921   3.8364   3.8750
     3.9416   4.0072   4.0130   4.0388   4.1648   4.1667   4.1715   4.1820
     4.2433   4.3506   4.3689   4.4425   4.5077   4.5126   4.5474   4.5488
     4.6323   4.6575   4.7095   4.7161   4.7778   4.7781   4.7956   4.8468
     4.8942   4.9157   4.9446   4.9600   5.0141   5.0637   5.0729   5.2240
     5.2554   5.3556   5.3719   5.4060   5.4448   5.5038   5.5954   5.6022
     5.6797   5.6953   5.7018   5.7685   5.7704   5.8284   5.8430   5.8571
     5.8574   5.8632   5.8995   5.9078   5.9632   5.9958   6.0036   6.0285
     6.0506   6.0599   6.0614   6.0682   6.1262   6.1281   6.1799   6.2212
     6.2233   6.2962   6.3398   6.3591   6.4274   6.4600   6.4609   6.4801
     6.4997   6.5529   6.5632   6.5695   6.5748   6.5964   6.6328   6.6948
     6.6995   6.7273   6.7380   6.8360   6.8753   6.9394   6.9517   6.9548
     6.9620   7.0243   7.0248   7.0283   7.1078   7.1454   7.1836   7.1939
     7.1967   7.2085   7.2288   7.2367   7.2635   7.2852   7.3310   7.3407
     7.3613   7.4209   7.4215   7.4259   7.4399   7.4837   7.5144   7.5293
     7.5325   7.5945   7.5983   7.6464   7.6818   7.7425   7.7841   7.8361
     7.8515   7.8760   7.8850   7.8929   7.9518   7.9637   7.9689   7.9977
     8.0290   8.0314   8.0769   8.0906   8.1018   8.1463   8.1507   8.1597
     8.1803   8.1817   8.1959   8.2179   8.2291   8.2329   8.2684   8.2725
     8.2878   8.3143   8.3429   8.3862   8.3940   8.3969   8.4282   8.4343
     8.4351   8.4846   8.4962   8.5363   8.5592   8.6122   8.6345   8.6553
     8.7195   8.7330   8.7742   8.8146   8.8346   8.8501   8.8551   8.8964
     8.9285   8.9417   8.9700   9.0227   9.0619   9.0872   9.1137   9.1750
     9.1758   9.2217   9.2445   9.2633   9.2820   9.3335   9.3649   9.3874
     9.3895   9.4200   9.4530   9.5014   9.5092   9.6058   9.6180   9.6333
     9.6467   9.6480   9.6626   9.6811   9.7069   9.7207   9.7275   9.7399
     9.7853   9.9001   9.9182   9.9410   9.9609   9.9640   9.9774  10.0156
    10.0633  10.0758  10.0968  10.1534  10.1805  10.1815  10.2440  10.2629
    10.3351  10.3533  10.3824  10.4567  10.4789  10.4868  10.5756  10.5915
    10.6018  10.6519  10.6633  10.6649  10.6657  10.6791  10.7299  10.7318
    10.7679  10.7757  10.8539  10.8585  10.9131  10.9248  10.9340  11.0074
    11.0242  11.0286  11.0490  11.0540  11.0776  11.0797  11.1379  11.1535
    11.2053  11.2242  11.2384  11.2824  11.2974  11.3035  11.3158  11.3174
    11.3206  11.3371  11.3641  11.3733  11.4279  11.4767  11.4814  11.5271
    11.5453  11.5484  11.5595  11.5648  11.5902  11.6353  11.6554  11.6673
    11.7047  11.7083  11.7254  11.7316  11.7493  11.7826  11.7830  11.7985
    11.8287  11.8529  11.8745  11.9146  11.9229  11.9322  11.9843  11.9845
    11.9919  12.0366  12.0531  12.0789  12.1001  12.1316  12.1343  12.1421
    12.1592  12.2003  12.2593  12.2721  12.2739  12.2879  12.3156  12.3534
    12.3588  12.3832  12.4232  12.4262  12.4396  12.4662  12.5321  12.5384
    12.5925  12.5973  12.6320  12.6501  12.6584  12.6679  12.6952  12.7341
    12.7638  12.8013  12.8055  12.8212  12.8565  12.9201  12.9239  12.9280
    12.9383  12.9693  12.9757  13.0215  13.0337  13.0924  13.1037  13.1092
    13.1246  13.1467  13.1888  13.2175

          k = 0.0000 0.0000 0.0018 ( 97369 PWs)   bands (ev):

   -21.7678 -21.1815 -20.9537 -20.8860 -20.4832 -20.2810 -20.1349 -19.6079
   -19.3489 -18.8705 -18.5490 -18.4573 -18.3885 -18.1478 -17.9543 -17.8159
   -17.3933 -17.1706 -17.0991 -16.9272 -16.8064 -15.8299 -15.7356 -15.1845
   -14.8089 -14.7050 -14.6790 -14.5622 -14.2716 -14.0261 -13.7734 -13.5003
   -13.0444 -12.9474 -12.8687 -12.7646 -12.6060 -12.4929 -12.3078 -11.6032
   -11.3890 -11.1368 -11.1133 -10.8575 -10.2061 -10.1642 -10.0744  -9.9136
    -9.8440  -9.7991  -9.7340  -9.6625  -9.5529  -9.3797  -9.2460  -9.2180
    -9.1810  -9.1421  -8.9317  -8.8754  -8.8201  -8.7970  -8.7641  -8.6911
    -8.6617  -8.5156  -8.4930  -8.3545  -8.1665  -8.1465  -8.1382  -7.9996
    -7.5514  -7.4458  -7.3832  -7.3825  -7.1572  -7.1083  -7.0767  -6.8731
    -6.6756  -6.6565  -6.2016  -6.1120  -5.9896  -5.8956  -5.8217  -5.7945
    -5.5503  -5.4271  -5.2761  -5.0243  -4.8891  -4.4531  -4.4027  -3.2785
    -3.1690  -1.8390  -1.7347  -0.7183  -0.6787  -0.3776  -0.2762  -0.1075
     0.3372   0.4916   0.6094   0.6685   0.8732   0.9066   1.0656   1.1807
     1.2666   1.3193   1.3962   1.5151   1.6147   1.6544   1.7383   1.7684
     1.8798   1.9950   2.0590   2.0837   2.1018   2.2774   2.3652   2.3999
     2.4670   2.5135   2.5222   2.5715   2.6024   2.6637   2.7102   2.7873
     2.8641   2.8835   2.9924   2.9976   3.1733   3.2067   3.2486   3.2622
     3.2862   3.3254   3.3792   3.4433   3.4859   3.5043   3.5964   3.6123
     3.6199   3.6752   3.7001   3.7521   3.7879   3.7928   3.8100   3.9007
     3.9236   4.0130   4.0240   4.0336   4.1226   4.1701   4.1796   4.2128
     4.2430   4.3372   4.3900   4.4357   4.4687   4.5024   4.5528   4.5933
     4.6252   4.6471   4.7045   4.7265   4.7410   4.7955   4.8225   4.8449
     4.8964   4.9181   4.9262   4.9913   5.0125   5.0609   5.0750   5.2208
     5.2471   5.3260   5.3802   5.3890   5.4880   5.5030   5.5977   5.6044
     5.6625   5.6858   5.6895   5.7637   5.7741   5.8021   5.8094   5.8282
     5.8851   5.8864   5.9146   5.9247   5.9574   5.9896   6.0061   6.0184
     6.0462   6.0616   6.0775   6.0868   6.1128   6.1475   6.1818   6.2266
     6.2327   6.3013   6.3281   6.3539   6.4182   6.4591   6.4593   6.4628
     6.5196   6.5493   6.5516   6.5753   6.5803   6.5842   6.6421   6.6977
     6.7066   6.7298   6.7605   6.8400   6.8751   6.9068   6.9489   6.9511
     6.9735   6.9817   7.0327   7.0529   7.1366   7.1422   7.1509   7.1597
     7.1950   7.2140   7.2332   7.2351   7.2636   7.3322   7.3331   7.3402
     7.3432   7.3756   7.4256   7.4551   7.4621   7.4824   7.5180   7.5298
     7.5464   7.5502   7.6435   7.6674   7.6938   7.7497   7.7665   7.8239
     7.8457   7.8699   7.8765   7.8957   7.9100   7.9514   7.9931   8.0077
     8.0152   8.0224   8.0529   8.0893   8.1219   8.1428   8.1528   8.1623
     8.1702   8.1783   8.2017   8.2093   8.2483   8.2587   8.2662   8.2774
     8.3050   8.3287   8.3445   8.3609   8.3744   8.4066   8.4114   8.4566
     8.4695   8.4903   8.4972   8.5470   8.5567   8.6209   8.6280   8.6571
     8.7046   8.7471   8.7774   8.8155   8.8159   8.8357   8.8686   8.9088
     8.9285   8.9426   8.9782   8.9989   9.0749   9.0863   9.1047   9.1624
     9.1999   9.2185   9.2586   9.2654   9.2885   9.2892   9.3420   9.3685
     9.4208   9.4396   9.4629   9.4887   9.5209   9.5961   9.6038   9.6167
     9.6260   9.6446   9.6811   9.6921   9.7032   9.7230   9.7562   9.7687
     9.8003   9.8989   9.9142   9.9271   9.9457   9.9789   9.9915  10.0178
    10.0484  10.0940  10.1013  10.1561  10.1572  10.1813  10.2453  10.2626
    10.3350  10.3572  10.3994  10.4375  10.4695  10.4982  10.5497  10.5907
    10.6079  10.6214  10.6264  10.6594  10.6884  10.7077  10.7425  10.7516
    10.7614  10.7887  10.8495  10.8612  10.9089  10.9118  10.9523  10.9905
    11.0154  11.0312  11.0457  11.0486  11.0741  11.0847  11.1292  11.1405
    11.2165  11.2194  11.2328  11.2594  11.2796  11.2932  11.2933  11.3445
    11.3459  11.3578  11.3662  11.3813  11.4192  11.4652  11.4888  11.5095
    11.5418  11.5430  11.5537  11.5616  11.5865  11.6369  11.6482  11.6690
    11.6782  11.6973  11.7047  11.7130  11.7553  11.7787  11.7827  11.8305
    11.8528  11.8639  11.8827  11.8919  11.9307  11.9332  11.9805  11.9910
    11.9949  12.0265  12.0552  12.0755  12.0902  12.1290  12.1385  12.1672
    12.1675  12.1970  12.2455  12.2583  12.2933  12.3098  12.3234  12.3528
    12.3668  12.3894  12.3940  12.4082  12.4582  12.5100  12.5343  12.5376
    12.5945  12.6027  12.6305  12.6448  12.6588  12.6591  12.6749  12.7383
    12.7735  12.7783  12.8136  12.8312  12.8473  12.8835  12.8952  12.9250
    12.9525  12.9530  13.0035  13.0127  13.0522  13.0882  13.0968  13.1272
    13.1312  13.1399  13.1437  13.2106

          k = 0.0000 0.0000 0.0035 ( 97403 PWs)   bands (ev):

   -21.7668 -21.1811 -20.9843 -20.8529 -20.4923 -20.2773 -20.1269 -19.6153
   -19.3409 -18.8688 -18.6067 -18.4490 -18.3466 -18.1467 -17.9961 -17.7645
   -17.3924 -17.1784 -17.1346 -16.8861 -16.8037 -15.8747 -15.6910 -15.1914
   -14.8123 -14.7352 -14.6947 -14.5198 -14.2860 -14.0213 -13.7807 -13.4802
   -13.0758 -12.9394 -12.8616 -12.7609 -12.6143 -12.4694 -12.2953 -11.6088
   -11.3919 -11.1291 -11.1073 -10.8564 -10.2603 -10.1742 -10.0349  -9.9133
    -9.8506  -9.8428  -9.7331  -9.6129  -9.5519  -9.4111  -9.2704  -9.1802
    -9.1771  -9.1142  -8.9438  -8.9126  -8.8353  -8.7961  -8.7572  -8.6843
    -8.6541  -8.5148  -8.4595  -8.3647  -8.1660  -8.1390  -8.1357  -7.9855
    -7.5559  -7.4702  -7.3919  -7.3585  -7.1987  -7.0991  -7.0403  -6.8691
    -6.6728  -6.6592  -6.2291  -6.1509  -5.9336  -5.8990  -5.8236  -5.7852
    -5.6053  -5.3759  -5.2711  -5.0240  -4.9004  -4.4730  -4.3740  -3.3235
    -3.1251  -1.8899  -1.6837  -0.7366  -0.6810  -0.3652  -0.2616  -0.1095
     0.2708   0.5587   0.6107   0.6698   0.8443   0.9079   1.0572   1.1441
     1.2678   1.3789   1.3975   1.5311   1.5859   1.6273   1.7565   1.8018
     1.8882   1.9528   2.0606   2.1026   2.1295   2.2783   2.3276   2.3957
     2.4718   2.5113   2.5195   2.5734   2.6428   2.6479   2.7105   2.8011
     2.8527   2.8645   2.9991   3.0265   3.1391   3.1947   3.2241   3.2715
     3.3074   3.3657   3.3800   3.4227   3.4889   3.5001   3.5932   3.6146
     3.6247   3.6624   3.6652   3.7717   3.7894   3.8007   3.8337   3.8911
     3.9348   4.0091   4.0251   4.0503   4.0810   4.1675   4.1839   4.2359
     4.2569   4.3339   4.4164   4.4181   4.4286   4.4622   4.5880   4.5997
     4.6397   4.6428   4.6882   4.6942   4.7632   4.7966   4.8391   4.8682
     4.8808   4.9250   4.9471   5.0078   5.0267   5.0526   5.0841   5.2002
     5.2285   5.2759   5.3834   5.4135   5.4869   5.5254   5.5932   5.6197
     5.6441   5.6474   5.6668   5.7130   5.7771   5.7781   5.8076   5.8080
     5.8703   5.9009   5.9199   5.9252   5.9753   5.9837   6.0083   6.0218
     6.0422   6.0679   6.0897   6.1247   6.1496   6.1591   6.1889   6.2311
     6.2421   6.2905   6.3291   6.3531   6.4073   6.4173   6.4535   6.4665
     6.5037   6.5407   6.5627   6.5639   6.5862   6.6087   6.6674   6.7071
     6.7119   6.7381   6.7998   6.8290   6.8811   6.8856   6.9141   6.9374
     6.9660   6.9744   7.0298   7.0672   7.1018   7.1289   7.1331   7.1774
     7.1822   7.1980   7.2252   7.2402   7.2908   7.3066   7.3333   7.3396
     7.3683   7.4009   7.4397   7.4399   7.4564   7.4872   7.5097   7.5368
     7.5863   7.6024   7.6428   7.7019   7.7333   7.7546   7.7617   7.7889
     7.8151   7.8374   7.8645   7.8791   7.8848   7.9456   7.9487   7.9852
     8.0082   8.0538   8.0559   8.0614   8.0998   8.1157   8.1576   8.1715
     8.1863   8.2004   8.2092   8.2459   8.2519   8.2681   8.2734   8.2919
     8.3091   8.3409   8.3446   8.3732   8.3999   8.4161   8.4203   8.4534
     8.4652   8.4987   8.5381   8.5641   8.5956   8.6084   8.6379   8.6639
     8.6952   8.7538   8.7658   8.7733   8.8168   8.8475   8.8755   8.9085
     8.9326   8.9630   8.9807   8.9878   9.0368   9.1143   9.1191   9.1587
     9.1717   9.2256   9.2349   9.2845   9.2903   9.2920   9.3101   9.3521
     9.4055   9.4643   9.4653   9.5091   9.5328   9.5688   9.5692   9.6059
     9.6088   9.6498   9.6914   9.6942   9.7165   9.7718   9.7986   9.8140
     9.8318   9.8926   9.8998   9.9243   9.9258   9.9969  10.0013  10.0188
    10.0433  10.1040  10.1133  10.1272  10.1652  10.1824  10.2280  10.2806
    10.3259  10.3629  10.3927  10.4416  10.4595  10.5070  10.5124  10.5365
    10.5795  10.6120  10.6383  10.6502  10.6859  10.7439  10.7477  10.7656
    10.7989  10.8103  10.8383  10.8663  10.8936  10.9081  10.9530  10.9734
    11.0009  11.0209  11.0342  11.0407  11.0566  11.0913  11.1067  11.1256
    11.1907  11.2151  11.2293  11.2304  11.2651  11.2786  11.2879  11.3552
    11.3595  11.3869  11.3904  11.3983  11.4050  11.4621  11.4679  11.4862
    11.5064  11.5140  11.5197  11.5472  11.5995  11.6080  11.6323  11.6548
    11.6689  11.6932  11.7107  11.7205  11.7431  11.7834  11.7858  11.8145
    11.8414  11.8727  11.8751  11.9173  11.9280  11.9431  11.9720  11.9941
    12.0141  12.0465  12.0485  12.0796  12.0980  12.1106  12.1321  12.1660
    12.1930  12.2083  12.2701  12.2837  12.2891  12.2945  12.3453  12.3540
    12.3765  12.3833  12.3950  12.4328  12.4964  12.5290  12.5337  12.5600
    12.5975  12.6070  12.6129  12.6394  12.6476  12.6555  12.6747  12.7219
    12.7383  12.7723  12.8022  12.8224  12.8458  12.8637  12.8896  12.8946
    12.9322  12.9559  12.9921  13.0149  13.0224  13.0311  13.0753  13.1321
    13.1392  13.1584  13.1641  13.2015

          k = 0.0000 0.0000 0.0053 ( 97401 PWs)   bands (ev):

   -21.7652 -21.1806 -21.0142 -20.8187 -20.5060 -20.2721 -20.1138 -19.6267
   -19.3287 -18.8659 -18.6656 -18.4545 -18.2953 -18.1517 -18.0286 -17.7085
   -17.3908 -17.2052 -17.1596 -16.8381 -16.7993 -15.9196 -15.6468 -15.2029
   -14.8190 -14.7896 -14.6798 -14.4895 -14.3027 -14.0161 -13.7883 -13.4521
   -13.1108 -12.9330 -12.8699 -12.7425 -12.6178 -12.4421 -12.2739 -11.6176
   -11.3960 -11.1167 -11.0980 -10.8547 -10.3183 -10.1903 -10.0169  -9.9251
    -9.8734  -9.8407  -9.7316  -9.5876  -9.5367  -9.4359  -9.2941  -9.1791
    -9.1308  -9.0836  -8.9692  -8.9489  -8.8687  -8.8085  -8.7165  -8.6816
    -8.6463  -8.5131  -8.4187  -8.3804  -8.1610  -8.1394  -8.1205  -7.9642
    -7.5646  -7.4939  -7.4061  -7.3334  -7.2401  -7.0852  -7.0081  -6.8611
    -6.6682  -6.6636  -6.2783  -6.1737  -5.9047  -5.8816  -5.8267  -5.7693
    -5.6587  -5.3330  -5.2563  -5.0236  -4.9184  -4.4893  -4.3438  -3.3707
    -3.0800  -1.9406  -1.6329  -0.7625  -0.6850  -0.3500  -0.2361  -0.1129
     0.2037   0.6129   0.6254   0.6719   0.8035   0.9102   1.0176   1.1487
     1.2698   1.3997   1.4222   1.5524   1.5683   1.5943   1.7778   1.8370
     1.9001   1.9166   2.0634   2.1039   2.1762   2.2797   2.2868   2.3936
     2.4338   2.5130   2.5543   2.5787   2.6185   2.6934   2.7116   2.8151
     2.8204   2.8652   3.0015   3.0640   3.1029   3.1633   3.2222   3.2709
     3.3368   3.3794   3.3995   3.4056   3.4958   3.4985   3.5584   3.5956
     3.6419   3.6541   3.6759   3.7371   3.7945   3.8381   3.8628   3.8793
     3.9569   3.9881   4.0330   4.0376   4.0777   4.1658   4.1951   4.2191
     4.2978   4.3479   4.3849   4.3976   4.4091   4.4620   4.5570   4.6262
     4.6294   4.6623   4.6769   4.6876   4.7920   4.7980   4.8141   4.8908
     4.9146   4.9342   4.9813   5.0019   5.0395   5.0508   5.1082   5.1404
     5.2142   5.2534   5.3937   5.4435   5.4665   5.5197   5.5583   5.5874
     5.6030   5.6382   5.6716   5.7070   5.7432   5.7742   5.7843   5.8132
     5.8571   5.8816   5.8959   5.9484   5.9635   5.9777   6.0096   6.0394
     6.0538   6.0864   6.1242   6.1617   6.1728   6.1999   6.2086   6.2128
     6.2432   6.2656   6.3423   6.3509   6.3831   6.4313   6.4427   6.4453
     6.4718   6.5480   6.5587   6.5687   6.6090   6.6320   6.6938   6.6988
     6.7297   6.7655   6.8025   6.8062   6.8430   6.8939   6.9143   6.9365
     6.9535   6.9881   7.0095   7.0209   7.0967   7.1027   7.1227   7.1709
     7.1754   7.1981   7.1998   7.2391   7.3154   7.3231   7.3379   7.3490
     7.3740   7.3936   7.4172   7.4530   7.5005   7.5099   7.5332   7.5473
     7.6192   7.6442   7.6646   7.6985   7.7309   7.7494   7.7586   7.7694
     7.8118   7.8180   7.8339   7.8616   7.8681   7.9108   7.9158   7.9688
     7.9947   8.0219   8.0464   8.0868   8.1079   8.1239   8.1419   8.1588
     8.1806   8.2168   8.2229   8.2254   8.2732   8.2963   8.2975   8.3193
     8.3372   8.3418   8.3693   8.3718   8.4032   8.4362   8.4457   8.4637
     8.4954   8.5168   8.5504   8.5850   8.6199   8.6448   8.6595   8.6874
     8.6925   8.7154   8.7409   8.7545   8.8155   8.8670   8.8711   8.9070
     8.9335   8.9557   8.9921   9.0101   9.0345   9.1026   9.1256   9.1364
     9.1587   9.2079   9.2255   9.2653   9.2818   9.3066   9.3272   9.3544
     9.3810   9.4640   9.4859   9.4956   9.5072   9.5384   9.5738   9.6074
     9.6343   9.6576   9.6884   9.7067   9.7558   9.8097   9.8415   9.8484
     9.8625   9.8907   9.9033   9.9132   9.9269   9.9992  10.0059  10.0114
    10.0529  10.0855  10.1286  10.1329  10.1828  10.1834  10.2261  10.2840
    10.3243  10.3383  10.3626  10.4336  10.4601  10.4696  10.5093  10.5282
    10.5388  10.6065  10.6213  10.6720  10.6827  10.7369  10.7726  10.7800
    10.8214  10.8262  10.8509  10.8649  10.8900  10.8969  10.9149  10.9625
    10.9835  11.0114  11.0245  11.0324  11.0377  11.0698  11.0814  11.1179
    11.1598  11.1741  11.2150  11.2327  11.2567  11.2750  11.2954  11.3433
    11.3573  11.3574  11.3876  11.4084  11.4306  11.4398  11.4472  11.4626
    11.4656  11.4878  11.5043  11.5207  11.5640  11.6069  11.6333  11.6508
    11.6689  11.6880  11.7174  11.7317  11.7498  11.7660  11.7727  11.7860
    11.8372  11.8614  11.8721  11.9067  11.9402  11.9472  11.9837  11.9901
    12.0128  12.0186  12.0654  12.0832  12.1092  12.1203  12.1492  12.1933
    12.2106  12.2319  12.2688  12.2846  12.2881  12.3119  12.3357  12.3890
    12.3937  12.4141  12.4203  12.4594  12.5206  12.5208  12.5369  12.5753
    12.5846  12.5883  12.6075  12.6413  12.6487  12.6697  12.6897  12.6898
    12.7233  12.7449  12.7593  12.8104  12.8475  12.8544  12.8775  12.8900
    12.8957  12.9087  12.9357  12.9556  13.0042  13.0431  13.0844  13.1386
    13.1531  13.1652  13.1689  13.1848

          k = 0.0000 0.0000 0.0071 ( 97445 PWs)   bands (ev):

   -21.7629 -21.1802 -21.0430 -20.7837 -20.5232 -20.2663 -20.0963 -19.6411
   -19.3132 -18.8619 -18.7247 -18.4653 -18.2483 -18.1696 -18.0377 -17.6513
   -17.3884 -17.2504 -17.1697 -16.7964 -16.7849 -15.9638 -15.6039 -15.2189
   -14.8551 -14.8133 -14.6612 -14.4810 -14.3124 -14.0132 -13.7920 -13.4219
   -13.1423 -12.9284 -12.8943 -12.7113 -12.6144 -12.4153 -12.2439 -11.6288
   -11.4007 -11.1005 -11.0862 -10.8524 -10.3774 -10.2123 -10.0357  -9.9588
    -9.8423  -9.8379  -9.7335  -9.5932  -9.5178  -9.4334  -9.3116  -9.1777
    -9.0874  -9.0571  -9.0074  -8.9841  -8.8973  -8.8130  -8.6798  -8.6750
    -8.6385  -8.5108  -8.4003  -8.3799  -8.1493  -8.1390  -8.1006  -7.9375
    -7.5793  -7.5144  -7.4239  -7.3128  -7.2772  -7.0679  -6.9824  -6.8472
    -6.6696  -6.6618  -6.3374  -6.1902  -5.9127  -5.8417  -5.8310  -5.7560
    -5.6940  -5.3097  -5.2220  -5.0234  -4.9420  -4.5019  -4.3130  -3.4183
    -3.0354  -1.9906  -1.5826  -0.7923  -0.6904  -0.3349  -0.2007  -0.1182
     0.1382   0.6160   0.6749   0.6804   0.7618   0.9133   0.9702   1.1713
     1.2725   1.4026   1.4449   1.5175   1.5600   1.6286   1.7955   1.8552
     1.8902   1.9297   2.0674   2.1055   2.2231   2.2467   2.2817   2.3779
     2.4121   2.4995   2.5738   2.5980   2.6091   2.7073   2.7431   2.7913
     2.8253   2.8659   3.0043   3.0628   3.1057   3.1287   3.2281   3.2662
     3.3635   3.3674   3.3911   3.4416   3.4951   3.5131   3.5200   3.5623
     3.6387   3.6626   3.6923   3.7275   3.7969   3.8230   3.8949   3.9185
     3.9614   3.9647   3.9920   4.0684   4.0848   4.1649   4.2003   4.2174
     4.3209   4.3442   4.3645   4.3769   4.3940   4.4922   4.5177   4.5949
     4.6310   4.6461   4.6960   4.7358   4.7742   4.8060   4.8191   4.9188
     4.9390   4.9607   4.9996   5.0153   5.0239   5.0660   5.0663   5.1467
     5.2005   5.2483   5.3982   5.4381   5.4647   5.4867   5.5234   5.5293
     5.5823   5.6010   5.6661   5.7070   5.7539   5.7590   5.7660   5.8039
     5.8392   5.8728   5.8888   5.9173   5.9719   5.9965   6.0152   6.0390
     6.0685   6.0999   6.1526   6.1747   6.1822   6.2021   6.2240   6.2463
     6.2610   6.2729   6.2908   6.3636   6.3895   6.4072   6.4366   6.4711
     6.4820   6.5488   6.5559   6.5713   6.6138   6.6412   6.6898   6.7280
     6.7383   6.7647   6.7968   6.8092   6.8214   6.8786   6.8997   6.9225
     6.9636   6.9747   6.9959   7.0384   7.0809   7.0844   7.1078   7.1110
     7.1872   7.1890   7.1976   7.2575   7.2755   7.3463   7.3522   7.3564
     7.3865   7.4158   7.4474   7.4565   7.5302   7.5331   7.5537   7.5818
     7.6199   7.6582   7.6706   7.6710   7.7089   7.7303   7.7591   7.7648
     7.7770   7.8172   7.8417   7.8544   7.8707   7.8889   7.9082   7.9300
     7.9732   8.0278   8.0487   8.0909   8.1040   8.1149   8.1398   8.1626
     8.1770   8.2134   8.2295   8.2405   8.2778   8.2956   8.3164   8.3457
     8.3523   8.3545   8.3707   8.4109   8.4273   8.4654   8.4737   8.4910
     8.4977   8.5570   8.5698   8.6119   8.6455   8.6611   8.6645   8.6905
     8.7014   8.7194   8.7372   8.7519   8.8130   8.8629   8.8730   8.8962
     8.9524   8.9560   8.9761   9.0354   9.0457   9.0826   9.1112   9.1115
     9.1604   9.2117   9.2128   9.2578   9.2612   9.2974   9.3321   9.3520
     9.4131   9.4341   9.4584   9.4856   9.5216   9.5415   9.5496   9.6150
     9.6745   9.6900   9.6998   9.7103   9.7945   9.8120   9.8541   9.8665
     9.8862   9.9028   9.9253   9.9309   9.9432   9.9873  10.0034  10.0246
    10.0440  10.1083  10.1284  10.1435  10.1861  10.2097  10.2413  10.2718
    10.2838  10.3247  10.3389  10.4115  10.4230  10.4566  10.4982  10.5314
    10.5364  10.5917  10.6102  10.6813  10.6915  10.7268  10.7872  10.7920
    10.8146  10.8215  10.8485  10.8631  10.8724  10.8949  10.9091  10.9274
    10.9604  11.0067  11.0069  11.0302  11.0323  11.0339  11.0565  11.1117
    11.1277  11.1364  11.2162  11.2262  11.2445  11.2747  11.2768  11.2952
    11.3152  11.3363  11.3563  11.3861  11.4139  11.4286  11.4409  11.4468
    11.4585  11.4939  11.5070  11.5317  11.5389  11.5856  11.5936  11.6423
    11.6759  11.6777  11.7119  11.7174  11.7483  11.7766  11.7933  11.7939
    11.8254  11.8399  11.8530  11.8784  11.9220  11.9602  11.9775  11.9915
    11.9931  12.0143  12.0630  12.0805  12.1384  12.1594  12.1742  12.1751
    12.2027  12.2615  12.2815  12.2957  12.3304  12.3463  12.3521  12.4007
    12.4028  12.4371  12.4489  12.4681  12.5101  12.5102  12.5246  12.5640
    12.5833  12.5928  12.6205  12.6471  12.6613  12.6780  12.6856  12.6883
    12.7095  12.7097  12.7504  12.7788  12.7908  12.8046  12.8438  12.8810
    12.8873  12.8982  12.9344  12.9377  12.9650  13.0722  13.0874  13.1042
    13.1243  13.1431  13.1526  13.1974

          k = 0.0000 0.0000 0.0089 ( 97479 PWs)   bands (ev):

   -21.7599 -21.1804 -21.0699 -20.7481 -20.5427 -20.2603 -20.0749 -19.6575
   -19.2954 -18.8571 -18.7835 -18.4789 -18.2395 -18.1689 -18.0231 -17.5942
   -17.3849 -17.3003 -17.1767 -16.7881 -16.7354 -16.0071 -15.5633 -15.2396
   -14.9069 -14.8168 -14.6400 -14.4980 -14.3110 -14.0144 -13.7884 -13.3972
   -13.1634 -12.9392 -12.9122 -12.6753 -12.6043 -12.3901 -12.2066 -11.6413
   -11.4050 -11.0813 -11.0725 -10.8496 -10.4367 -10.2400 -10.0820  -9.9849
    -9.8343  -9.7994  -9.7398  -9.6035  -9.5235  -9.4002  -9.3175  -9.1763
    -9.0921  -9.0408  -9.0177  -9.0083  -8.9160  -8.8143  -8.6772  -8.6327
    -8.6303  -8.5084  -8.4231  -8.3495  -8.1375  -8.1295  -8.0749  -7.9069
    -7.6012  -7.5301  -7.4440  -7.3322  -7.2743  -7.0485  -6.9647  -6.8263
    -6.6771  -6.6535  -6.3998  -6.2058  -5.9230  -5.8364  -5.8311  -5.7698
    -5.6705  -5.3011  -5.1734  -5.0249  -4.9686  -4.5113  -4.2824  -3.4657
    -2.9918  -2.0397  -1.5333  -0.8232  -0.6969  -0.3206  -0.1574  -0.1263
     0.0757   0.6199   0.6683   0.6788   0.7710   0.9174   0.9328   1.1989
     1.2759   1.4063   1.4557   1.4823   1.5255   1.7019   1.8053   1.8275
     1.9219   1.9595   2.0730   2.1072   2.2060   2.2722   2.2842   2.3447
     2.4108   2.4763   2.5791   2.5855   2.6523   2.7031   2.7667   2.7934
     2.8301   2.8667   3.0069   3.0263   3.0956   3.1420   3.2385   3.2578
     3.3514   3.3856   3.3943   3.4622   3.4784   3.5110   3.5134   3.5490
     3.6337   3.6432   3.7027   3.7551   3.7959   3.8083   3.9122   3.9405
     3.9480   3.9536   3.9889   4.0776   4.1049   4.1647   4.1876   4.2470
     4.3050   4.3151   4.3274   4.4008   4.4252   4.4779   4.5231   4.5566
     4.5976   4.6586   4.7279   4.7380   4.7848   4.8098   4.8437   4.9289
     4.9526   4.9900   4.9952   5.0039   5.0271   5.0399   5.0874   5.1882
     5.1905   5.2483   5.3689   5.3984   5.4372   5.4572   5.5024   5.5140
     5.5643   5.5757   5.6698   5.6711   5.7278   5.7318   5.7358   5.8170
     5.8405   5.8635   5.8911   5.9112   5.9770   6.0122   6.0217   6.0492
     6.0636   6.0980   6.1345   6.1770   6.1834   6.2130   6.2202   6.2495
     6.2741   6.2965   6.3221   6.3792   6.3874   6.4125   6.4399   6.4738
     6.5263   6.5518   6.5559   6.5665   6.6148   6.6575   6.6690   6.6762
     6.7574   6.7853   6.7930   6.8184   6.8317   6.8554   6.8792   6.8954
     6.9412   6.9865   6.9999   7.0188   7.0698   7.0917   7.0943   7.1280
     7.1530   7.1808   7.2161   7.2258   7.2787   7.3455   7.3592   7.3773
     7.4182   7.4280   7.4781   7.5113   7.5245   7.5455   7.5641   7.5717
     7.6136   7.6238   7.6701   7.6732   7.6764   7.7253   7.7375   7.7467
     7.7929   7.8041   7.8060   7.8555   7.8802   7.9118   7.9264   7.9486
     7.9601   8.0173   8.0233   8.0914   8.1224   8.1319   8.1502   8.1506
     8.1851   8.2061   8.2283   8.2301   8.2768   8.3177   8.3250   8.3370
     8.3691   8.3768   8.4027   8.4239   8.4692   8.4944   8.4981   8.5090
     8.5379   8.5714   8.5895   8.6036   8.6337   8.6783   8.6857   8.7017
     8.7275   8.7395   8.7479   8.8116   8.8216   8.8470   8.8474   8.9207
     8.9503   8.9622   8.9763   8.9849   9.0588   9.0593   9.1078   9.1519
     9.1641   9.1805   9.1963   9.2378   9.2628   9.2954   9.3522   9.3618
     9.3929   9.3972   9.4518   9.5065   9.5113   9.5256   9.5878   9.6264
     9.6949   9.6959   9.7160   9.7456   9.8013   9.8042   9.8528   9.8673
     9.9001   9.9387   9.9410   9.9434   9.9658   9.9985  10.0124  10.0424
    10.0601  10.1134  10.1447  10.1569  10.1910  10.2213  10.2385  10.2439
    10.2584  10.3114  10.3536  10.3615  10.4343  10.4503  10.4587  10.5223
    10.5401  10.5561  10.6183  10.6828  10.6966  10.7259  10.7774  10.7808
    10.8060  10.8185  10.8280  10.8477  10.8523  10.8762  10.8766  10.9159
    10.9629  10.9847  10.9904  10.9983  11.0121  11.0492  11.0587  11.0903
    11.1029  11.1058  11.1882  11.2202  11.2223  11.2275  11.2384  11.2768
    11.2850  11.3309  11.3362  11.3439  11.3808  11.4059  11.4184  11.4261
    11.4570  11.5133  11.5222  11.5399  11.5539  11.5550  11.5672  11.6260
    11.6346  11.6633  11.7081  11.7230  11.7731  11.7816  11.7828  11.7981
    11.8060  11.8253  11.8426  11.8770  11.8876  11.9483  11.9497  11.9731
    11.9900  12.0406  12.0708  12.1086  12.1175  12.1604  12.1715  12.1901
    12.2296  12.2788  12.3037  12.3327  12.3372  12.3657  12.3718  12.3825
    12.4252  12.4359  12.4410  12.4751  12.5030  12.5115  12.5446  12.5570
    12.5774  12.6108  12.6109  12.6252  12.6411  12.6478  12.6769  12.6844
    12.7012  12.7271  12.7274  12.7512  12.7755  12.7813  12.8431  12.8717
    12.8922  12.9099  12.9232  12.9289  12.9773  13.0170  13.0204  13.0932
    13.1182  13.1401  13.1718  13.1927

          k = 0.0000 0.0000 0.0106 ( 97473 PWs)   bands (ev):

   -21.7562 -21.1824 -21.0939 -20.7118 -20.5635 -20.2543 -20.0504 -19.6750
   -19.2761 -18.8548 -18.8383 -18.4944 -18.2786 -18.1334 -17.9918 -17.5390
   -17.3796 -17.3511 -17.1830 -16.7804 -16.6847 -16.0492 -15.5264 -15.2651
   -14.9543 -14.8178 -14.6168 -14.5333 -14.3055 -14.0206 -13.7760 -13.3869
   -13.1666 -12.9765 -12.9070 -12.6396 -12.5879 -12.3657 -12.1639 -11.6542
   -11.4079 -11.0614 -11.0569 -10.8465 -10.4958 -10.2730 -10.1377 -10.0090
    -9.8299  -9.7872  -9.7230  -9.6077  -9.5391  -9.3665  -9.3038  -9.1756
    -9.1547  -9.0493  -9.0169  -8.9811  -8.9242  -8.8117  -8.6727  -8.6216
    -8.5899  -8.5058  -8.4478  -8.3300  -8.1349  -8.1033  -8.0416  -7.8735
    -7.6289  -7.5423  -7.4656  -7.3722  -7.2506  -7.0278  -6.9543  -6.7996
    -6.6857  -6.6434  -6.4633  -6.2217  -5.9357  -5.8688  -5.8429  -5.7614
    -5.6191  -5.2977  -5.1206  -5.0340  -4.9908  -4.5179  -4.2527  -3.5128
    -2.9496  -2.0876  -1.4852  -0.8533  -0.7042  -0.3067  -0.1388  -0.1091
     0.0185   0.6083   0.6248   0.6836   0.7936   0.9223   0.9266   1.2282
     1.2799   1.4104   1.4477   1.4615   1.4915   1.7802   1.7807   1.8251
     1.9605   1.9947   2.0808   2.1084   2.1682   2.2872   2.3048   2.3257
     2.4144   2.4450   2.5807   2.5838   2.6701   2.7170   2.7568   2.8287
     2.8412   2.8673   2.9902   3.0075   3.0666   3.1687   3.2522   3.2528
     3.3431   3.3962   3.4057   3.4392   3.4666   3.4766   3.5460   3.5675
     3.6076   3.6460   3.6949   3.7898   3.7985   3.8116   3.8786   3.9115
     3.9331   3.9928   4.0345   4.0590   4.1266   4.1739   4.1884   4.2645
     4.2678   4.2878   4.3195   4.4262   4.4419   4.4702   4.5146   4.5565
     4.5637   4.6706   4.7019   4.7594   4.8147   4.8337   4.8547   4.9026
     4.9420   4.9718   4.9866   5.0307   5.0519   5.0670   5.1195   5.1775
     5.2350   5.2441   5.3183   5.3336   5.3946   5.4363   5.4805   5.5271
     5.5398   5.5822   5.6366   5.6654   5.7007   5.7029   5.7030   5.7965
     5.8034   5.8747   5.8939   5.9400   5.9889   6.0079   6.0195   6.0548
     6.0630   6.0910   6.1283   6.1394   6.1740   6.1968   6.2528   6.2535
     6.2626   6.3354   6.3665   6.3923   6.4201   6.4332   6.4495   6.4734
     6.5376   6.5389   6.5566   6.6057   6.6118   6.6267   6.6670   6.6801
     6.7223   6.7691   6.7794   6.8070   6.8407   6.8742   6.8804   6.9093
     6.9251   6.9494   7.0005   7.0075   7.0552   7.0856   7.0894   7.1569
     7.1634   7.1707   7.2150   7.2383   7.2973   7.3269   7.3684   7.3837
     7.4240   7.4652   7.4687   7.5187   7.5532   7.5582   7.5606   7.5754
     7.5784   7.5976   7.6121   7.6489   7.7063   7.7083   7.7346   7.7477
     7.7568   7.7963   7.8300   7.8552   7.9014   7.9165   7.9328   7.9573
     7.9802   8.0327   8.0616   8.0841   8.1245   8.1423   8.1425   8.1544
     8.1607   8.2233   8.2241   8.2541   8.2834   8.3054   8.3131   8.3681
     8.3952   8.4053   8.4212   8.4521   8.4604   8.4969   8.5295   8.5311
     8.5538   8.5725   8.5887   8.6366   8.6395   8.6655   8.7197   8.7386
     8.7678   8.7834   8.8055   8.8071   8.8102   8.8367   8.8854   8.9189
     8.9227   8.9700   8.9709   9.0206   9.0278   9.0327   9.1041   9.1421
     9.1709   9.1803   9.2081   9.2274   9.2507   9.3220   9.3405   9.3428
     9.3866   9.4073   9.4577   9.4841   9.5065   9.5360   9.6211   9.6550
     9.7010   9.7103   9.7211   9.7456   9.7874   9.8229   9.8269   9.8961
     9.9272   9.9361   9.9530   9.9535   9.9632  10.0351  10.0372  10.0809
    10.0846  10.1013  10.1460  10.1664  10.1934  10.1975  10.2171  10.2738
    10.2823  10.3106  10.3251  10.3798  10.4208  10.4354  10.4527  10.4965
    10.5162  10.5505  10.5998  10.6790  10.6847  10.7086  10.7485  10.7625
    10.7854  10.8043  10.8146  10.8213  10.8403  10.8445  10.8751  10.8761
    10.9519  10.9717  10.9802  10.9895  11.0086  11.0363  11.0573  11.0599
    11.0749  11.1034  11.1252  11.1603  11.2150  11.2191  11.2201  11.2535
    11.2771  11.2929  11.3010  11.3355  11.3616  11.3657  11.3963  11.4072
    11.4591  11.4837  11.5027  11.5413  11.5674  11.5838  11.5844  11.5909
    11.6168  11.6379  11.6871  11.7298  11.7497  11.7563  11.7823  11.7935
    11.7936  11.8229  11.8434  11.8665  11.8969  11.9211  11.9340  11.9679
    11.9828  12.0630  12.0716  12.0977  12.1158  12.1539  12.1833  12.1993
    12.2598  12.2902  12.3044  12.3368  12.3413  12.3565  12.3618  12.3888
    12.4052  12.4471  12.4521  12.4826  12.4940  12.5100  12.5212  12.5246
    12.5849  12.5861  12.5969  12.6101  12.6178  12.6282  12.6744  12.6943
    12.7043  12.7263  12.7521  12.7625  12.7975  12.8119  12.8237  12.8574
    12.8648  12.9216  12.9337  12.9447  12.9741  12.9777  13.0021  13.0549
    13.1067  13.1384  13.1708  13.1729

          k = 0.0000 0.0000 0.0124 ( 97437 PWs)   bands (ev):

   -21.7519 -21.1881 -21.1128 -20.6753 -20.5849 -20.2482 -20.0236 -19.6932
   -19.2560 -18.9022 -18.8418 -18.5112 -18.3271 -18.0976 -17.9483 -17.4889
   -17.4030 -17.3683 -17.1886 -16.7724 -16.6350 -16.0896 -15.4953 -15.2953
   -14.9936 -14.8172 -14.5939 -14.5767 -14.3035 -14.0316 -13.7552 -13.3939
   -13.1502 -13.0180 -12.8967 -12.6067 -12.5653 -12.3412 -12.1182 -11.6664
   -11.4088 -11.0451 -11.0366 -10.8432 -10.5546 -10.3106 -10.1952 -10.0349
    -9.8247  -9.8128  -9.6812  -9.6039  -9.5537  -9.3472  -9.2685  -9.2236
    -9.1769  -9.0773  -9.0062  -8.9682  -8.9105  -8.8036  -8.6653  -8.6125
    -8.5471  -8.5029  -8.4730  -8.3200  -8.1313  -8.0743  -7.9998  -7.8382
    -7.6607  -7.5526  -7.4879  -7.4133  -7.2255  -7.0066  -6.9492  -6.7705
    -6.6938  -6.6317  -6.5271  -6.2378  -5.9507  -5.9229  -5.8505  -5.7425
    -5.5604  -5.2965  -5.0698  -5.0573  -4.9981  -4.5222  -4.2247  -3.5592
    -2.9091  -2.1341  -1.4386  -0.8811  -0.7121  -0.2930  -0.1591  -0.0613
    -0.0258   0.5396   0.6305   0.6892   0.7779   0.9282   0.9652   1.2587
     1.2841   1.4075   1.4208   1.4589   1.4653   1.7436   1.8335   1.8588
     1.9989   2.0330   2.0921   2.1078   2.1338   2.2742   2.2907   2.3722
     2.4091   2.4198   2.5807   2.5884   2.6514   2.7543   2.7631   2.8212
     2.8674   2.8882   2.9571   3.0011   3.0475   3.1694   3.2660   3.2703
     3.3424   3.4014   3.4014   3.4186   3.4407   3.4653   3.5518   3.5824
     3.6225   3.6515   3.6720   3.8092   3.8160   3.8228   3.8419   3.8768
     3.9215   4.0326   4.0429   4.0803   4.1263   4.1805   4.2164   4.2371
     4.2514   4.2577   4.3548   4.3990   4.4593   4.4765   4.5177   4.5313
     4.5856   4.6669   4.6835   4.7786   4.8146   4.8204   4.8771   4.8978
     4.9324   4.9479   5.0154   5.0572   5.0573   5.1150   5.1531   5.1645
     5.2090   5.2727   5.2747   5.2891   5.3497   5.4196   5.4580   5.5195
     5.5308   5.6000   5.6044   5.6438   5.6721   5.6731   5.7041   5.7602
     5.7791   5.8613   5.8916   5.9440   5.9714   5.9909   6.0347   6.0377
     6.0659   6.0935   6.1184   6.1475   6.1682   6.1805   6.2560   6.2701
     6.2757   6.3680   6.3746   6.3888   6.4435   6.4810   6.4863   6.4923
     6.4967   6.5169   6.5776   6.5923   6.6132   6.6588   6.6657   6.6904
     6.7075   6.7207   6.7501   6.8235   6.8265   6.8665   6.8732   6.9065
     6.9485   6.9782   6.9784   7.0206   7.0230   7.0512   7.0942   7.1474
     7.1782   7.2332   7.2433   7.2478   7.2931   7.3246   7.3751   7.3850
     7.4004   7.4443   7.4763   7.4911   7.5269   7.5455   7.5488   7.5649
     7.5859   7.6268   7.6273   7.6346   7.6394   7.7030   7.7320   7.7406
     7.8012   7.8250   7.8327   7.8425   7.8651   7.9151   7.9508   8.0140
     8.0369   8.0527   8.0677   8.0925   8.1144   8.1273   8.1387   8.1566
     8.1870   8.2200   8.2387   8.2912   8.2972   8.2990   8.3207   8.3752
     8.3953   8.4275   8.4337   8.4651   8.4822   8.4961   8.4994   8.5357
     8.5662   8.5912   8.5959   8.6626   8.6964   8.6998   8.7411   8.7519
     8.7661   8.8075   8.8262   8.8263   8.8353   8.8500   8.8958   8.9148
     8.9612   8.9724   8.9866   9.0083   9.0218   9.0579   9.0878   9.1062
     9.1568   9.1686   9.2121   9.2603   9.2747   9.2813   9.3293   9.3718
     9.3903   9.4279   9.4683   9.4832   9.5035   9.5251   9.6404   9.6559
     9.7002   9.7004   9.7488   9.7576   9.7801   9.8147   9.8367   9.8941
     9.9290   9.9384   9.9470   9.9793   9.9811  10.0314  10.0603  10.0787
    10.1012  10.1300  10.1694  10.1753  10.2045  10.2179  10.2291  10.2619
    10.2846  10.3225  10.3510  10.3860  10.4013  10.4389  10.4505  10.4688
    10.4735  10.5635  10.5744  10.6356  10.6586  10.6755  10.7128  10.7136
    10.7624  10.7738  10.7824  10.8088  10.8289  10.8387  10.8577  10.8817
    10.9153  10.9666  10.9714  10.9780  11.0055  11.0124  11.0174  11.0383
    11.0725  11.0816  11.0986  11.1199  11.1735  11.2015  11.2032  11.2499
    11.2519  11.2559  11.3006  11.3125  11.3469  11.3501  11.3709  11.3909
    11.4085  11.4927  11.4988  11.5297  11.5413  11.5447  11.6040  11.6141
    11.6161  11.6411  11.6506  11.7000  11.7228  11.7528  11.7603  11.7696
    11.7908  11.8300  11.8476  11.8626  11.8872  11.9190  11.9368  11.9515
    11.9771  12.0435  12.0762  12.1137  12.1192  12.1341  12.1816  12.1939
    12.2243  12.3064  12.3142  12.3253  12.3490  12.3551  12.3720  12.3829
    12.3971  12.4186  12.4382  12.4421  12.4604  12.4688  12.5147  12.5284
    12.5474  12.5714  12.5913  12.6274  12.6348  12.6551  12.6772  12.6883
    12.6977  12.7386  12.7739  12.7774  12.8068  12.8126  12.8289  12.8531
    12.8777  12.9164  12.9268  12.9696  12.9772  12.9858  12.9909  13.0489
    13.1127  13.1423  13.1504  13.1524

          k = 0.0000 0.0000 0.0142 ( 97443 PWs)   bands (ev):

   -21.7469 -21.2000 -21.1244 -20.6405 -20.6044 -20.2420 -19.9951 -19.7113
   -19.2359 -18.9590 -18.8341 -18.5294 -18.3768 -18.0661 -17.8960 -17.4619
   -17.4421 -17.3474 -17.1931 -16.7642 -16.5871 -16.1280 -15.4732 -15.3292
   -15.0218 -14.8152 -14.6295 -14.5656 -14.3082 -14.0464 -13.7292 -13.4114
   -13.1257 -13.0557 -12.8827 -12.5781 -12.5369 -12.3157 -12.0718 -11.6761
   -11.4069 -11.0308 -11.0155 -10.8399 -10.6128 -10.3517 -10.2520 -10.0638
    -9.8459  -9.8187  -9.6614  -9.5811  -9.5575  -9.3390  -9.2937  -9.2199
    -9.1830  -9.0991  -9.0088  -8.9691  -8.8810  -8.7895  -8.6540  -8.6034
    -8.5134  -8.4996  -8.4891  -8.3169  -8.1267  -8.0448  -7.9512  -7.8016
    -7.6952  -7.5621  -7.5101  -7.4538  -7.2004  -6.9855  -6.9474  -6.7471
    -6.6954  -6.6184  -6.5909  -6.2540  -5.9802  -5.9681  -5.8592  -5.7224
    -5.4993  -5.2964  -5.0971  -5.0171  -4.9924  -4.5245  -4.1990  -3.6047
    -2.8707  -2.1788  -1.3942  -0.9053  -0.7201  -0.2798  -0.1909  -0.0708
     0.0025   0.4678   0.6370   0.6957   0.7444   0.9349   1.0221   1.2879
     1.2903   1.3772   1.4174   1.4331   1.4683   1.7064   1.8418   1.9324
     2.0304   2.0734   2.1003   2.1106   2.1124   2.2450   2.2944   2.3716
     2.4148   2.4332   2.5837   2.5915   2.6289   2.7581   2.8087   2.8127
     2.8660   2.9055   2.9555   2.9846   3.0425   3.1490   3.2885   3.2934
     3.3499   3.3660   3.3944   3.4167   3.4311   3.4626   3.5184   3.6121
     3.6484   3.6555   3.6627   3.8001   3.8179   3.8201   3.8214   3.8679
     3.9303   4.0032   4.0932   4.0995   4.1455   4.1780   4.2016   4.2163
     4.2481   4.2732   4.3635   4.4006   4.4384   4.4858   4.4961   4.5701
     4.6137   4.6332   4.6931   4.7307   4.8195   4.8269   4.8663   4.9158
     4.9441   4.9576   5.0341   5.0517   5.0825   5.1297   5.1532   5.1648
     5.1817   5.2360   5.2810   5.2826   5.3574   5.3901   5.4274   5.5045
     5.5375   5.5755   5.5888   5.6383   5.6423   5.6592   5.7133   5.7278
     5.7575   5.8442   5.8843   5.8960   5.9530   5.9741   5.9843   6.0335
     6.0739   6.0887   6.1377   6.1619   6.1795   6.1990   6.2437   6.2857
     6.3014   6.3470   6.3972   6.4054   6.4234   6.4548   6.5031   6.5196
     6.5271   6.5496   6.5720   6.5726   6.6199   6.6336   6.6656   6.7004
     6.7176   6.7236   6.7684   6.7695   6.8377   6.8452   6.8830   6.9017
     6.9481   6.9759   6.9917   7.0059   7.0287   7.0795   7.1116   7.1280
     7.2011   7.2117   7.2727   7.2860   7.3112   7.3203   7.3438   7.3839
     7.4052   7.4109   7.4556   7.4592   7.4963   7.5285   7.5454   7.5507
     7.5547   7.5903   7.6332   7.6650   7.6841   7.7224   7.7299   7.7482
     7.7803   7.8093   7.8394   7.8663   7.8830   7.9266   7.9696   8.0361
     8.0605   8.0635   8.0824   8.0938   8.0993   8.1478   8.1611   8.1673
     8.2188   8.2317   8.2564   8.2900   8.3086   8.3108   8.3516   8.3779
     8.3821   8.4002   8.4411   8.4773   8.4781   8.4995   8.5212   8.5630
     8.5888   8.6076   8.6193   8.6777   8.6987   8.7130   8.7528   8.7607
     8.7951   8.8120   8.8233   8.8387   8.8790   8.8918   8.9236   8.9403
     8.9549   8.9895   8.9946   9.0166   9.0702   9.0721   9.0724   9.1019
     9.1435   9.1595   9.2097   9.2347   9.2532   9.3203   9.3673   9.3712
     9.3947   9.4626   9.4736   9.4919   9.4992   9.5334   9.6094   9.6363
     9.6938   9.6986   9.7569   9.7758   9.8039   9.8238   9.8298   9.8667
     9.8902   9.9442   9.9445  10.0066  10.0070  10.0228  10.0719  10.0863
    10.1427  10.1680  10.1963  10.2094  10.2124  10.2163  10.2303  10.2749
    10.2791  10.3440  10.3740  10.3852  10.4127  10.4257  10.4308  10.4499
    10.4656  10.5427  10.5498  10.6044  10.6158  10.6222  10.6645  10.6791
    10.7352  10.7394  10.7425  10.7957  10.8258  10.8282  10.8348  10.8645
    10.8923  10.9442  10.9454  10.9700  10.9771  10.9884  11.0154  11.0203
    11.0389  11.0827  11.0932  11.0989  11.1514  11.1518  11.1904  11.2099
    11.2265  11.2399  11.3059  11.3084  11.3089  11.3385  11.3592  11.3801
    11.3933  11.4623  11.4758  11.5105  11.5247  11.5397  11.5760  11.5993
    11.6041  11.6447  11.6702  11.6962  11.7042  11.7107  11.7488  11.7511
    11.7918  11.8175  11.8462  11.8535  11.9017  11.9053  11.9159  11.9619
    11.9709  12.0136  12.0555  12.1008  12.1240  12.1297  12.1387  12.2044
    12.2273  12.2580  12.3007  12.3112  12.3243  12.3437  12.3551  12.3696
    12.3940  12.4032  12.4236  12.4332  12.4452  12.4677  12.4881  12.5315
    12.5418  12.5576  12.5892  12.6218  12.6440  12.6453  12.6807  12.7014
    12.7271  12.7382  12.7403  12.7832  12.7954  12.8105  12.8393  12.8655
    12.9232  12.9261  12.9567  12.9678  12.9756  13.0142  13.0375  13.0650
    13.1291  13.1327  13.1415  13.1610

          k = 0.0000 0.0000 0.0160 ( 97489 PWs)   bands (ev):

   -21.7413 -21.2179 -21.1287 -20.6359 -20.5933 -20.2356 -19.9658 -19.7287
   -19.2166 -19.0146 -18.8254 -18.5495 -18.4250 -18.0378 -17.8383 -17.5069
   -17.4265 -17.3108 -17.1952 -16.7563 -16.5422 -16.1635 -15.4652 -15.3631
   -15.0366 -14.8119 -14.6815 -14.5401 -14.3198 -14.0639 -13.7028 -13.4302
   -13.1285 -13.0614 -12.8641 -12.5536 -12.5034 -12.2888 -12.0274 -11.6813
   -11.4017 -11.0177 -10.9969 -10.8366 -10.6701 -10.3945 -10.3078 -10.0958
    -9.8793  -9.8119  -9.6749  -9.5557  -9.5282  -9.3845  -9.3085  -9.1969
    -9.1748  -9.1115  -9.0185  -8.9736  -8.8515  -8.7702  -8.6379  -8.5945
    -8.5313  -8.4953  -8.4532  -8.3183  -8.1213  -8.0153  -7.8988  -7.7646
    -7.7318  -7.5713  -7.5313  -7.4932  -7.1755  -6.9649  -6.9477  -6.7440
    -6.6771  -6.6546  -6.6038  -6.2698  -6.0381  -5.9877  -5.8689  -5.7020
    -5.4378  -5.2974  -5.1367  -4.9980  -4.9542  -4.5252  -4.1764  -3.6489
    -2.8347  -2.2215  -1.3523  -0.9248  -0.7281  -0.2708  -0.2296  -0.0931
     0.0572   0.3951   0.6445   0.7030   0.7067   0.9425   1.0812   1.2898
     1.3234   1.3456   1.3937   1.4339   1.4715   1.6699   1.8500   1.9923
     2.0313   2.1020   2.1078   2.1163   2.1442   2.2222   2.2969   2.3357
     2.4263   2.4784   2.5852   2.5886   2.6167   2.7639   2.7920   2.8612
     2.8644   2.8771   2.9661   3.0012   3.0455   3.1213   3.2979   3.3132
     3.3415   3.3583   3.3763   3.4224   3.4380   3.4583   3.4865   3.6043
     3.6555   3.6648   3.7006   3.7641   3.7894   3.7978   3.8272   3.8916
     3.9601   3.9761   4.0874   4.1426   4.1559   4.1726   4.1975   4.2071
     4.2431   4.3226   4.3317   4.4016   4.4497   4.4639   4.5085   4.6011
     4.6211   4.6369   4.6499   4.7220   4.8333   4.8343   4.8401   4.9006
     4.9838   4.9945   5.0178   5.0473   5.0579   5.0887   5.1300   5.2061
     5.2067   5.2252   5.2757   5.2938   5.3541   5.3896   5.3982   5.4991
     5.5442   5.5516   5.5573   5.6112   5.6223   5.6653   5.7059   5.7251
     5.7449   5.8273   5.8360   5.8894   5.8919   5.9148   5.9910   6.0282
     6.0568   6.0926   6.1282   6.1704   6.1926   6.2101   6.2882   6.2934
     6.3371   6.3402   6.3407   6.3999   6.4330   6.4498   6.4797   6.5335
     6.5571   6.5652   6.5664   6.5827   6.6055   6.6484   6.6758   6.6792
     6.7233   6.7355   6.7611   6.8022   6.8083   6.8655   6.8902   6.9044
     6.9230   6.9578   6.9999   7.0334   7.0508   7.1082   7.1159   7.1545
     7.1643   7.2071   7.2587   7.2927   7.3151   7.3308   7.3560   7.3602
     7.3846   7.3892   7.4441   7.4531   7.4600   7.5091   7.5308   7.5381
     7.5419   7.5876   7.6583   7.6644   7.6924   7.7212   7.7470   7.7667
     7.7912   7.8231   7.8328   7.8654   7.9223   7.9361   8.0091   8.0204
     8.0261   8.0602   8.0800   8.1317   8.1495   8.1573   8.1726   8.2153
     8.2243   8.2460   8.2756   8.2949   8.3136   8.3323   8.3473   8.3501
     8.3974   8.4014   8.4379   8.4757   8.5163   8.5164   8.5427   8.5989
     8.5996   8.6359   8.6465   8.6654   8.6804   8.7084   8.7431   8.7769
     8.8093   8.8269   8.8473   8.8850   8.9000   8.9215   8.9318   8.9411
     8.9816   9.0053   9.0132   9.0376   9.0708   9.0985   9.1158   9.1293
     9.1438   9.1607   9.2006   9.2077   9.2541   9.3499   9.3612   9.3723
     9.4408   9.4755   9.4817   9.4874   9.5174   9.5505   9.5817   9.6164
     9.6835   9.7036   9.7203   9.7839   9.7917   9.8141   9.8146   9.8474
     9.9026   9.9507   9.9582  10.0241  10.0343  10.0382  10.0864  10.1075
    10.1524  10.1774  10.2019  10.2164  10.2308  10.2382  10.2446  10.2763
    10.3146  10.3362  10.3803  10.3846  10.4131  10.4219  10.4296  10.4372
    10.4763  10.4791  10.5475  10.5570  10.5572  10.6062  10.6289  10.6693
    10.6836  10.7144  10.7196  10.7570  10.8004  10.8091  10.8239  10.8301
    10.8990  10.9035  10.9085  10.9091  10.9530  10.9761  11.0020  11.0189
    11.0546  11.0698  11.0800  11.0849  11.1128  11.1349  11.1693  11.1934
    11.2046  11.2309  11.2501  11.2841  11.3085  11.3334  11.3417  11.3753
    11.4084  11.4157  11.4468  11.4891  11.5098  11.5317  11.5496  11.5847
    11.5906  11.6428  11.6537  11.6680  11.6961  11.7306  11.7373  11.7416
    11.7922  11.8078  11.8157  11.8321  11.8768  11.8964  11.9224  11.9616
    11.9780  11.9878  11.9933  12.0733  12.1016  12.1309  12.1400  12.1931
    12.1931  12.2457  12.2636  12.2781  12.2863  12.3015  12.3532  12.3565
    12.3750  12.3944  12.4200  12.4421  12.4470  12.4739  12.4966  12.5020
    12.5381  12.5396  12.5932  12.6074  12.6381  12.6532  12.6701  12.6950
    12.7096  12.7472  12.7609  12.7834  12.8192  12.8192  12.8407  12.8572
    12.9367  12.9464  12.9756  12.9966  13.0262  13.0424  13.0885  13.1108
    13.1110  13.1436  13.1455  13.1808

          k = 0.0000 0.0000 0.0177 ( 97425 PWs)   bands (ev):

   -21.7350 -21.2394 -21.1281 -20.6564 -20.5566 -20.2289 -19.9366 -19.7444
   -19.2003 -19.0668 -18.8164 -18.5733 -18.4686 -18.0115 -17.7773 -17.5564
   -17.4186 -17.2668 -17.1913 -16.7489 -16.5017 -16.1949 -15.4782 -15.3903
   -15.0375 -14.8077 -14.7337 -14.5151 -14.3368 -14.0834 -13.6833 -13.4418
   -13.1645 -13.0343 -12.8395 -12.5327 -12.4655 -12.2604 -11.9884 -11.6785
   -11.3928 -11.0068 -10.9836 -10.8328 -10.7258 -10.4374 -10.3619 -10.1305
    -9.9105  -9.8043  -9.7008  -9.5433  -9.4733  -9.4564  -9.2974  -9.2182
    -9.1343  -9.1150  -9.0268  -8.9810  -8.8265  -8.7478  -8.6171  -8.5865
    -8.5578  -8.4893  -8.4082  -8.3227  -8.1150  -7.9859  -7.8461  -7.7694
    -7.7287  -7.5807  -7.5502  -7.5302  -7.1510  -6.9491  -6.9452  -6.7549
    -6.7177  -6.6456  -6.5887  -6.2849  -6.0956  -6.0095  -5.8796  -5.6818
    -5.3777  -5.2998  -5.1763  -4.9904  -4.9037  -4.5246  -4.1575  -3.6917
    -2.8014  -2.2618  -1.3137  -0.9386  -0.7356  -0.2946  -0.2415  -0.1090
     0.1123   0.3240   0.6528   0.6681   0.7111   0.9510   1.1366   1.2843
     1.3184   1.3580   1.3694   1.4410   1.4768   1.6344   1.8578   2.0056
     2.0299   2.0880   2.1411   2.1588   2.2002   2.2085   2.2859   2.3151
     2.4305   2.5298   2.5682   2.5948   2.6193   2.7713   2.7723   2.8448
     2.8510   2.9171   2.9523   3.0512   3.0516   3.0929   3.2777   3.3099
     3.3404   3.3474   3.4026   3.4313   3.4364   3.4510   3.4699   3.5785
     3.6713   3.6732   3.7093   3.7555   3.7571   3.7679   3.8387   3.9185
     3.9594   3.9937   4.0706   4.1230   4.1545   4.1864   4.2100   4.2464
     4.2481   4.3062   4.3660   4.3750   4.4324   4.5003   4.5179   4.5714
     4.5844   4.6658   4.6713   4.7389   4.8125   4.8302   4.8430   4.8985
     4.9629   4.9776   4.9979   5.0422   5.0540   5.0684   5.1464   5.2136
     5.2320   5.2452   5.2792   5.3157   5.3204   5.3561   5.4416   5.5027
     5.5222   5.5363   5.5388   5.5806   5.6074   5.6605   5.6927   5.7345
     5.7452   5.7870   5.8205   5.8258   5.8507   5.8878   5.9918   6.0240
     6.0454   6.0675   6.1136   6.1804   6.1848   6.2299   6.2660   6.2910
     6.3394   6.3544   6.3775   6.3959   6.4132   6.4548   6.4665   6.4799
     6.5430   6.5854   6.5998   6.6071   6.6252   6.6605   6.6638   6.7040
     6.7239   6.7328   6.7417   6.7797   6.8426   6.8917   6.9037   6.9129
     6.9485   6.9508   6.9975   7.0471   7.0810   7.0889   7.1161   7.1379
     7.1664   7.2209   7.2454   7.2884   7.2972   7.3044   7.3292   7.3521
     7.3762   7.3840   7.4121   7.4371   7.4990   7.5066   7.5225   7.5367
     7.5465   7.5873   7.6482   7.6801   7.6994   7.7165   7.7579   7.7690
     7.8149   7.8229   7.8471   7.9028   7.9396   7.9584   7.9931   8.0093
     8.0274   8.0757   8.0795   8.1401   8.1656   8.1854   8.1942   8.2312
     8.2424   8.2597   8.2690   8.3030   8.3114   8.3334   8.3465   8.3548
     8.4090   8.4453   8.4783   8.4793   8.5316   8.5377   8.5421   8.6053
     8.6362   8.6376   8.6430   8.6911   8.7039   8.7341   8.7379   8.7653
     8.8037   8.8282   8.8633   8.8915   8.9278   8.9366   8.9651   8.9717
     8.9861   9.0104   9.0464   9.0750   9.0983   9.1091   9.1294   9.1397
     9.1639   9.1917   9.2076   9.2350   9.2799   9.3242   9.3490   9.4168
     9.4442   9.4476   9.4911   9.4966   9.5378   9.5712   9.5974   9.6144
     9.6436   9.6824   9.7086   9.7359   9.7582   9.7987   9.8300   9.8563
     9.9339   9.9586  10.0003  10.0265  10.0569  10.0591  10.0917  10.1070
    10.1441  10.1734  10.2130  10.2190  10.2305  10.2542  10.2725  10.2824
    10.3272  10.3347  10.3604  10.3774  10.3903  10.3949  10.4334  10.4423
    10.4610  10.4893  10.4975  10.5398  10.5702  10.5985  10.6006  10.6301
    10.6715  10.6923  10.6962  10.7006  10.7527  10.7923  10.8105  10.8346
    10.8473  10.8600  10.8752  10.8990  10.9177  10.9698  10.9856  11.0008
    11.0200  11.0416  11.0569  11.0831  11.1096  11.1227  11.1562  11.1807
    11.1981  11.2223  11.2227  11.2643  11.2921  11.3095  11.3431  11.3524
    11.3701  11.3833  11.4497  11.4758  11.4937  11.5142  11.5389  11.5689
    11.5788  11.6021  11.6534  11.6616  11.6770  11.7194  11.7240  11.7557
    11.7720  11.7813  11.8048  11.8299  11.8357  11.8635  11.9162  11.9313
    11.9558  11.9860  11.9961  12.0116  12.0943  12.1305  12.1428  12.1649
    12.1664  12.1821  12.2196  12.2304  12.2593  12.2921  12.3326  12.3718
    12.3732  12.3925  12.3959  12.4206  12.4231  12.4598  12.5000  12.5196
    12.5253  12.5517  12.5681  12.6082  12.6092  12.6665  12.6724  12.6897
    12.7164  12.7560  12.7742  12.7859  12.8508  12.8555  12.8572  12.8824
    12.9249  12.9393  13.0017  13.0185  13.0317  13.0904  13.0988  13.1187
    13.1427  13.1519  13.1578  13.2092

          k = 0.0000 0.0000 0.0195 ( 97457 PWs)   bands (ev):

   -21.7281 -21.2625 -21.1247 -20.6784 -20.5174 -20.2219 -19.9097 -19.7564
   -19.1947 -19.1080 -18.8075 -18.6038 -18.5035 -17.9868 -17.7149 -17.6045
   -17.4171 -17.2337 -17.1696 -16.7425 -16.4681 -16.2207 -15.5110 -15.4100
   -15.0260 -14.8068 -14.7807 -14.4927 -14.3563 -14.1039 -13.6782 -13.4401
   -13.2038 -13.0060 -12.8082 -12.5150 -12.4234 -12.2309 -11.9588 -11.6642
   -11.3803 -11.0004 -10.9774 -10.8299 -10.7766 -10.4803 -10.4120 -10.1674
    -9.9391  -9.7959  -9.7299  -9.5480  -9.5132  -9.4138  -9.2875  -9.2437
    -9.1128  -9.1057  -9.0245  -8.9896  -8.8070  -8.7238  -8.5924  -8.5847
    -8.5797  -8.4807  -8.3619  -8.3292  -8.1079  -7.9578  -7.8143  -7.7883
    -7.6974  -7.5935  -7.5632  -7.5602  -7.1273  -6.9511  -6.9271  -6.7795
    -6.7705  -6.6108  -6.5736  -6.2991  -6.1516  -6.0336  -5.8913  -5.6620
    -5.3235  -5.3050  -5.2096  -4.9823  -4.8536  -4.5227  -4.1431  -3.7327
    -2.7709  -2.2996  -1.2790  -0.9459  -0.7425  -0.3429  -0.2311  -0.1214
     0.1582   0.2632   0.6295   0.6620   0.7201   0.9604   1.1851   1.2642
     1.2974   1.3551   1.3912   1.4492   1.4883   1.6002   1.8646   1.9761
     2.0491   2.0665   2.1795   2.1984   2.2080   2.2520   2.2777   2.3169
     2.4307   2.5522   2.5819   2.6019   2.6278   2.7506   2.7790   2.8140
     2.8349   2.9454   2.9707   3.0561   3.0594   3.1104   3.2455   3.2809
     3.3400   3.3640   3.3996   3.4305   3.4388   3.4577   3.4806   3.5546
     3.6727   3.6744   3.6844   3.7226   3.7258   3.8039   3.8521   3.9390
     3.9638   4.0078   4.0672   4.0882   4.1396   4.2123   4.2169   4.2738
     4.2762   4.3107   4.3337   4.4019   4.4284   4.4746   4.5365   4.5590
     4.5731   4.6856   4.7178   4.7575   4.7860   4.8128   4.8533   4.8987
     4.8991   4.9097   4.9593   5.0596   5.0772   5.1011   5.1660   5.2070
     5.2298   5.2548   5.2777   5.3223   5.3389   5.3531   5.4736   5.4879
     5.4986   5.5232   5.5346   5.5573   5.6083   5.6480   5.6769   5.7285
     5.7432   5.7622   5.7624   5.7836   5.8292   5.8870   5.9756   6.0193
     6.0362   6.0412   6.0928   6.1705   6.1869   6.2142   6.2360   6.2856
     6.3291   6.3486   6.3846   6.4032   6.4121   6.4483   6.4821   6.4873
     6.5032   6.6098   6.6196   6.6296   6.6433   6.6578   6.6754   6.6804
     6.7259   6.7459   6.7564   6.7864   6.8378   6.9064   6.9135   6.9524
     6.9709   6.9929   6.9962   7.0373   7.0662   7.0698   7.0942   7.1295
     7.1889   7.2065   7.2287   7.2553   7.2899   7.3045   7.3083   7.3474
     7.3518   7.3835   7.3895   7.4452   7.4846   7.5362   7.5369   7.5586
     7.5595   7.5922   7.6459   7.6934   7.7022   7.7102   7.7662   7.7824
     7.8001   7.8227   7.9068   7.9342   7.9419   7.9637   7.9676   8.0185
     8.0423   8.0767   8.0972   8.1378   8.1641   8.1815   8.1973   8.2451
     8.2460   8.2704   8.2772   8.3037   8.3195   8.3384   8.3525   8.4110
     8.4390   8.4640   8.4847   8.5232   8.5332   8.5422   8.5668   8.5907
     8.6240   8.6825   8.6865   8.7283   8.7296   8.7315   8.7510   8.7764
     8.8057   8.8296   8.8600   8.8757   8.9326   8.9581   8.9637   8.9905
     9.0335   9.0432   9.0792   9.0899   9.1145   9.1229   9.1288   9.1654
     9.1769   9.2360   9.2774   9.2795   9.3047   9.3086   9.3375   9.4042
     9.4385   9.4489   9.4699   9.5060   9.5498   9.5796   9.5822   9.6270
     9.6351   9.6564   9.7051   9.7354   9.7436   9.7860   9.8244   9.8984
     9.9498   9.9681   9.9956  10.0383  10.0385  10.0866  10.0943  10.1037
    10.1532  10.1584  10.1988  10.2220  10.2378  10.2569  10.2766  10.2907
    10.3018  10.3119  10.3237  10.3608  10.3645  10.4099  10.4226  10.4387
    10.4744  10.5075  10.5111  10.5277  10.5638  10.5711  10.5928  10.6282
    10.6455  10.6675  10.6747  10.6772  10.7284  10.7654  10.7750  10.8084
    10.8086  10.8438  10.8810  10.8872  10.8875  10.9363  10.9501  10.9705
    10.9814  11.0235  11.0374  11.0649  11.0825  11.1047  11.1445  11.1846
    11.1895  11.2041  11.2463  11.2511  11.2583  11.3153  11.3158  11.3281
    11.3350  11.3673  11.4172  11.4569  11.4784  11.5024  11.5261  11.5529
    11.5792  11.5831  11.6414  11.6470  11.6793  11.6798  11.6969  11.7167
    11.7411  11.7473  11.8143  11.8365  11.8401  11.8449  11.8671  11.8740
    11.9261  11.9866  12.0160  12.0332  12.0464  12.0660  12.1331  12.1423
    12.1472  12.1553  12.1745  12.1828  12.2393  12.2784  12.2954  12.3448
    12.3495  12.3794  12.3855  12.4027  12.4389  12.4397  12.4632  12.5084
    12.5466  12.5675  12.5702  12.6039  12.6180  12.6636  12.6879  12.7106
    12.7200  12.7756  12.7759  12.8120  12.8585  12.8692  12.8829  12.9079
    12.9393  12.9578  13.0067  13.0223  13.0250  13.0682  13.1002  13.1203
    13.1361  13.1442  13.1799  13.2026

          k = 0.0000 0.0000 0.0213 ( 97423 PWs)   bands (ev):

   -21.7205 -21.2860 -21.1196 -20.7006 -20.4773 -20.2145 -19.8886 -19.7612
   -19.2179 -19.1202 -18.7995 -18.6426 -18.5271 -17.9635 -17.6678 -17.6348
   -17.4194 -17.2203 -17.1240 -16.7375 -16.4444 -16.2383 -15.5528 -15.4291
   -15.0051 -14.8422 -14.7880 -14.4779 -14.3725 -14.1250 -13.6898 -13.4264
   -13.2383 -12.9823 -12.7715 -12.4997 -12.3769 -12.2009 -11.9403 -11.6358
   -11.3645 -11.0061 -10.9745 -10.8503 -10.7979 -10.5268 -10.4528 -10.2057
    -9.9656  -9.7867  -9.7592  -9.6161  -9.5044  -9.3547  -9.2827  -9.2709
    -9.1075  -9.0936  -9.0140  -8.9892  -8.7924  -8.6997  -8.6115  -8.5759
    -8.5637  -8.4687  -8.3372  -8.3148  -8.1001  -7.9346  -7.8466  -7.7450
    -7.6780  -7.6188  -7.5715  -7.5629  -7.1050  -6.9530  -6.9135  -6.8372
    -6.7879  -6.5751  -6.5597  -6.3135  -6.2038  -6.0598  -5.9041  -5.6427
    -5.3191  -5.2937  -5.2116  -4.9729  -4.8051  -4.5195  -4.1336  -3.7715
    -2.7436  -2.3345  -1.2483  -0.9463  -0.7483  -0.3929  -0.2198  -0.1316
     0.1460   0.2618   0.5914   0.6721   0.7300   0.9707   1.2249   1.2360
     1.2743   1.3533   1.4149   1.4575   1.5152   1.5677   1.8685   1.9493
     2.0403   2.0572   2.2024   2.2209   2.2249   2.2473   2.3228   2.3584
     2.4254   2.5450   2.6096   2.6215   2.6499   2.7277   2.7759   2.7968
     2.8147   2.9442   3.0243   3.0269   3.0682   3.1638   3.2121   3.2474
     3.3380   3.3741   3.3777   3.4201   3.4424   3.4704   3.5169   3.5358
     3.6365   3.6647   3.6837   3.6924   3.6979   3.8512   3.8645   3.9593
     3.9840   3.9895   4.0528   4.0785   4.1390   4.2229   4.2258   4.2670
     4.3008   4.3227   4.3635   4.3721   4.4051   4.4829   4.5143   4.5865
     4.6070   4.6951   4.7447   4.7621   4.7698   4.8004   4.8246   4.8455
     4.8701   4.8848   4.9433   5.0648   5.1095   5.1325   5.1706   5.1828
     5.2329   5.2639   5.2670   5.3156   5.3818   5.3884   5.4529   5.4605
     5.4763   5.5276   5.5330   5.5771   5.6168   5.6311   5.6516   5.7034
     5.7111   5.7186   5.7293   5.7731   5.8435   5.8882   5.9348   6.0095
     6.0245   6.0405   6.0704   6.1105   6.1892   6.2118   6.2168   6.2650
     6.3022   6.3287   6.3753   6.3960   6.3982   6.4608   6.4611   6.5212
     6.5605   6.5856   6.6216   6.6349   6.6440   6.6734   6.6787   6.6921
     6.7407   6.7677   6.7952   6.8081   6.8276   6.9043   6.9246   6.9598
     6.9746   6.9882   7.0209   7.0418   7.0487   7.0600   7.0935   7.1400
     7.1636   7.1667   7.2122   7.2342   7.2668   7.3015   7.3160   7.3466
     7.3596   7.3790   7.3924   7.4614   7.4673   7.5293   7.5435   7.5849
     7.5988   7.6095   7.6694   7.6823   7.7098   7.7169   7.7572   7.7764
     7.8388   7.8493   7.9038   7.9338   7.9391   7.9695   7.9786   8.0283
     8.0472   8.0777   8.1167   8.1406   8.1457   8.1676   8.2084   8.2377
     8.2447   8.2635   8.3016   8.3221   8.3312   8.3614   8.3715   8.4370
     8.4530   8.4900   8.4939   8.5415   8.5528   8.5553   8.5853   8.6106
     8.6453   8.6963   8.7194   8.7285   8.7515   8.7684   8.7990   8.8091
     8.8146   8.8299   8.8313   8.8980   8.9291   8.9328   8.9821   9.0302
     9.0508   9.0569   9.0849   9.0852   9.1253   9.1586   9.1701   9.2017
     9.2363   9.2664   9.2685   9.3080   9.3123   9.3232   9.3596   9.3994
     9.4414   9.4533   9.4686   9.4841   9.5045   9.5665   9.5873   9.6280
     9.6445   9.6809   9.7172   9.7420   9.7537   9.8050   9.8232   9.9308
     9.9571   9.9627   9.9826   9.9979  10.0169  10.0610  10.0918  10.1183
    10.1492  10.1662  10.1946  10.2055  10.2351  10.2462  10.2602  10.2620
    10.2674  10.3262  10.3264  10.3416  10.3506  10.3976  10.4139  10.4360
    10.4901  10.5192  10.5272  10.5456  10.5530  10.5535  10.5696  10.6202
    10.6336  10.6453  10.6644  10.6907  10.7086  10.7474  10.7488  10.7689
    10.7827  10.8383  10.8684  10.8751  10.8767  10.8835  10.9197  10.9400
    10.9645  10.9985  11.0043  11.0451  11.0637  11.0807  11.1305  11.1573
    11.1896  11.2014  11.2263  11.2583  11.2583  11.2805  11.2919  11.2982
    11.3397  11.3760  11.3887  11.4023  11.4603  11.4864  11.5117  11.5435
    11.5619  11.5787  11.5914  11.6236  11.6487  11.6709  11.6859  11.6937
    11.6988  11.7202  11.7811  11.7958  11.8289  11.8459  11.8720  11.9004
    11.9102  11.9644  11.9766  11.9852  12.0368  12.0501  12.0893  12.0944
    12.1296  12.1346  12.1637  12.1643  12.2269  12.2358  12.2476  12.3030
    12.3039  12.3596  12.3981  12.4001  12.4019  12.4150  12.4701  12.5121
    12.5661  12.5804  12.5833  12.6278  12.6365  12.6692  12.7065  12.7240
    12.7338  12.7478  12.7858  12.8341  12.8742  12.8841  12.9118  12.9432
    12.9444  12.9547  12.9884  13.0170  13.0330  13.0334  13.0755  13.1229
    13.1254  13.1635  13.1712  13.1955

          k = 0.0000 0.0000 0.0231 ( 97421 PWs)   bands (ev):

   -21.7123 -21.3096 -21.1133 -20.7224 -20.4365 -20.2067 -19.8783 -19.7538
   -19.2633 -19.1100 -18.7932 -18.6877 -18.5405 -17.9421 -17.7033 -17.5796
   -17.4244 -17.2133 -17.0691 -16.7343 -16.4333 -16.2466 -15.5956 -15.4516
   -14.9787 -14.8896 -14.7787 -14.4802 -14.3751 -14.1460 -13.7141 -13.4132
   -13.2590 -12.9632 -12.7322 -12.4850 -12.3261 -12.1716 -11.9316 -11.5944
   -11.3457 -11.0286 -10.9728 -10.8954 -10.7869 -10.5801 -10.4803 -10.2445
    -9.9908  -9.7876  -9.7768  -9.6902  -9.4874  -9.2987  -9.2985  -9.2832
    -9.1002  -9.0875  -9.0206  -8.9619  -8.7814  -8.6768  -8.6380  -8.5730
    -8.5347  -8.4530  -8.3462  -8.2672  -8.0914  -7.9329  -7.8639  -7.7083
    -7.6768  -7.6505  -7.5649  -7.5431  -7.0850  -6.9541  -6.9268  -6.8684
    -6.8059  -6.5484  -6.5394  -6.3333  -6.2457  -6.0880  -5.9178  -5.6244
    -5.3492  -5.2947  -5.1690  -4.9621  -4.7590  -4.5150  -4.1297  -3.8078
    -2.7196  -2.3664  -1.2215  -0.9403  -0.7526  -0.4413  -0.2116  -0.1387
     0.0846   0.3112   0.5544   0.6830   0.7406   0.9818   1.2061   1.2477
     1.2559   1.3589   1.4247   1.4643   1.5386   1.5609   1.8643   1.9315
     2.0117   2.0566   2.2025   2.2090   2.2587   2.2894   2.3303   2.4156
     2.4446   2.5471   2.6171   2.6343   2.6990   2.7047   2.7517   2.7927
     2.8046   2.9466   2.9959   3.0775   3.0792   3.1795   3.2131   3.2201
     3.3203   3.3610   3.3783   3.3996   3.4533   3.4772   3.5232   3.5573
     3.6045   3.6438   3.6518   3.6708   3.7067   3.8750   3.8995   3.9611
     3.9866   4.0073   4.0185   4.0672   4.1641   4.2225   4.2411   4.2628
     4.2807   4.3362   4.3431   4.3738   4.4185   4.4909   4.5380   4.6000
     4.6503   4.6875   4.7200   4.7369   4.7438   4.7679   4.8182   4.8356
     4.8455   4.8944   4.9599   5.0700   5.0876   5.1383   5.1719   5.2081
     5.2365   5.2621   5.2653   5.3254   5.4059   5.4181   5.4207   5.4424
     5.4532   5.5320   5.5416   5.6009   5.6058   5.6282   5.6326   5.6499
     5.6757   5.6923   5.7286   5.7857   5.8487   5.8674   5.9135   5.9965
     5.9989   6.0328   6.0588   6.0642   6.1699   6.1816   6.2285   6.2331
     6.2661   6.3118   6.3294   6.3923   6.4175   6.4709   6.4762   6.5111
     6.5420   6.6038   6.6218   6.6502   6.6639   6.6949   6.7038   6.7107
     6.7509   6.7908   6.8246   6.8247   6.8482   6.8824   6.9125   6.9477
     6.9698   6.9801   7.0163   7.0201   7.0455   7.0850   7.0953   7.1114
     7.1345   7.1637   7.2105   7.2327   7.2614   7.2781   7.3211   7.3252
     7.3777   7.3937   7.4449   7.4541   7.4736   7.5093   7.5540   7.5794
     7.6381   7.6417   7.6592   7.6979   7.7126   7.7541   7.7629   7.7893
     7.8669   7.8675   7.9016   7.9071   7.9179   7.9804   8.0075   8.0144
     8.0372   8.0762   8.1204   8.1371   8.1624   8.1838   8.2136   8.2215
     8.2352   8.2704   8.3233   8.3279   8.3485   8.3592   8.3852   8.4624
     8.4833   8.4986   8.5307   8.5351   8.5492   8.5969   8.6138   8.6292
     8.6838   8.7096   8.7494   8.7596   8.7687   8.7982   8.8078   8.8146
     8.8384   8.8575   8.8698   8.9050   8.9264   8.9467   8.9998   9.0211
     9.0306   9.0759   9.0827   9.1289   9.1338   9.1964   9.2058   9.2513
     9.2562   9.2566   9.2591   9.2972   9.3226   9.3295   9.3679   9.4014
     9.4580   9.4743   9.4749   9.5011   9.5096   9.5439   9.6013   9.6039
     9.6636   9.7006   9.7284   9.7583   9.7938   9.8170   9.8422   9.9164
     9.9214   9.9517   9.9830   9.9888  10.0141  10.0153  10.0566  10.1018
    10.1341  10.1498  10.1527  10.2098  10.2372  10.2375  10.2543  10.2646
    10.2790  10.2797  10.3071  10.3477  10.3490  10.3972  10.4103  10.4387
    10.4726  10.4932  10.5168  10.5529  10.5663  10.5759  10.5943  10.6007
    10.6277  10.6366  10.6419  10.6724  10.7154  10.7220  10.7536  10.7559
    10.7798  10.8032  10.8150  10.8357  10.8617  10.8872  10.9025  10.9329
    10.9353  10.9788  10.9828  11.0341  11.0563  11.0585  11.1285  11.1294
    11.1634  11.1682  11.2031  11.2432  11.2536  11.2741  11.2764  11.2854
    11.3191  11.3359  11.3711  11.4120  11.4475  11.4481  11.4898  11.5101
    11.5149  11.5528  11.5890  11.5947  11.6129  11.6345  11.6582  11.6770
    11.7039  11.7191  11.7644  11.7841  11.8034  11.8289  11.8438  11.8953
    11.9051  11.9423  11.9436  11.9662  12.0065  12.0377  12.0532  12.0549
    12.0662  12.1193  12.1582  12.1719  12.1839  12.1960  12.2197  12.2672
    12.2744  12.3079  12.3881  12.4003  12.4109  12.4154  12.4777  12.5191
    12.5625  12.5956  12.6076  12.6143  12.6674  12.6939  12.7088  12.7331
    12.7441  12.7629  12.7907  12.8396  12.8627  12.8943  12.9010  12.9335
    12.9513  12.9676  12.9800  13.0190  13.0292  13.0493  13.0766  13.1141
    13.1243  13.1443  13.1617  13.1963

          k = 0.0000 0.0000 0.0248 ( 97397 PWs)   bands (ev):

   -21.7034 -21.3328 -21.1061 -20.7439 -20.3951 -20.1984 -19.8800 -19.7331
   -19.3148 -19.0937 -18.7895 -18.7361 -18.5455 -17.9243 -17.7449 -17.5144
   -17.4314 -17.2064 -17.0120 -16.7335 -16.4340 -16.2479 -15.6344 -15.4777
   -14.9506 -14.9347 -14.7651 -14.5008 -14.3620 -14.1663 -13.7464 -13.4175
   -13.2542 -12.9473 -12.6944 -12.4685 -12.2713 -12.1444 -11.9282 -11.5433
   -11.3252 -11.0642 -10.9830 -10.9306 -10.7704 -10.6373 -10.4965 -10.2831
   -10.0162  -9.8186  -9.7660  -9.7579  -9.4695  -9.3261  -9.3001  -9.2360
    -9.0915  -9.0789  -9.0311  -8.9277  -8.7731  -8.6640  -8.6557  -8.5723
    -8.5050  -8.4340  -8.3554  -8.2190  -8.0819  -7.9639  -7.8533  -7.6959
    -7.6884  -7.6703  -7.5429  -7.5090  -7.0688  -6.9790  -6.9538  -6.8610
    -6.8231  -6.5409  -6.5040  -6.3679  -6.2662  -6.1181  -5.9326  -5.6073
    -5.3893  -5.2994  -5.1145  -4.9499  -4.7158  -4.5088  -4.1317  -3.8416
    -2.6989  -2.3950  -1.1978  -0.9291  -0.7552  -0.4867  -0.2106  -0.1406
     0.0177   0.3676   0.5192   0.6948   0.7521   0.9937   1.1762   1.2199
     1.2787   1.3681   1.4260   1.4642   1.5184   1.6186   1.8473   1.9278
     1.9821   2.0476   2.1895   2.2176   2.2938   2.3261   2.3387   2.4090
     2.5322   2.5574   2.6230   2.6387   2.6834   2.7293   2.7545   2.7710
     2.8161   2.9511   2.9662   3.0865   3.1326   3.1486   3.1819   3.2756
     3.2910   3.3500   3.3558   3.3905   3.4624   3.4824   3.5174   3.5510
     3.6145   3.6219   3.6254   3.6618   3.7190   3.8847   3.9302   3.9466
     3.9850   4.0050   4.0424   4.0446   4.1921   4.2074   4.2490   4.2622
     4.2679   4.3025   4.3147   4.4223   4.4712   4.4752   4.5924   4.6045
     4.6252   4.6684   4.6723   4.7126   4.7344   4.7370   4.8164   4.8427
     4.8629   4.9355   4.9789   5.0269   5.0755   5.1532   5.1602   5.2253
     5.2453   5.2519   5.2866   5.3487   5.3608   5.3979   5.4027   5.4613
     5.4830   5.5375   5.5418   5.5622   5.5669   5.6270   5.6356   5.6401
     5.6759   5.6949   5.7357   5.7899   5.8235   5.8449   5.9211   5.9383
     5.9773   6.0175   6.0367   6.0765   6.1273   6.1466   6.2117   6.2384
     6.2534   6.2592   6.2978   6.4056   6.4272   6.4530   6.4851   6.4938
[...]
     3.2445   3.2455   3.2902   3.3756   3.5417   3.5689   3.6044   3.6116
     3.6468   3.6966   3.7144   3.7314   3.7502   3.7593   3.8133   3.8303
     3.8600   3.9797   4.0184   4.0335   4.0479   4.0801   4.1260   4.1635
     4.3163   4.3428   4.3551   4.4297   4.4475   4.4834   4.5027   4.5596
     4.6374   4.6719   4.7896   4.7961   4.8613   4.9180   4.9306   4.9444
     4.9693   4.9860   4.9883   5.0110   5.0880   5.0940   5.1176   5.1578
     5.1649   5.1963   5.2368   5.2521   5.3140   5.3161   5.3433   5.3685
     5.3940   5.4199   5.4516   5.4983   5.5226   5.5464   5.6272   5.6313
     5.6989   5.7315   5.7643   5.8104   5.8179   5.8510   5.8511   5.9137
     5.9426   5.9783   5.9944   6.0322   6.0409   6.0847   6.1471   6.1661
     6.1898   6.2238   6.2949   6.3298   6.3349   6.3909   6.3981   6.4166
     6.4444   6.4497   6.4736   6.4833   6.5483   6.5936   6.6244   6.6620
     6.7103   6.7772   6.8019   6.8223   6.8684   6.9045   6.9437   6.9975
     6.9989   7.0345   7.0552   7.0899   7.1339   7.1597   7.1731   7.1919
     7.2199   7.2317   7.2433   7.2664   7.3397   7.3691   7.3936   7.4282
     7.4507   7.4538   7.4785   7.4904   7.5161   7.5283   7.5818   7.5974
     7.6231   7.6502   7.6909   7.6986   7.7170   7.7240   7.7910   7.8116
     7.8487   7.8640   7.9439   8.0251   8.0470   8.0616   8.0897   8.1335
     8.1707   8.1937   8.2089   8.2530   8.2797   8.3053   8.3146   8.3188
     8.3432   8.3828   8.4096   8.4310   8.4507   8.4591   8.5193   8.5354
     8.5622   8.5731   8.6049   8.6155   8.6239   8.6400   8.6634   8.6971
     8.7063   8.7556   8.7967   8.8238   8.8354   8.8524   8.9278   8.9311
     8.9569   8.9726   8.9749   9.0088   9.0628   9.0773   9.0996   9.1212
     9.1542   9.1760   9.2145   9.2163   9.2400   9.2427   9.2509   9.2820
     9.2885   9.3409   9.3682   9.4147   9.4363   9.4438   9.4547   9.4695
     9.5013   9.5255   9.5288   9.5609   9.6047   9.6257   9.6423   9.6837
     9.7021   9.7227   9.7305   9.7412   9.7616   9.7945   9.8141   9.8479
     9.8722   9.8801   9.9125   9.9313   9.9726   9.9875   9.9977  10.0182
    10.0441  10.0855  10.1211  10.1372  10.1483  10.2085  10.2319  10.2407
    10.2584  10.2761  10.2966  10.3266  10.3492  10.3718  10.3793  10.4025
    10.4088  10.4320  10.4439  10.4498  10.4642  10.4839  10.5032  10.5060
    10.5386  10.5407  10.5446  10.5738  10.5997  10.6173  10.6625  10.7031
    10.7209  10.7483  10.7584  10.7647  10.8033  10.8274  10.8460  10.8480
    10.8522  10.8993  10.9106  10.9162  10.9379  10.9791  10.9840  11.0178
    11.0565  11.0654  11.0978  11.1156  11.1358  11.1515  11.1695  11.1940
    11.2017  11.2017  11.2348  11.2500  11.2529  11.2939  11.2942  11.3168
    11.3455  11.3486  11.3880  11.4135  11.4312  11.4713  11.5041  11.5113
    11.5520  11.5734  11.5829  11.5928  11.6301  11.6571  11.7113  11.7290
    11.7453  11.7820  11.8002  11.8090  11.8106  11.8119  11.9296  11.9311
    11.9586  11.9695  12.0628  12.1668  12.1765  12.1887  12.2209  12.2212
    12.2452  12.2794  12.2917  12.3435  12.3648  12.3910  12.4634  12.4967
    12.5444  12.5794  12.6053  12.6315  12.6335  12.6846  12.7193  12.7304
    12.7388  12.7764  12.7839  12.8070  12.8133  12.8303  12.8499  12.8898
    12.9255  12.9650  12.9675  13.0194  13.0214  13.0993  13.1152  13.1248
    13.1727  13.1798  13.1957  13.2304

          k = 0.0000 0.0000 0.0408 ( 97406 PWs)   bands (ev):

   -21.6012 -21.5103 -21.0234 -20.8986 -20.1229 -20.0269 -19.9601 -19.7823
   -19.3730 -19.1846 -18.9378 -18.8741 -18.3604 -18.1779 -17.7107 -17.5371
   -17.1276 -16.8961 -16.8277 -16.6603 -16.5267 -16.4349 -15.7872 -15.6010
   -15.1240 -14.9702 -14.6983 -14.4265 -14.3177 -14.2178 -14.0507 -13.6797
   -12.9716 -12.7928 -12.6839 -12.2346 -11.9370 -11.7172 -11.6625 -11.6412
   -11.4751 -11.3343 -10.9806 -10.9128 -10.8453 -10.7279 -10.5688 -10.4848
   -10.4092 -10.2080  -9.7368  -9.6390  -9.5849  -9.5423  -9.2976  -9.2014
    -8.9858  -8.9125  -8.8564  -8.7581  -8.7275  -8.6990  -8.6089  -8.5239
    -8.4847  -8.4357  -8.2727  -8.1493  -8.0024  -7.9950  -7.8514  -7.8432
    -7.7345  -7.5140  -7.4583  -7.2245  -7.1199  -7.0933  -7.0766  -6.8626
    -6.7391  -6.6490  -6.6045  -6.4523  -6.2154  -6.1108  -6.0328  -5.8178
    -5.4759  -5.3413  -4.8469  -4.7089  -4.5304  -4.3696  -4.2542  -4.0854
    -2.6239  -2.5231  -0.9771  -0.8772  -0.7566  -0.6004  -0.5298  -0.3162
    -0.0245   0.2581   0.8349   0.8828   0.9020   0.9392   0.9960   1.1294
     1.1465   1.2359   1.4315   1.5130   1.6074   1.6420   1.7329   1.8792
     2.0426   2.1685   2.2155   2.2598   2.3564   2.3873   2.4411   2.5479
     2.5562   2.5893   2.7108   2.7385   2.7775   2.8104   2.8323   2.8490
     2.8912   2.9221   2.9850   3.0205   3.0239   3.1036   3.1419   3.1841
     3.2616   3.3049   3.3478   3.3766   3.5498   3.5717   3.5807   3.6251
     3.6583   3.6812   3.7119   3.7180   3.7661   3.7681   3.7986   3.8146
     3.8854   3.9548   4.0026   4.0138   4.0352   4.0927   4.1048   4.1177
     4.3141   4.3503   4.3573   4.4229   4.4451   4.5209   4.5288   4.5436
     4.6904   4.7137   4.7410   4.8008   4.8131   4.8955   4.9502   4.9620
     4.9767   4.9844   5.0129   5.0272   5.0723   5.0946   5.1447   5.1541
     5.1629   5.2007   5.2617   5.2650   5.2774   5.2955   5.3412   5.3471
     5.3704   5.4415   5.4564   5.4854   5.4899   5.5531   5.5624   5.6247
     5.6818   5.7397   5.7559   5.8055   5.8484   5.8649   5.8688   5.9242
     5.9447   5.9777   6.0117   6.0527   6.0833   6.1023   6.1445   6.1529
     6.2011   6.2039   6.2950   6.3048   6.3257   6.3673   6.3765   6.3946
     6.4284   6.4306   6.4649   6.4824   6.5332   6.5718   6.6086   6.6653
     6.6973   6.7750   6.7904   6.8372   6.8662   6.8997   6.9630   7.0007
     7.0058   7.0388   7.0609   7.1352   7.1466   7.1615   7.1758   7.1813
     7.2147   7.2312   7.2792   7.2859   7.3457   7.3613   7.3838   7.3977
     7.4351   7.4456   7.4816   7.4950   7.5347   7.5516   7.5759   7.5880
     7.6476   7.6663   7.6847   7.6947   7.7138   7.7394   7.7602   7.7946
     7.8179   7.8471   7.9545   8.0367   8.0493   8.0864   8.0917   8.1595
     8.1867   8.1918   8.2517   8.2674   8.2854   8.2935   8.3359   8.3526
     8.3658   8.3982   8.4265   8.4686   8.4764   8.4878   8.5141   8.5320
     8.5443   8.5792   8.5839   8.6101   8.6149   8.6150   8.6859   8.6862
     8.7218   8.7350   8.7554   8.7873   8.8326   8.8342   8.9056   8.9257
     8.9552   8.9736   8.9841   9.0268   9.0330   9.0864   9.1142   9.1407
     9.1518   9.1881   9.2042   9.2168   9.2248   9.2697   9.2882   9.3146
     9.3158   9.3736   9.3806   9.3989   9.4171   9.4292   9.4659   9.4914
     9.5041   9.5049   9.5497   9.5860   9.5886   9.6084   9.6563   9.6921
     9.6998   9.7176   9.7448   9.7725   9.7732   9.7873   9.8172   9.8430
     9.8594   9.8991   9.9029   9.9341   9.9651   9.9655   9.9905  10.0427
    10.0433  10.0605  10.0763  10.1193  10.1320  10.2043  10.2194  10.2464
    10.2620  10.2707  10.3087  10.3246  10.3614  10.3663  10.3704  10.3906
    10.4242  10.4381  10.4453  10.4535  10.4692  10.4944  10.5170  10.5179
    10.5372  10.5380  10.5538  10.5885  10.5911  10.6174  10.6629  10.7022
    10.7073  10.7226  10.7388  10.7833  10.7848  10.8198  10.8386  10.8433
    10.8713  10.8738  10.8819  10.9206  10.9401  10.9786  10.9854  10.9996
    11.0246  11.0463  11.0738  11.0952  11.1143  11.1385  11.1688  11.1742
    11.1960  11.1963  11.2210  11.2338  11.2711  11.2829  11.3039  11.3204
    11.3306  11.3642  11.3926  11.4063  11.4118  11.4531  11.4614  11.5086
    11.5507  11.5774  11.5915  11.6180  11.6284  11.6535  11.7180  11.7418
    11.7635  11.7882  11.7955  11.8041  11.8210  11.8225  11.8980  11.9044
    11.9181  11.9601  12.0535  12.1041  12.1398  12.2046  12.2216  12.2336
    12.2528  12.2637  12.3092  12.3448  12.3839  12.4250  12.4442  12.5345
    12.5436  12.5739  12.6179  12.6207  12.6401  12.7124  12.7261  12.7274
    12.7493  12.7871  12.7890  12.7964  12.8092  12.8217  12.8473  12.8486
    12.9050  12.9341  12.9502  12.9935  13.0089  13.0697  13.0856  13.0936
    13.1971  13.2076  13.2282  13.2452

          k = 0.0000 0.0000 0.0426 ( 97406 PWs)   bands (ev):

   -21.5918 -21.5216 -21.0179 -20.9060 -20.1176 -20.0214 -19.9277 -19.8286
   -19.3280 -19.2317 -18.9218 -18.8894 -18.3334 -18.2088 -17.7027 -17.5437
   -17.1214 -16.8409 -16.8318 -16.6985 -16.5166 -16.4448 -15.8011 -15.5929
   -15.1217 -14.9864 -14.6998 -14.3921 -14.3177 -14.2440 -14.0530 -13.6915
   -12.9643 -12.7696 -12.7025 -12.2344 -11.8796 -11.7317 -11.6770 -11.5793
   -11.5013 -11.4084 -10.9563 -10.8963 -10.8030 -10.7427 -10.6212 -10.4830
   -10.4178 -10.2203  -9.7145  -9.6255  -9.6122  -9.5580  -9.2848  -9.2138
    -8.9778  -8.9047  -8.8667  -8.7579  -8.7218  -8.6653  -8.5955  -8.5166
    -8.5071  -8.4689  -8.2638  -8.1263  -8.0280  -7.9892  -7.8566  -7.8481
    -7.6824  -7.5702  -7.4437  -7.2038  -7.1326  -7.1072  -7.0241  -6.9168
    -6.7328  -6.6167  -6.6108  -6.4855  -6.1880  -6.1354  -6.0017  -5.8516
    -5.4721  -5.3435  -4.8416  -4.6956  -4.5247  -4.3689  -4.2490  -4.1028
    -2.6227  -2.5260  -0.9605  -0.8860  -0.7297  -0.6492  -0.5158  -0.3290
    -0.0182   0.2482   0.8507   0.8916   0.9253   0.9477   0.9806   1.0912
     1.1673   1.2124   1.4329   1.5320   1.5860   1.6622   1.7097   1.8761
     2.0531   2.1559   2.2399   2.2781   2.3698   2.3763   2.4197   2.5649
     2.5671   2.5989   2.6915   2.7011   2.8078   2.8250   2.8573   2.8673
     2.8797   2.9013   2.9742   2.9845   3.0321   3.1061   3.1164   3.1691
     3.2812   3.3255   3.3672   3.4600   3.4990   3.5703   3.5880   3.6418
     3.6490   3.6513   3.6880   3.7135   3.7605   3.7689   3.8173   3.8602
     3.9149   3.9345   3.9400   4.0070   4.0342   4.0489   4.0856   4.1619
     4.2834   4.3473   4.3791   4.4216   4.4389   4.4921   4.5724   4.6026
     4.6789   4.7352   4.7457   4.7609   4.8259   4.8769   4.8978   4.9392
     5.0045   5.0098   5.0547   5.0646   5.0661   5.0864   5.1411   5.1616
     5.1828   5.2106   5.2170   5.2275   5.2844   5.3130   5.3363   5.3694
     5.3726   5.4160   5.4216   5.4688   5.4963   5.5522   5.5731   5.6194
     5.6651   5.6880   5.7436   5.8327   5.8546   5.8827   5.9168   5.9362
     5.9379   5.9811   6.0093   6.0550   6.1015   6.1128   6.1372   6.1518
     6.2074   6.2490   6.2552   6.2913   6.3215   6.3453   6.3486   6.3691
     6.4131   6.4402   6.4604   6.4908   6.5281   6.5287   6.6269   6.6649
     6.6902   6.7703   6.7737   6.8457   6.8677   6.8961   6.9771   7.0028
     7.0163   7.0411   7.0711   7.1247   7.1622   7.1720   7.1774   7.1981
     7.2169   7.2284   7.2938   7.3331   7.3394   7.3415   7.3480   7.3781
     7.4278   7.4459   7.4706   7.5110   7.5494   7.5566   7.5763   7.6189
     7.6408   7.6463   7.6890   7.7058   7.7075   7.7122   7.7552   7.7855
     7.8360   7.8587   7.9721   8.0143   8.0443   8.0840   8.0972   8.1198
     8.1761   8.2071   8.2799   8.2937   8.3116   8.3293   8.3467   8.3834
     8.3941   8.4400   8.4432   8.4735   8.4906   8.4990   8.5028   8.5200
     8.5418   8.5667   8.5727   8.5848   8.6032   8.6098   8.6480   8.6731
     8.7033   8.7494   8.7711   8.7913   8.8326   8.8335   8.8819   8.9029
     8.9482   8.9626   8.9994   9.0047   9.0588   9.0945   9.1017   9.1283
     9.1670   9.1919   9.1980   9.2170   9.2230   9.2736   9.3165   9.3435
     9.3637   9.3809   9.3832   9.4035   9.4258   9.4319   9.4730   9.4731
     9.4972   9.5197   9.5338   9.5751   9.6078   9.6157   9.6469   9.6637
     9.6999   9.7056   9.7173   9.7671   9.7804   9.8209   9.8468   9.8739
     9.8829   9.8925   9.9381   9.9469   9.9596   9.9622   9.9807  10.0035
    10.0286  10.0378  10.0791  10.1204  10.1374  10.1460  10.1881  10.2301
    10.2385  10.2792  10.3180  10.3273  10.3430  10.3580  10.3892  10.4163
    10.4273  10.4470  10.4478  10.4639  10.4724  10.4953  10.5081  10.5281
    10.5496  10.5613  10.5710  10.6126  10.6186  10.6343  10.6581  10.6817
    10.6929  10.6955  10.7050  10.7685  10.7823  10.8020  10.8314  10.8482
    10.8745  10.8799  10.8889  10.9198  10.9348  10.9689  10.9850  10.9972
    11.0025  11.0287  11.0555  11.0804  11.1183  11.1219  11.1283  11.1567
    11.1690  11.1979  11.2245  11.2302  11.2913  11.2975  11.3082  11.3271
    11.3300  11.3705  11.3877  11.3939  11.4150  11.4391  11.4413  11.5233
    11.5440  11.5635  11.6028  11.6317  11.6500  11.6660  11.6822  11.7282
    11.7485  11.7808  11.8040  11.8113  11.8465  11.8703  11.8844  11.8939
    11.9060  11.9559  12.0277  12.0323  12.1079  12.2072  12.2226  12.2434
    12.2508  12.2837  12.3276  12.3332  12.3912  12.4249  12.4741  12.5368
    12.5387  12.5993  12.6122  12.6316  12.6743  12.6969  12.7103  12.7276
    12.7318  12.7655  12.7947  12.7952  12.8167  12.8284  12.8420  12.8766
    12.8945  12.9113  12.9410  12.9639  12.9945  13.0465  13.0537  13.0585
    13.2277  13.2368  13.2635  13.2759

          k = 0.0000 0.0000-0.0444 ( 97398 PWs)   bands (ev):

   -21.5879 -21.5262 -21.0159 -20.9086 -20.1158 -20.0211 -19.9001 -19.8594
   -19.2917 -19.2687 -18.9089 -18.9021 -18.3206 -18.2229 -17.6998 -17.5461
   -17.1193 -16.8376 -16.8041 -16.7264 -16.5117 -16.4483 -15.8060 -15.5901
   -15.1204 -14.9926 -14.7002 -14.3778 -14.3149 -14.2590 -14.0531 -13.6955
   -12.9619 -12.7572 -12.7132 -12.2346 -11.8408 -11.7706 -11.6657 -11.5495
   -11.4823 -11.4715 -10.9479 -10.8905 -10.7892 -10.7316 -10.6566 -10.4813
   -10.4200 -10.2245  -9.7035  -9.6248  -9.6194  -9.5650  -9.2794  -9.2191
    -8.9748  -8.9020  -8.8704  -8.7581  -8.7198  -8.6550  -8.5752  -8.5362
    -8.5073  -8.4801  -8.2608  -8.1150  -8.0401  -7.9872  -7.8587  -7.8497
    -7.6366  -7.6172  -7.4386  -7.1948  -7.1389  -7.1123  -6.9746  -6.9668
    -6.7305  -6.6130  -6.6011  -6.5013  -6.1643  -6.1582  -5.9875  -5.8667
    -5.4708  -5.3443  -4.8398  -4.6912  -4.5225  -4.3693  -4.2459  -4.1094
    -2.6222  -2.5270  -0.9540  -0.8900  -0.6990  -0.6873  -0.5105  -0.3338
    -0.0160   0.2448   0.8585   0.8921   0.9218   0.9704   0.9742   1.0710
     1.1860   1.1928   1.4333   1.5435   1.5737   1.6779   1.6931   1.8750
     2.0572   2.1511   2.2458   2.2907   2.3598   2.3929   2.4025   2.5677
     2.5712   2.6215   2.6583   2.6972   2.8200   2.8446   2.8454   2.8753
     2.8863   2.8975   2.9630   2.9651   3.0477   3.0852   3.1231   3.1615
     3.3007   3.3048   3.4166   3.4501   3.5276   3.5476   3.5971   3.6084
     3.6357   3.6642   3.6745   3.7298   3.7505   3.7603   3.8625   3.8865
     3.8894   3.9047   3.9745   3.9765   4.0048   4.0603   4.0725   4.1899
     4.2597   4.3464   4.3986   4.4044   4.4506   4.4735   4.6192   4.6303
     4.6430   4.6994   4.7679   4.7811   4.8254   4.8696   4.8720   4.9275
     5.0199   5.0294   5.0389   5.0466   5.1103   5.1308   5.1342   5.1414
     5.1763   5.1861   5.1928   5.2586   5.2771   5.3118   5.3272   5.3868
     5.3994   5.4001   5.4252   5.4366   5.4648   5.5828   5.6147   5.6172
     5.6249   5.6570   5.7448   5.8382   5.8602   5.8916   5.9302   5.9411
     5.9482   5.9894   6.0050   6.0283   6.1035   6.1100   6.1480   6.1860
     6.2060   6.2240   6.2777   6.2778   6.3183   6.3280   6.3391   6.3607
     6.4085   6.4503   6.4589   6.4931   6.5082   6.5273   6.6377   6.6622
     6.6887   6.7600   6.7732   6.8481   6.8690   6.8948   6.9817   7.0035
     7.0220   7.0419   7.0774   7.1190   7.1555   7.1730   7.1796   7.2083
     7.2193   7.2527   7.3018   7.3039   7.3219   7.3420   7.3767   7.3837
     7.4063   7.4252   7.4956   7.4965   7.5551   7.5767   7.5797   7.6083
     7.6383   7.6621   7.6735   7.7004   7.7048   7.7212   7.7354   7.7781
     7.8321   7.9365   7.9530   7.9862   8.0511   8.0572   8.0832   8.1264
     8.1798   8.2133   8.2747   8.3146   8.3207   8.3379   8.3636   8.3902
     8.4297   8.4464   8.4511   8.4815   8.4831   8.5032   8.5227   8.5235
     8.5315   8.5519   8.5522   8.5681   8.5808   8.6095   8.6331   8.6690
     8.7030   8.7677   8.7688   8.8028   8.8344   8.8374   8.8779   8.9073
     8.9138   8.9451   9.0054   9.0184   9.0636   9.0953   9.1070   9.1086
     9.1790   9.1878   9.1928   9.2247   9.2252   9.2897   9.3140   9.3196
     9.3752   9.3951   9.4043   9.4078   9.4364   9.4530   9.4735   9.4774
     9.4786   9.5038   9.5364   9.5899   9.5972   9.6078   9.6483   9.6492
     9.6569   9.7014   9.7514   9.7765   9.7871   9.8244   9.8507   9.8775
     9.8894   9.8953   9.9435   9.9548   9.9570   9.9674  10.0004  10.0028
    10.0078  10.0564  10.0781  10.0825  10.1174  10.1389  10.1840  10.2055
    10.2269  10.3150  10.3212  10.3221  10.3391  10.3414  10.3870  10.3959
    10.4445  10.4617  10.4666  10.4702  10.4722  10.5006  10.5119  10.5216
    10.5586  10.5725  10.5812  10.6061  10.6279  10.6441  10.6490  10.6627
    10.6761  10.6915  10.7428  10.7640  10.7929  10.7955  10.8001  10.8164
    10.8447  10.8780  10.9313  10.9341  10.9496  10.9677  10.9747  11.0028
    11.0205  11.0210  11.0255  11.0668  11.0723  11.1204  11.1461  11.1487
    11.1704  11.1927  11.2165  11.2507  11.2664  11.3062  11.3225  11.3245
    11.3628  11.3682  11.3704  11.3851  11.3936  11.4335  11.4633  11.5416
    11.5461  11.5544  11.5837  11.6429  11.6532  11.6607  11.6962  11.7264
    11.7438  11.7477  11.8051  11.8163  11.8573  11.8693  11.8936  11.9187
    11.9379  11.9514  11.9619  12.0206  12.0934  12.2049  12.2229  12.2458
    12.2515  12.3023  12.3295  12.3331  12.3705  12.4495  12.4823  12.5126
    12.5593  12.6088  12.6360  12.6393  12.6602  12.6760  12.7029  12.7136
    12.7386  12.7701  12.7924  12.7967  12.8141  12.8278  12.8538  12.8825
    12.8944  12.9138  12.9406  12.9453  12.9854  13.0345  13.0380  13.0477
    13.2359  13.2726  13.2732  13.2849

     the Fermi energy is    -2.5622 ev

     Writing output data file C_3Z_1A_W9.save/

     init_run     :     13.11s CPU     13.48s WALL (       1 calls)
     electrons    :   7605.38s CPU   7688.56s WALL (       1 calls)

     Called by init_run:
     wfcinit      :      0.00s CPU      0.01s WALL (       1 calls)
     potinit      :      0.88s CPU      0.97s WALL (       1 calls)
     hinit0       :      9.79s CPU      9.88s WALL (       1 calls)

     Called by electrons:
     c_bands      :   7605.37s CPU   7688.39s WALL (       1 calls)
     v_of_rho     :      0.68s CPU      0.71s WALL (       1 calls)
     newd         :      0.52s CPU      0.67s WALL (       1 calls)

     Called by c_bands:
     init_us_2    :      0.56s CPU      0.68s WALL (      26 calls)
     cegterg      :   7462.13s CPU   7533.60s WALL (     110 calls)

     Called by sum_band:

     Called by *egterg:
     h_psi        :   1964.83s CPU   1992.12s WALL (    2041 calls)
     s_psi        :    193.07s CPU    194.17s WALL (    2041 calls)
     g_psi        :     11.04s CPU     11.17s WALL (    1905 calls)
     cdiaghg      :   3116.81s CPU   3126.99s WALL (    1931 calls)

     Called by h_psi:
     h_psi:pot    :   1950.18s CPU   1971.67s WALL (    2041 calls)
     h_psi:calbec :    171.98s CPU    174.45s WALL (    2041 calls)
     vloc_psi     :   1591.31s CPU   1609.47s WALL (    2041 calls)
     add_vuspsi   :    186.86s CPU    187.72s WALL (    2041 calls)

     General routines
     calbec       :    171.97s CPU    174.42s WALL (    2041 calls)
     fft          :      0.65s CPU      0.71s WALL (      14 calls)
     ffts         :      0.01s CPU      0.01s WALL (       1 calls)
     fftw         :   1259.78s CPU   1274.49s WALL (  565638 calls)
     interpolate  :      0.05s CPU      0.05s WALL (       1 calls)
     davcio       :      0.00s CPU      8.86s WALL (      52 calls)

     Parallel routines
     fft_scatt_xy :    216.32s CPU    218.13s WALL (  565653 calls)
     fft_scatt_yz :    218.40s CPU    222.28s WALL (  565653 calls)

     PWSCF        :     2h 7m CPU        7h 2m WALL

      12h

   This run was terminated on:   1:27:44  29Apr2021            

=------------------------------------------------------------------------------=
   JOB DONE.
=------------------------------------------------------------------------------=
