
     Program PWSCF v.6.3 starts on 29Apr2021 at  1:33:51 

     This program is part of the open-source Quantum ESPRESSO suite
     for quantum simulation of materials; please cite
         "P. Giannozzi et al., J. Phys.:Condens. Matter 21 395502 (2009);
         "P. Giannozzi et al., J. Phys.:Condens. Matter 29 465901 (2017);
          URL http://www.quantum-espresso.org", 
     in publications or presentations arising from this work. More details at
     http://www.quantum-espresso.org/quote

     Parallel version (MPI), running on    16 processors
     R & G space division:  proc/nbgrp/npool/nimage =      16
     Waiting for input...
     Reading input from standard input
     Message from routine read_cards :
     DEPRECATED: no units specified in CELL_PARAMETERS card

     Current dimensions of program PWSCF are:
     Max number of different atomic species (ntypx) = 10
     Max number of k-points (npk) =  40000
     Max angular momentum in pseudopotentials (lmaxx) =  3

     Atomic positions and unit cell read from directory:
     /home/zfwang/scratch/GNRDATASET/AGNR/C_3Z_2A_W9/C_3Z_2A_W9.save/


     Subspace diagonalization in iterative solution of the eigenvalue problem:
     a serial algorithm will be used


     Parallelization info
     --------------------
     sticks:   dense  smooth     PW     G-vecs:    dense   smooth      PW
     Min        2556     852    220               345120    66412    8740
     Max        2557     853    221               345123    66415    8743
     Sum       40909   13645   3531              5521939  1062617  139873



     bravais-lattice index     =            0
     lattice parameter (alat)  =       1.8897  a.u.
     unit-cell volume          =   31096.3254 (a.u.)^3
     number of atoms/cell      =           76
     number of atomic types    =            2
     number of electrons       =       262.00
     number of Kohn-Sham states=          500
     kinetic-energy cutoff     =      40.0000  Ry
     charge density cutoff     =     480.0000  Ry
     Exchange-correlation      = PBE ( 1  4  3  4 0 0)

     celldm(1)=  18.897261  celldm(2)=   3.000000  celldm(3)=   1.536000
     celldm(4)=   0.000000  celldm(5)=   0.000000  celldm(6)=   0.000000

     crystal axes: (cart. coord. in units of alat)
               a(1) = (  10.000000   0.000000   0.000000 )  
               a(2) = (   0.000000  30.000000   0.000000 )  
               a(3) = (   0.000000   0.000000  15.360000 )  

     reciprocal axes: (cart. coord. in units 2 pi/alat)
               b(1) = (  0.100000  0.000000  0.000000 )  
               b(2) = (  0.000000  0.033333  0.000000 )  
               b(3) = (  0.000000  0.000000  0.065104 )  


     PseudoPot. # 1 for C  read from file:
     /home/zfwang/hp_home/MySoftware/qe-6.3/pseudo/C.pbe-n-rrkjus_psl.0.1.UPF
     MD5 check sum: fff530ed632a789b3b184014e67dd7f1
     Pseudo is Ultrasoft + core correction, Zval =  4.0
     Generated using "atomic" code by A. Dal Corso v.5.0.2 svn rev. 9415
     Using radial grid of 1073 points,  4 beta functions with: 
                l(1) =   0
                l(2) =   0
                l(3) =   1
                l(4) =   1
     Q(r) pseudized with 0 coefficients 


     PseudoPot. # 2 for H  read from file:
     /home/zfwang/hp_home/MySoftware/qe-6.3/pseudo/H.pbe-rrkjus_psl.0.1.UPF
     MD5 check sum: e164a6907b691c6980f16942be34de84
     Pseudo is Ultrasoft, Zval =  1.0
     Generated using "atomic" code by A. Dal Corso v.5.0.2 svn rev. 9415
     Using radial grid of  929 points,  2 beta functions with: 
                l(1) =   0
                l(2) =   0
     Q(r) pseudized with 0 coefficients 


     atomic species   valence    mass     pseudopotential
        C              4.00    12.01070     C ( 1.00)
        H              1.00     1.00794     H ( 1.00)

     No symmetry found



   Cartesian axes

     site n.     atom                  positions (alat units)
         1           C   tau(   1) = (   4.9999992   9.6879895   8.2947733  )
         2           C   tau(   2) = (   4.9999996  10.7395831  12.4573688  )
         3           C   tau(   3) = (   4.9999993  10.0580726   4.6101774  )
         4           C   tau(   4) = (   4.9999997  11.0449402   8.7344533  )
         5           C   tau(   5) = (   4.9999996  12.0843742  12.8814340  )
         6           C   tau(   6) = (   4.9999992   9.3622131   6.9698989  )
         7           C   tau(   7) = (   4.9999991  10.4048726  11.1297103  )
         8           C   tau(   8) = (   4.9999995  11.4480171  15.2682398  )
         9           C   tau(   9) = (   4.9999991  11.0588183   3.6243107  )
        10           C   tau(  10) = (   4.9999997  12.0764997   7.7637428  )
        11           C   tau(  11) = (   4.9999997  13.1081699  11.9065760  )
        12           C   tau(  12) = (   4.9999993  12.4390978   4.0290442  )
        13           C   tau(  13) = (   5.0000000  13.4521227   8.1650987  )
        14           C   tau(  14) = (   5.0000001  14.4912576  12.3006659  )
        15           C   tau(  15) = (   4.9999993  10.3724529   5.9670045  )
        16           C   tau(  16) = (   4.9999994  11.3938131  10.1233067  )
        17           C   tau(  17) = (   4.9999995  12.4234436  14.2886583  )
        18           C   tau(  18) = (   4.9999989  10.7538576   2.2533752  )
        19           C   tau(  19) = (   4.9999994  11.7459200   6.3815243  )
        20           C   tau(  20) = (   4.9999997  12.7645564  10.5219794  )
        21           C   tau(  21) = (   4.9999999  13.8110469  14.6700650  )
        22           C   tau(  22) = (   4.9999992  13.4659017   3.0503254  )
        23           C   tau(  23) = (   4.9999999  14.4763777   7.1838669  )
        24           C   tau(  24) = (   5.0000001  15.5089811  11.3300238  )
        25           C   tau(  25) = (   4.9999998  14.8349153   3.4455447  )
        26           C   tau(  26) = (   5.0000002  15.8470948   7.5799202  )
        27           C   tau(  27) = (   5.0000006  16.8920752  11.7241159  )
        28           C   tau(  28) = (   4.9999995  11.7563209   1.2836628  )
        29           C   tau(  29) = (   4.9999995  12.7714909   5.4040392  )
        30           C   tau(  30) = (   5.0000000  13.7970453   9.5411240  )
        31           C   tau(  31) = (   5.0000004  14.8309148  13.6921835  )
        32           C   tau(  32) = (   4.9999996  13.1363235   1.6762930  )
        33           C   tau(  33) = (   4.9999997  14.1430963   5.8041833  )
        34           C   tau(  34) = (   5.0000000  15.1693309   9.9385112  )
        35           C   tau(  35) = (   5.0000005  16.2031987  14.0895689  )
        36           C   tau(  36) = (   5.0000004  15.8571675   2.4664938  )
        37           C   tau(  37) = (   5.0000002  16.8639679   6.5943890  )
        38           C   tau(  38) = (   5.0000005  17.9158813  10.7492598  )
        39           C   tau(  39) = (   5.0000011  18.9553372  14.8962282  )
        40           C   tau(  40) = (   5.0000007  17.2287717   2.8666322  )
        41           C   tau(  41) = (   5.0000003  18.2439725   6.9870145  )
        42           C   tau(  42) = (   5.0000003  19.2606755  11.1733277  )
        43           C   tau(  43) = (   5.0000011  20.3122956  15.3359191  )
        44           C   tau(  44) = (   4.9999999  14.1531885   0.6907667  )
        45           C   tau(  45) = (   4.9999999  15.1653510   4.8251342  )
        46           C   tau(  46) = (   5.0000003  16.1892154   8.9606303  )
        47           C   tau(  47) = (   5.0000009  17.2356767  13.1087064  )
        48           C   tau(  48) = (   5.0000003  15.5239021   1.0868143  )
        49           C   tau(  49) = (   5.0000004  16.5343673   5.2203525  )
        50           C   tau(  50) = (   5.0000003  17.5768177   9.3420363  )
        51           C   tau(  51) = (   5.0000011  18.6064230  13.5073824  )
        52           C   tau(  52) = (   5.0000010  18.2543595   1.8891510  )
        53           C   tau(  53) = (   5.0000007  19.2464251   6.0172897  )
        54           C   tau(  54) = (   5.0000009  19.6278262   2.3036759  )
        55           C   tau(  55) = (   5.0000004  16.5481529   0.1055772  )
        56           C   tau(  56) = (   5.0000007  17.5611652   4.2416246  )
        57           C   tau(  57) = (   5.0000002  18.5522535   8.3624504  )
        58           C   tau(  58) = (   5.0000008  19.5953578  12.5009895  )
        59           C   tau(  59) = (   5.0000010  17.9237811   0.5069327  )
        60           C   tau(  60) = (   5.0000008  18.9414461   4.6463547  )
        61           C   tau(  61) = (   5.0000011  20.6380736   1.3007947  )
        62           C   tau(  62) = (   5.0000008  19.9422064   3.6605003  )
        63           H   tau(  63) = (   4.9999990   8.8831107   9.0262370  )
        64           H   tau(  64) = (   4.9999993   9.9358088  13.1901084  )
        65           H   tau(  65) = (   4.9999989   9.0096805   4.3049437  )
        66           H   tau(  66) = (   4.9999991   8.3165777   6.6584372  )
        67           H   tau(  67) = (   4.9999991   9.3514757  10.8608630  )
        68           H   tau(  68) = (   4.9999988  10.3916208  15.0055784  )
        69           H   tau(  69) = (   4.9999986   9.7074678   1.9400225  )
        70           H   tau(  70) = (   4.9999997  20.0644684  10.4406052  )
        71           H   tau(  71) = (   5.0000018  21.1172072  14.6044898  )
        72           H   tau(  72) = (   5.0000005  20.2928227   6.3306238  )
        73           H   tau(  73) = (   5.0000001  19.6086451   8.6251376  )
        74           H   tau(  74) = (   5.0000009  20.6487357  12.7698797  )
        75           H   tau(  75) = (   5.0000009  21.6837130   1.6122820  )
        76           H   tau(  76) = (   5.0000006  20.9905970   3.9657490  )

     number of k points=    26  Marzari-Vanderbilt smearing, width (Ry)=  0.0100
                       cart. coord. in units 2pi/alat
        k(    1) = (   0.0000000   0.0000000   0.0000000), wk =   0.0400000
        k(    2) = (   0.0000000   0.0000000   0.0013021), wk =   0.0800000
        k(    3) = (   0.0000000   0.0000000   0.0026042), wk =   0.0800000
        k(    4) = (   0.0000000   0.0000000   0.0039062), wk =   0.0800000
        k(    5) = (   0.0000000   0.0000000   0.0052083), wk =   0.0800000
        k(    6) = (   0.0000000   0.0000000   0.0065104), wk =   0.0800000
        k(    7) = (   0.0000000   0.0000000   0.0078125), wk =   0.0800000
        k(    8) = (   0.0000000   0.0000000   0.0091146), wk =   0.0800000
        k(    9) = (   0.0000000   0.0000000   0.0104167), wk =   0.0800000
        k(   10) = (   0.0000000   0.0000000   0.0117187), wk =   0.0800000
        k(   11) = (   0.0000000   0.0000000   0.0130208), wk =   0.0800000
        k(   12) = (   0.0000000   0.0000000   0.0143229), wk =   0.0800000
        k(   13) = (   0.0000000   0.0000000   0.0156250), wk =   0.0800000
        k(   14) = (   0.0000000   0.0000000   0.0169271), wk =   0.0800000
        k(   15) = (   0.0000000   0.0000000   0.0182292), wk =   0.0800000
        k(   16) = (   0.0000000   0.0000000   0.0195312), wk =   0.0800000
        k(   17) = (   0.0000000   0.0000000   0.0208333), wk =   0.0800000
        k(   18) = (   0.0000000   0.0000000   0.0221354), wk =   0.0800000
        k(   19) = (   0.0000000   0.0000000   0.0234375), wk =   0.0800000
        k(   20) = (   0.0000000   0.0000000   0.0247396), wk =   0.0800000
        k(   21) = (   0.0000000   0.0000000   0.0260417), wk =   0.0800000
        k(   22) = (   0.0000000   0.0000000   0.0273437), wk =   0.0800000
        k(   23) = (   0.0000000   0.0000000   0.0286458), wk =   0.0800000
        k(   24) = (   0.0000000   0.0000000   0.0299479), wk =   0.0800000
        k(   25) = (   0.0000000   0.0000000   0.0312500), wk =   0.0800000
        k(   26) = (   0.0000000   0.0000000  -0.0325521), wk =   0.0400000

     Dense  grid:  5521939 G-vectors     FFT dimensions: ( 135, 400, 216)

     Smooth grid:  1062617 G-vectors     FFT dimensions: (  80, 240, 120)

     Estimated max dynamical RAM per process >       1.16 GB

     Estimated total dynamical RAM >      18.53 GB

     The potential is recalculated from file :
     /home/zfwang/scratch/GNRDATASET/AGNR/C_3Z_2A_W9/C_3Z_2A_W9.save/charge-density.dat


     negative rho (up, down):  3.588E-04 0.000E+00
     Starting wfcs are  262 randomized atomic wfcs +  238 random wfcs

     Band Structure Calculation
     Davidson diagonalization with overlap

     ethr =  3.82E-09,  avg # of iterations = 71.2

     total cpu time spent up to now is    11211.3 secs

     End of band structure calculation

          k = 0.0000 0.0000 0.0000 (132743 PWs)   bands (ev):

   -21.7751 -21.3433 -21.3144 -21.1408 -20.7519 -20.7103 -20.1923 -19.9875
   -19.9849 -19.8529 -19.7744 -19.3877 -19.2720 -18.9175 -18.8749 -18.5820
   -18.3090 -18.1522 -17.8302 -17.8145 -17.6834 -17.5252 -17.3204 -17.1952
   -17.1506 -17.0029 -16.8432 -16.6451 -16.4313 -15.9371 -15.6613 -15.1955
   -15.0199 -14.8999 -14.7769 -14.7544 -14.4423 -14.4176 -14.4167 -14.4022
   -13.9399 -13.8013 -13.5394 -13.5275 -13.0026 -12.8230 -12.8121 -12.6310
   -12.5192 -12.4815 -12.3565 -11.5177 -11.5121 -11.3891 -11.1939 -11.1875
   -11.1084 -10.9926 -10.7980 -10.7547 -10.7257 -10.6365 -10.6276 -10.5746
   -10.1798 -10.1228 -10.0035  -9.9991  -9.8476  -9.6959  -9.6942  -9.3510
    -9.3365  -9.3029  -9.2035  -9.1248  -9.0849  -9.0666  -9.0508  -9.0292
    -8.8044  -8.7180  -8.6778  -8.6696  -8.6209  -8.6201  -8.5494  -8.5238
    -8.4768  -8.3282  -8.2710  -8.0729  -8.0626  -8.0412  -7.9364  -7.7652
    -7.7339  -7.7304  -7.6618  -7.6503  -7.5801  -7.5157  -7.4452  -7.1098
    -7.0724  -6.9932  -6.9900  -6.9188  -6.7238  -6.6714  -6.5761  -6.5657
    -6.5349  -6.2947  -5.9709  -5.8864  -5.8240  -5.8097  -5.4693  -5.4240
    -5.3780  -5.3620  -5.0395  -4.8290  -4.8022  -4.7539  -4.6013  -4.3233
    -4.1018  -3.2097  -3.1101  -1.9029  -1.8345  -1.0576  -0.8161  -0.6344
    -0.4312  -0.3675  -0.2722  -0.1408  -0.0713   0.0942   0.2725   0.3666
     0.5884   0.6404   0.8956   0.9448   0.9856   1.1622   1.1665   1.2090
     1.2338   1.2868   1.3708   1.4075   1.5108   1.5390   1.5426   1.6812
     1.7803   1.8721   1.9012   1.9498   2.0096   2.0662   2.1779   2.2009
     2.2613   2.3740   2.3943   2.4743   2.5219   2.5265   2.5538   2.6574
     2.6813   2.6880   2.7261   2.7507   2.7556   2.7620   2.8347   2.8754
     2.8905   2.9081   2.9781   2.9947   3.0593   3.0641   3.1463   3.1617
     3.1700   3.1822   3.2667   3.3221   3.3369   3.3458   3.3515   3.3545
     3.3662   3.3849   3.4638   3.4921   3.5187   3.5486   3.6128   3.6183
     3.6200   3.6863   3.7026   3.7162   3.7464   3.8478   3.8484   3.8545
     3.8779   3.9290   3.9803   3.9917   4.0053   4.0204   4.0462   4.1241
     4.1364   4.1486   4.1578   4.2418   4.2580   4.2786   4.2975   4.3745
     4.4455   4.4834   4.5251   4.5271   4.5614   4.5827   4.6220   4.6251
     4.6582   4.6589   4.6970   4.7186   4.7201   4.7801   4.7930   4.8361
     4.8493   4.9375   4.9410   4.9630   4.9642   5.0193   5.0306   5.0560
     5.0683   5.1323   5.1504   5.1876   5.2216   5.2433   5.2550   5.2860
     5.3063   5.3403   5.3412   5.3535   5.3816   5.4198   5.4217   5.4557
     5.4589   5.4798   5.5468   5.5519   5.5532   5.5582   5.5768   5.5892
     5.6174   5.6472   5.6913   5.7875   5.8088   5.8352   5.8416   5.8851
     5.9347   5.9394   5.9908   5.9973   6.0014   6.0162   6.0603   6.0870
     6.0996   6.1051   6.1111   6.1371   6.1416   6.1576   6.2343   6.2398
     6.2457   6.2551   6.2815   6.3057   6.3663   6.3794   6.3977   6.4209
     6.4408   6.4539   6.4725   6.4799   6.4957   6.5673   6.6182   6.6251
     6.6684   6.6701   6.7063   6.7256   6.7369   6.7616   6.7927   6.8054
     6.8110   6.8505   6.8530   6.8968   6.8991   6.9051   6.9175   6.9530
     6.9586   7.0170   7.0170   7.0279   7.0342   7.0887   7.1050   7.1245
     7.1430   7.1609   7.1767   7.1983   7.1986   7.2180   7.2389   7.2516
     7.2614   7.2676   7.2820   7.2976   7.3252   7.3433   7.3629   7.3925
     7.4280   7.4433   7.4609   7.4655   7.4801   7.4911   7.5241   7.5535
     7.5626   7.5746   7.5946   7.6043   7.6317   7.6428   7.6432   7.6672
     7.6694   7.7094   7.7348   7.7917   7.7943   7.8549   7.8637   7.8639
     7.8835   7.8925   7.9019   7.9462   7.9681   8.0174   8.0199   8.0315
     8.0696   8.0842   8.0867   8.1070   8.1319   8.1404   8.1525   8.2057
     8.2066   8.2175   8.2301   8.2526   8.2842   8.2926   8.2976   8.3478
     8.3818   8.3893   8.3986   8.4061   8.4180   8.4287   8.4458   8.4686
     8.4828   8.5048   8.5411   8.5683   8.5790   8.5882   8.5907   8.6213
     8.6288   8.6357   8.6388   8.6595   8.7133   8.7346   8.7416   8.7668
     8.7822   8.8027   8.8078   8.8254   8.8266   8.8862   8.8922   8.9092
     8.9572   8.9645   8.9799   9.0040   9.0193   9.0572   9.0611   9.0826
     9.0964   9.1106   9.1303   9.1405   9.1488   9.1608   9.1739   9.1816
     9.1865   9.2005   9.2248   9.2440   9.2515   9.2686   9.2785   9.2958
     9.3061   9.3389   9.3510   9.3543   9.3821   9.4381   9.4524   9.4799
     9.5070   9.5248   9.5296   9.5335   9.5514   9.6007   9.6160   9.6735
     9.6747   9.6948   9.7011   9.7456   9.7488   9.7505   9.7655   9.8012
     9.8034   9.8042   9.8235   9.8296   9.8700   9.9270   9.9590   9.9666
     9.9796  10.0119  10.0298  10.0524

          k = 0.0000 0.0000 0.0013 (132747 PWs)   bands (ev):

   -21.7750 -21.3505 -21.3071 -21.1403 -20.7571 -20.7049 -20.1923 -20.0142
   -19.9624 -19.8502 -19.7723 -19.3952 -19.2642 -18.9195 -18.8737 -18.5811
   -18.3117 -18.1488 -17.8677 -17.7812 -17.6814 -17.5233 -17.3262 -17.2100
   -17.1303 -17.0034 -16.8427 -16.6453 -16.4324 -15.9362 -15.6618 -15.1951
   -15.0190 -14.9137 -14.7763 -14.7410 -14.4727 -14.4333 -14.4106 -14.3629
   -13.9390 -13.8016 -13.5831 -13.4835 -13.0030 -12.8325 -12.8051 -12.6302
   -12.5211 -12.4766 -12.3561 -11.5421 -11.5016 -11.3765 -11.1996 -11.1876
   -11.1078 -10.9916 -10.8108 -10.7655 -10.7029 -10.6848 -10.5763 -10.5705
   -10.1955 -10.1092 -10.0200  -9.9818  -9.8474  -9.7101  -9.6785  -9.3515
    -9.3450  -9.2945  -9.2091  -9.1241  -9.0881  -9.0614  -9.0502  -9.0267
    -8.8060  -8.7220  -8.6854  -8.6758  -8.6136  -8.6116  -8.5490  -8.5227
    -8.4766  -8.3298  -8.2704  -8.0771  -8.0728  -8.0263  -7.9368  -7.7814
    -7.7451  -7.7263  -7.6509  -7.6401  -7.5775  -7.5214  -7.4386  -7.1139
    -7.0853  -6.9900  -6.9771  -6.9179  -6.7241  -6.6724  -6.5866  -6.5662
    -6.5235  -6.2939  -5.9740  -5.8869  -5.8244  -5.8057  -5.4817  -5.4273
    -5.3913  -5.3341  -5.0401  -4.8523  -4.7901  -4.7427  -4.6016  -4.3235
    -4.1016  -3.2168  -3.1031  -1.9138  -1.8239  -1.0568  -0.8159  -0.6353
    -0.4316  -0.3810  -0.2579  -0.1405  -0.0732   0.0979   0.2451   0.3949
     0.5887   0.6406   0.8958   0.9289   1.0005   1.1466   1.1733   1.2092
     1.2405   1.2899   1.3705   1.4054   1.4990   1.5398   1.5519   1.6863
     1.7788   1.8632   1.9115   1.9449   2.0145   2.0663   2.1792   2.2009
     2.2599   2.3673   2.3931   2.4768   2.5215   2.5267   2.5549   2.6599
     2.6750   2.6871   2.7177   2.7501   2.7537   2.7696   2.8328   2.8705
     2.8921   2.9235   2.9815   2.9960   3.0354   3.0889   3.1297   3.1518
     3.1785   3.2003   3.2640   3.2879   3.3286   3.3463   3.3587   3.3678
     3.3768   3.3933   3.4626   3.4934   3.5213   3.5481   3.5947   3.6184
     3.6376   3.6500   3.6939   3.7366   3.7625   3.8132   3.8492   3.8679
     3.9069   3.9332   3.9624   3.9984   4.0108   4.0200   4.0533   4.0904
     4.1465   4.1569   4.1745   4.2347   4.2515   4.2886   4.3028   4.3748
     4.4382   4.4699   4.5263   4.5393   4.5436   4.5790   4.6194   4.6318
     4.6516   4.6684   4.6924   4.7172   4.7391   4.7841   4.7960   4.8337
     4.8535   4.9299   4.9403   4.9435   4.9783   4.9910   5.0231   5.0724
     5.0943   5.1279   5.1513   5.1809   5.2311   5.2452   5.2527   5.2599
     5.3243   5.3331   5.3457   5.3614   5.3874   5.4082   5.4170   5.4482
     5.4625   5.5052   5.5230   5.5487   5.5520   5.5771   5.5881   5.5918
     5.6120   5.6529   5.6936   5.7674   5.8160   5.8233   5.8468   5.8903
     5.9246   5.9594   5.9617   5.9894   6.0071   6.0384   6.0575   6.0787
     6.0819   6.0979   6.1169   6.1436   6.1519   6.1794   6.1992   6.2431
     6.2519   6.2792   6.2828   6.3029   6.3322   6.3793   6.4076   6.4328
     6.4372   6.4596   6.4717   6.4867   6.5011   6.5709   6.6157   6.6254
     6.6562   6.6812   6.7031   6.7113   6.7288   6.7466   6.7830   6.8229
     6.8295   6.8505   6.8549   6.8844   6.8869   6.8878   6.9226   6.9746
     6.9776   7.0045   7.0193   7.0291   7.0394   7.0920   7.1000   7.1190
     7.1377   7.1472   7.1673   7.1865   7.2027   7.2331   7.2450   7.2558
     7.2634   7.2687   7.2919   7.3037   7.3236   7.3472   7.3681   7.3823
     7.4200   7.4370   7.4587   7.4703   7.4817   7.5007   7.5174   7.5352
     7.5754   7.5815   7.5829   7.6164   7.6243   7.6289   7.6448   7.6751
     7.6901   7.7131   7.7452   7.7754   7.8097   7.8336   7.8504   7.8684
     7.8929   7.8980   7.9204   7.9417   7.9476   8.0174   8.0287   8.0414
     8.0653   8.0692   8.0870   8.1076   8.1280   8.1476   8.1554   8.1901
     8.2093   8.2218   8.2223   8.2468   8.2743   8.2913   8.3340   8.3489
     8.3620   8.3682   8.3879   8.4103   8.4237   8.4390   8.4484   8.4676
     8.5019   8.5034   8.5387   8.5562   8.5640   8.5989   8.6045   8.6247
     8.6371   8.6446   8.6538   8.6592   8.7147   8.7347   8.7388   8.7553
     8.7796   8.8038   8.8146   8.8202   8.8426   8.8868   8.8905   8.9160
     8.9218   8.9488   8.9611   9.0193   9.0434   9.0515   9.0633   9.0753
     9.0942   9.0997   9.1137   9.1177   9.1439   9.1531   9.1705   9.1832
     9.2046   9.2288   9.2305   9.2525   9.2529   9.2715   9.2848   9.3006
     9.3286   9.3375   9.3523   9.3582   9.3809   9.4345   9.4612   9.4686
     9.4887   9.5036   9.5406   9.5528   9.5741   9.5908   9.6111   9.6548
     9.6742   9.7047   9.7122   9.7285   9.7488   9.7561   9.7686   9.7814
     9.8021   9.8213   9.8310   9.8413   9.8704   9.9373   9.9553   9.9620
     9.9689  10.0236  10.0343  10.0447

          k = 0.0000 0.0000 0.0026 (132739 PWs)   bands (ev):

   -21.7744 -21.3641 -21.2934 -21.1389 -20.7684 -20.6928 -20.1924 -20.0439
   -19.9460 -19.8407 -19.7664 -19.4136 -19.2450 -18.9252 -18.8707 -18.5784
   -18.3189 -18.1392 -17.9137 -17.7524 -17.6706 -17.5178 -17.3438 -17.2286
   -17.0954 -17.0045 -16.8413 -16.6459 -16.4355 -15.9334 -15.6631 -15.1940
   -15.0163 -14.9456 -14.7759 -14.7095 -14.5217 -14.4391 -14.4095 -14.3113
   -13.9364 -13.8024 -13.6317 -13.4339 -13.0044 -12.8476 -12.7977 -12.6279
   -12.5238 -12.4646 -12.3549 -11.5800 -11.4973 -11.3473 -11.2153 -11.1876
   -11.1069 -10.9907 -10.8391 -10.7821 -10.7230 -10.6668 -10.5629 -10.5166
   -10.2255 -10.0879 -10.0345  -9.9625  -9.8468  -9.7234  -9.6607  -9.3610
    -9.3530  -9.2789  -9.2239  -9.1219  -9.0961  -9.0488  -9.0479  -9.0204
    -8.8112  -8.7352  -8.6955  -8.6894  -8.5992  -8.5972  -8.5457  -8.5201
    -8.4751  -8.3348  -8.2688  -8.0977  -8.0723  -8.0049  -7.9375  -7.8124
    -7.7690  -7.7266  -7.6280  -7.6143  -7.5700  -7.5344  -7.4231  -7.1248
    -7.1124  -6.9823  -6.9500  -6.9149  -6.7250  -6.6757  -6.6049  -6.5676
    -6.5022  -6.2916  -5.9824  -5.8886  -5.8254  -5.7946  -5.5129  -5.4378
    -5.3923  -5.2944  -5.0418  -4.8888  -4.7817  -4.7148  -4.6025  -4.3242
    -4.1009  -3.2340  -3.0860  -1.9369  -1.8019  -1.0543  -0.8154  -0.6382
    -0.4359  -0.4049  -0.2293  -0.1388  -0.0781   0.1082   0.1958   0.4469
     0.5894   0.6413   0.8965   0.9009   1.0252   1.1268   1.1651   1.2187
     1.2525   1.2991   1.3697   1.3994   1.4804   1.5328   1.5738   1.7000
     1.7740   1.8498   1.9222   1.9409   2.0258   2.0665   2.1831   2.2010
     2.2559   2.3490   2.3904   2.4835   2.5206   2.5272   2.5565   2.6608
     2.6670   2.6789   2.7064   2.7422   2.7482   2.7862   2.8292   2.8722
     2.8960   2.9524   2.9889   3.0018   3.0109   3.1079   3.1162   3.1289
     3.2010   3.2217   3.2418   3.2591   3.3222   3.3306   3.3643   3.3711
     3.3865   3.4350   3.4588   3.4974   3.5286   3.5443   3.5745   3.6050
     3.6199   3.6467   3.6790   3.7625   3.7764   3.7780   3.8456   3.9029
     3.9259   3.9400   3.9598   3.9901   4.0192   4.0332   4.0508   4.0696
     4.1423   4.1644   4.2128   4.2249   4.2382   4.3084   4.3113   4.3771
     4.4135   4.4568   4.4966   4.5361   4.5503   4.5877   4.5988   4.6122
     4.6725   4.6898   4.6950   4.7126   4.7652   4.7929   4.8104   4.8292
     4.8634   4.9027   4.9261   4.9424   4.9460   4.9861   5.0191   5.0841
     5.1190   5.1330   5.1654   5.1840   5.2081   5.2289   5.2423   5.2843
     5.3197   5.3246   5.3514   5.3807   5.3888   5.3980   5.4111   5.4520
     5.4769   5.4943   5.5402   5.5425   5.5656   5.5777   5.5825   5.6044
     5.6307   5.6633   5.6996   5.7384   5.7817   5.8315   5.8591   5.8935
     5.9162   5.9285   5.9821   5.9839   5.9969   6.0400   6.0440   6.0761
     6.0811   6.1055   6.1224   6.1294   6.1720   6.1762   6.2229   6.2238
     6.2522   6.2841   6.2870   6.3127   6.3201   6.3804   6.4050   6.4193
     6.4302   6.4697   6.4833   6.4978   6.5335   6.5781   6.6061   6.6259
     6.6437   6.6712   6.6907   6.6947   6.7060   6.7472   6.7740   6.8350
     6.8448   6.8475   6.8581   6.8581   6.8633   6.8839   6.9492   6.9860
     6.9955   6.9998   7.0162   7.0292   7.0640   7.0754   7.0988   7.1158
     7.1172   7.1331   7.1623   7.1650   7.2061   7.2425   7.2548   7.2635
     7.2723   7.2779   7.3020   7.3183   7.3289   7.3563   7.3683   7.3751
     7.3976   7.4415   7.4564   7.4690   7.4738   7.4962   7.5058   7.5563
     7.5674   7.5765   7.5789   7.6097   7.6210   7.6416   7.6588   7.6875
     7.7168   7.7181   7.7575   7.7694   7.8042   7.8343   7.8410   7.8540
     7.9004   7.9021   7.9213   7.9334   7.9642   8.0141   8.0252   8.0258
     8.0646   8.0751   8.0910   8.1097   8.1191   8.1347   8.1552   8.1782
     8.2002   8.2158   8.2164   8.2366   8.2896   8.3040   8.3245   8.3404
     8.3580   8.3628   8.3827   8.3942   8.4222   8.4516   8.4631   8.4745
     8.5014   8.5040   8.5462   8.5466   8.5670   8.6051   8.6226   8.6411
     8.6517   8.6548   8.6648   8.6931   8.7159   8.7314   8.7350   8.7393
     8.7771   8.7889   8.8286   8.8378   8.8596   8.8599   8.8847   8.8903
     8.9222   8.9302   8.9531   9.0114   9.0133   9.0435   9.0549   9.0668
     9.0719   9.0793   9.1030   9.1267   9.1363   9.1615   9.1770   9.1788
     9.1985   9.2247   9.2676   9.2764   9.2765   9.2978   9.3034   9.3154
     9.3378   9.3426   9.3736   9.3813   9.3814   9.4141   9.4479   9.4683
     9.4754   9.4961   9.5474   9.5689   9.5781   9.5923   9.6120   9.6446
     9.6680   9.6976   9.7033   9.7222   9.7588   9.7618   9.7692   9.7763
     9.8081   9.8226   9.8381   9.8751   9.8820   9.9364   9.9462   9.9549
     9.9756  10.0220  10.0239  10.0456

          k = 0.0000 0.0000 0.0039 (132763 PWs)   bands (ev):

   -21.7736 -21.3790 -21.2784 -21.1366 -20.7816 -20.6782 -20.1928 -20.0741
   -19.9394 -19.8225 -19.7573 -19.4371 -19.2200 -18.9335 -18.8667 -18.5742
   -18.3294 -18.1250 -17.9607 -17.7425 -17.6439 -17.5089 -17.3718 -17.2403
   -17.0603 -17.0038 -16.8391 -16.6469 -16.4402 -15.9293 -15.6652 -15.1921
   -15.0119 -14.9840 -14.7759 -14.6721 -14.5698 -14.4469 -14.4081 -14.2588
   -13.9324 -13.8039 -13.6795 -13.3841 -13.0070 -12.8642 -12.7937 -12.6241
   -12.5240 -12.4491 -12.3530 -11.6236 -11.4962 -11.3124 -11.2373 -11.1875
   -11.1070 -10.9949 -10.8668 -10.8215 -10.7276 -10.6335 -10.5457 -10.4580
   -10.2591 -10.0818 -10.0326  -9.9435  -9.8457  -9.7347  -9.6416  -9.3786
    -9.3553  -9.2620  -9.2444  -9.1182  -9.1066  -9.0445  -9.0332  -9.0120
    -8.8203  -8.7543  -8.7052  -8.7010  -8.5911  -8.5819  -8.5369  -8.5175
    -8.4696  -8.3427  -8.2669  -8.1170  -8.0717  -7.9860  -7.9368  -7.8473
    -7.7967  -7.7334  -7.6016  -7.5812  -7.5583  -7.5497  -7.4038  -7.1437
    -7.1400  -6.9738  -6.9189  -6.9087  -6.7265  -6.6828  -6.6217  -6.5695
    -6.4788  -6.2878  -5.9942  -5.8914  -5.8271  -5.7782  -5.5531  -5.4503
    -5.3863  -5.2529  -5.0446  -4.9273  -4.7764  -4.6821  -4.6037  -4.3251
    -4.1000  -3.2560  -3.0643  -1.9639  -1.7767  -1.0504  -0.8145  -0.6429
    -0.4564  -0.4154  -0.2027  -0.1337  -0.0821   0.1230   0.1441   0.5040
     0.5905   0.6425   0.8703   0.8977   1.0503   1.1065   1.1488   1.2313
     1.2663   1.3139   1.3679   1.3894   1.4625   1.5244   1.5977   1.7197
     1.7651   1.8393   1.9100   1.9590   2.0389   2.0668   2.1894   2.2010
     2.2499   2.3226   2.3873   2.4918   2.5193   2.5285   2.5559   2.6415
     2.6631   2.6768   2.6979   2.7247   2.7456   2.8057   2.8270   2.8837
     2.9011   2.9804   2.9933   2.9942   3.0161   3.0866   3.1061   3.1433
     3.1973   3.2224   3.2327   3.2591   3.3128   3.3207   3.3525   3.3780
     3.3981   3.4506   3.4821   3.5047   3.5294   3.5446   3.5544   3.5608
     3.6207   3.6402   3.6961   3.7220   3.7840   3.7903   3.8531   3.9153
     3.9275   3.9467   3.9829   4.0041   4.0154   4.0194   4.0573   4.0868
     4.1349   4.1727   4.2191   4.2240   4.2530   4.3151   4.3305   4.3817
     4.3847   4.4464   4.4550   4.5345   4.5410   4.5670   4.5973   4.6236
     4.6573   4.7061   4.7152   4.7327   4.7781   4.7968   4.8299   4.8434
     4.8627   4.8825   4.8883   4.9277   4.9436   4.9703   5.0314   5.0644
     5.1315   5.1616   5.1663   5.1892   5.2012   5.2258   5.2275   5.2962
     5.3037   5.3328   5.3542   5.3591   5.3966   5.4126   5.4217   5.4637
     5.4811   5.4931   5.5282   5.5702   5.5791   5.5794   5.5858   5.6014
     5.6720   5.6720   5.7020   5.7155   5.7442   5.8294   5.8719   5.8847
     5.8917   5.9242   5.9676   5.9686   6.0071   6.0108   6.0548   6.0740
     6.0988   6.0990   6.1219   6.1406   6.1562   6.1662   6.2236   6.2570
     6.2657   6.2667   6.2857   6.3172   6.3499   6.3886   6.3925   6.4092
     6.4238   6.4667   6.4884   6.5089   6.5687   6.5905   6.5952   6.6110
     6.6244   6.6571   6.6838   6.6857   6.7002   6.7410   6.7660   6.8174
     6.8216   6.8346   6.8490   6.8743   6.8790   6.8888   6.9548   6.9800
     6.9971   7.0032   7.0039   7.0479   7.0604   7.0845   7.0880   7.1043
     7.1213   7.1313   7.1380   7.1803   7.2079   7.2477   7.2483   7.2704
     7.2719   7.2996   7.3001   7.3147   7.3446   7.3555   7.3657   7.3785
     7.4149   7.4321   7.4409   7.4546   7.4702   7.5065   7.5221   7.5467
     7.5474   7.5686   7.5934   7.6209   7.6248   7.6587   7.6802   7.6916
     7.7225   7.7386   7.7417   7.7744   7.8060   7.8369   7.8393   7.8543
     7.8743   7.9090   7.9286   7.9425   7.9804   7.9963   8.0189   8.0216
     8.0631   8.0839   8.0966   8.0981   8.1140   8.1143   8.1383   8.1660
     8.1682   8.2175   8.2311   8.2499   8.2828   8.2956   8.3087   8.3460
     8.3558   8.3582   8.3711   8.4139   8.4154   8.4575   8.4675   8.4828
     8.4856   8.5230   8.5421   8.5526   8.5923   8.6044   8.6448   8.6598
     8.6627   8.6712   8.6792   8.7111   8.7147   8.7242   8.7323   8.7578
     8.7719   8.7788   8.8099   8.8395   8.8560   8.8597   8.8717   8.8953
     8.9229   8.9398   8.9449   8.9800   8.9812   9.0039   9.0299   9.0389
     9.0628   9.0748   9.1049   9.1132   9.1401   9.1563   9.1803   9.1840
     9.2237   9.2366   9.2743   9.2784   9.3102   9.3196   9.3280   9.3421
     9.3595   9.3621   9.3761   9.3822   9.4090   9.4215   9.4317   9.4528
     9.4793   9.5182   9.5261   9.5691   9.5881   9.5992   9.6082   9.6461
     9.6519   9.6955   9.6971   9.7198   9.7537   9.7685   9.7765   9.7778
     9.8222   9.8239   9.8611   9.8810   9.9121   9.9139   9.9441   9.9601
     9.9880   9.9956  10.0036  10.0583

          k = 0.0000 0.0000 0.0052 (132771 PWs)   bands (ev):

   -21.7724 -21.3941 -21.2632 -21.1331 -20.7954 -20.6626 -20.1939 -20.1037
   -19.9408 -19.7971 -19.7460 -19.4628 -19.1924 -18.9437 -18.8622 -18.5686
   -18.3415 -18.1075 -18.0078 -17.7465 -17.6071 -17.4968 -17.4063 -17.2465
   -17.0377 -16.9909 -16.8364 -16.6481 -16.4462 -15.9244 -15.6678 -15.1894
   -15.0247 -15.0055 -14.7769 -14.6448 -14.6042 -14.4567 -14.4064 -14.2059
   -13.9277 -13.8063 -13.7255 -13.3342 -13.0110 -12.8811 -12.7938 -12.6185
   -12.5205 -12.4318 -12.3503 -11.6702 -11.4963 -11.2790 -11.2619 -11.1867
   -11.1088 -11.0105 -10.8872 -10.8682 -10.7144 -10.6060 -10.5188 -10.3995
   -10.2937 -10.0947 -10.0127  -9.9252  -9.8443  -9.7437  -9.6216  -9.3966
    -9.3580  -9.2680  -9.2454  -9.1187  -9.1127  -9.0394  -9.0215  -9.0000
    -8.8329  -8.7732  -8.7217  -8.7043  -8.5934  -8.5634  -8.5278  -8.5158
    -8.4567  -8.3535  -8.2654  -8.1336  -8.0709  -7.9759  -7.9296  -7.8833
    -7.8248  -7.7436  -7.5745  -7.5647  -7.5510  -7.5376  -7.3832  -7.1762
    -7.1574  -6.9677  -6.8983  -6.8870  -6.7286  -6.6954  -6.6334  -6.5716
    -6.4547  -6.2830  -6.0076  -5.8953  -5.8295  -5.7582  -5.5971  -5.4629
    -5.3789  -5.2114  -5.0486  -4.9659  -4.7713  -4.6509  -4.6037  -4.3257
    -4.0989  -3.2802  -3.0406  -1.9923  -1.7508  -1.0450  -0.8133  -0.6495
    -0.4867  -0.4150  -0.1884  -0.1265  -0.0760   0.0906   0.1439   0.5631
     0.5922   0.6441   0.8386   0.8993   1.0743   1.0862   1.1305   1.2411
     1.2829   1.3323   1.3649   1.3758   1.4471   1.5164   1.6225   1.7430
     1.7523   1.8330   1.8923   1.9824   2.0516   2.0669   2.1972   2.2004
     2.2430   2.2918   2.3847   2.4984   2.5171   2.5313   2.5529   2.6192
     2.6465   2.6797   2.6838   2.7151   2.7459   2.8267   2.8278   2.8966
     2.9070   2.9703   2.9984   3.0201   3.0345   3.0677   3.0842   3.1515
     3.1717   3.2233   3.2375   3.2773   3.2978   3.3242   3.3333   3.3819
     3.4121   3.4357   3.5125   3.5149   3.5160   3.5333   3.5355   3.5606
     3.6222   3.6435   3.6773   3.7199   3.7849   3.7894   3.8695   3.8939
     3.9232   3.9667   3.9826   4.0045   4.0286   4.0438   4.0827   4.1052
     4.1248   4.1810   4.2122   4.2239   4.2884   4.3121   4.3388   4.3654
     4.3975   4.4146   4.4339   4.5146   4.5177   4.5703   4.5889   4.6384
     4.6487   4.7036   4.7363   4.7681   4.7904   4.7917   4.8256   4.8382
     4.8497   4.8851   4.8973   4.9025   4.9439   4.9740   5.0055   5.0762
     5.1204   5.1332   5.1885   5.1978   5.2062   5.2190   5.2577   5.2681
     5.2993   5.3299   5.3563   5.3710   5.3981   5.4145   5.4387   5.4698
     5.5042   5.5052   5.5176   5.5562   5.5810   5.5997   5.6102   5.6167
     5.6675   5.6891   5.7079   5.7153   5.7193   5.8170   5.8614   5.8764
     5.8802   5.9230   5.9377   5.9597   5.9849   6.0144   6.0607   6.0677
     6.0878   6.1010   6.1185   6.1322   6.1670   6.1776   6.2364   6.2502
     6.2610   6.2885   6.3048   6.3336   6.3602   6.3626   6.4065   6.4218
     6.4247   6.4649   6.4804   6.5169   6.5371   6.5719   6.5974   6.6169
     6.6396   6.6678   6.6753   6.6779   6.6919   6.7326   6.7597   6.7860
     6.8113   6.8238   6.8443   6.8811   6.8864   6.8993   6.9470   6.9575
     6.9911   6.9987   7.0068   7.0448   7.0554   7.0719   7.0840   7.1180
     7.1245   7.1323   7.1576   7.1995   7.2167   7.2375   7.2461   7.2614
     7.2726   7.2833   7.3086   7.3170   7.3288   7.3589   7.3704   7.3981
     7.4168   7.4220   7.4462   7.4698   7.4790   7.5037   7.5336   7.5352
     7.5521   7.5556   7.5923   7.6272   7.6670   7.6704   7.6755   7.7022
     7.7232   7.7436   7.7469   7.7520   7.8045   7.8340   7.8521   7.8556
     7.8863   7.9166   7.9193   7.9514   7.9602   8.0112   8.0229   8.0367
     8.0455   8.0585   8.0792   8.0901   8.0999   8.1238   8.1306   8.1407
     8.1590   8.2096   8.2488   8.2639   8.2672   8.2907   8.3072   8.3159
     8.3595   8.3665   8.3712   8.4024   8.4502   8.4576   8.4596   8.4760
     8.4949   8.5306   8.5674   8.5705   8.6016   8.6132   8.6448   8.6631
     8.6633   8.6683   8.6859   8.7138   8.7239   8.7327   8.7395   8.7626
     8.7673   8.7894   8.8005   8.8309   8.8646   8.8680   8.8746   8.9019
     8.9046   8.9266   8.9437   8.9506   8.9798   8.9902   9.0115   9.0145
     9.0447   9.0774   9.0836   9.1027   9.1106   9.1603   9.1813   9.2049
     9.2404   9.2566   9.2660   9.2876   9.3196   9.3341   9.3525   9.3565
     9.3703   9.3737   9.3838   9.4079   9.4252   9.4354   9.4374   9.4645
     9.4984   9.5199   9.5422   9.5607   9.5829   9.5958   9.6157   9.6287
     9.6409   9.7044   9.7045   9.7267   9.7452   9.7743   9.7843   9.7862
     9.8254   9.8277   9.8780   9.8923   9.9052   9.9062   9.9447   9.9506
     9.9888   9.9895  10.0125  10.0308

          k = 0.0000 0.0000 0.0065 (132741 PWs)   bands (ev):

   -21.7709 -21.4092 -21.2484 -21.1283 -20.8092 -20.6464 -20.1973 -20.1310
   -19.9471 -19.7676 -19.7329 -19.4891 -19.1635 -18.9554 -18.8574 -18.5620
   -18.3542 -18.0888 -18.0539 -17.7568 -17.5691 -17.4815 -17.4429 -17.2498
   -17.0348 -16.9597 -16.8329 -16.6495 -16.4529 -15.9198 -15.6707 -15.1862
   -15.0642 -14.9983 -14.7807 -14.6725 -14.5801 -14.4683 -14.4039 -14.1529
   -13.9237 -13.8118 -13.7662 -13.2843 -13.0169 -12.8976 -12.7979 -12.6107
   -12.5135 -12.4134 -12.3468 -11.7182 -11.4969 -11.2928 -11.2475 -11.1818
   -11.1134 -11.0383 -10.9213 -10.8895 -10.6932 -10.5844 -10.4834 -10.3469
   -10.3230 -10.1128  -9.9893  -9.9079  -9.8424  -9.7500  -9.6006  -9.4145
    -9.3608  -9.2931  -9.2297  -9.1317  -9.1051  -9.0330  -9.0184  -8.9834
    -8.8471  -8.7893  -8.7382  -8.7068  -8.6001  -8.5442  -8.5256  -8.5131
    -8.4372  -8.3666  -8.2645  -8.1465  -8.0701  -7.9778  -7.9194  -7.9148
    -7.8506  -7.7557  -7.5798  -7.5461  -7.5332  -7.5011  -7.3623  -7.2089
    -7.1759  -6.9653  -6.8840  -6.8558  -6.7311  -6.7131  -6.6395  -6.5731
    -6.4306  -6.2775  -6.0212  -5.9004  -5.8326  -5.7359  -5.6429  -5.4755
    -5.3712  -5.1717  -5.0541  -5.0026  -4.7659  -4.6299  -4.5953  -4.3256
    -4.0976  -3.3052  -3.0162  -2.0211  -1.7248  -1.0384  -0.8120  -0.6583
    -0.5166  -0.4125  -0.1864  -0.1274  -0.0515   0.0419   0.1658   0.5943
     0.6228   0.6461   0.8064   0.9014   1.0660   1.0966   1.1116   1.2478
     1.3017   1.3506   1.3594   1.3623   1.4353   1.5096   1.6482   1.7365
     1.7685   1.8302   1.8736   2.0071   2.0634   2.0667   2.1981   2.2032
     2.2390   2.2604   2.3830   2.5003   2.5130   2.5341   2.5491   2.5973
     2.6317   2.6536   2.6818   2.7141   2.7544   2.8312   2.8484   2.8995
     2.9135   2.9678   3.0021   3.0407   3.0430   3.0650   3.0711   3.1120
     3.1905   3.2141   3.2326   3.2925   3.2983   3.3145   3.3327   3.3857
     3.4158   3.4251   3.4714   3.4974   3.5247   3.5282   3.5803   3.5806
     3.6241   3.6330   3.6545   3.7450   3.7712   3.7948   3.8644   3.8763
     3.9209   3.9462   3.9922   4.0194   4.0580   4.0744   4.1074   4.1205
     4.1244   4.1904   4.2070   4.2356   4.2987   4.3038   4.3310   4.3718
     4.3865   4.4183   4.4224   4.4783   4.5036   4.5782   4.5875   4.6191
     4.6559   4.7171   4.7529   4.7774   4.7823   4.7900   4.7943   4.8342
     4.8589   4.8726   4.9178   4.9268   4.9475   4.9708   4.9848   5.0763
     5.0872   5.1456   5.1729   5.1880   5.2086   5.2179   5.2706   5.2912
     5.3031   5.3130   5.3597   5.3828   5.3991   5.4203   5.4567   5.4885
     5.4988   5.5187   5.5359   5.5472   5.5840   5.5944   5.6396   5.6452
     5.6524   5.6769   5.6889   5.7250   5.7596   5.7956   5.8358   5.8718
     5.8823   5.9006   5.9177   5.9611   5.9618   6.0157   6.0412   6.0449
     6.0542   6.1134   6.1383   6.1500   6.1700   6.2102   6.2343   6.2448
     6.2543   6.3004   6.3255   6.3278   6.3676   6.3781   6.4080   6.4178
     6.4465   6.4547   6.4815   6.4936   6.5271   6.5554   6.5999   6.6021
     6.6444   6.6602   6.6727   6.6835   6.6950   6.7437   6.7578   6.7648
     6.8045   6.8081   6.8389   6.8671   6.8952   6.9026   6.9238   6.9460
     6.9826   7.0057   7.0065   7.0195   7.0484   7.0734   7.0822   7.1145
     7.1305   7.1501   7.1898   7.2211   7.2212   7.2258   7.2360   7.2382
     7.2595   7.2789   7.3131   7.3207   7.3279   7.3475   7.3634   7.4077
     7.4233   7.4310   7.4793   7.4800   7.4873   7.5123   7.5233   7.5289
     7.5398   7.5921   7.5960   7.6333   7.6592   7.6674   7.7070   7.7118
     7.7174   7.7295   7.7401   7.7719   7.7888   7.8241   7.8608   7.8667
     7.9067   7.9196   7.9257   7.9381   7.9672   7.9959   8.0190   8.0306
     8.0463   8.0496   8.0700   8.0791   8.0926   8.1054   8.1335   8.1346
     8.1612   8.2046   8.2474   8.2573   8.2729   8.2799   8.2981   8.3256
     8.3488   8.3676   8.3751   8.4075   8.4481   8.4510   8.4666   8.4855
     8.5150   8.5481   8.5845   8.5906   8.6012   8.6252   8.6320   8.6470
     8.6512   8.6567   8.6696   8.7039   8.7270   8.7371   8.7536   8.7606
     8.7853   8.8089   8.8226   8.8331   8.8386   8.8719   8.8835   8.8929
     8.9105   8.9203   8.9413   8.9558   8.9749   8.9854   9.0085   9.0126
     9.0277   9.0553   9.0700   9.0844   9.1144   9.1617   9.1762   9.2162
     9.2170   9.2496   9.2859   9.2960   9.3126   9.3292   9.3547   9.3732
     9.3761   9.3904   9.4229   9.4337   9.4380   9.4454   9.4534   9.4987
     9.5183   9.5387   9.5463   9.5554   9.5908   9.5922   9.6066   9.6271
     9.6569   9.6874   9.7193   9.7193   9.7777   9.7785   9.7831   9.7947
     9.8265   9.8295   9.8751   9.8890   9.8916   9.9155   9.9165   9.9332
     9.9846   9.9959  10.0258  10.0276

          k = 0.0000 0.0000 0.0078 (132689 PWs)   bands (ev):

   -21.7690 -21.4242 -21.2342 -21.1221 -20.8229 -20.6298 -20.2063 -20.1523
   -19.9559 -19.7372 -19.7173 -19.5155 -19.1341 -18.9683 -18.8523 -18.5547
   -18.3666 -18.1054 -18.0631 -17.7703 -17.5361 -17.4885 -17.4514 -17.2516
   -17.0394 -16.9241 -16.8276 -16.6509 -16.4597 -15.9161 -15.6737 -15.1827
   -15.1017 -14.9900 -14.7925 -14.7067 -14.5430 -14.4811 -14.3998 -14.0999
   -13.9234 -13.8296 -13.7895 -13.2347 -13.0251 -12.9129 -12.8053 -12.6004
   -12.5038 -12.3946 -12.3425 -11.7671 -11.4980 -11.3218 -11.2340 -11.1653
   -11.1236 -11.0741 -10.9604 -10.8924 -10.6669 -10.5663 -10.4427 -10.3674
   -10.2791 -10.1320  -9.9670  -9.8920  -9.8401  -9.7532  -9.5789  -9.4323
    -9.3632  -9.3189  -9.2153  -9.1452  -9.0952  -9.0257  -9.0238  -8.9656
    -8.8597  -8.8026  -8.7547  -8.7089  -8.6091  -8.5299  -8.5247  -8.5089
    -8.4178  -8.3800  -8.2636  -8.1551  -8.0699  -7.9878  -7.9548  -7.9054
    -7.8644  -7.7687  -7.5930  -7.5184  -7.5167  -7.4613  -7.3421  -7.2414
    -7.1945  -6.9661  -6.8674  -6.8268  -6.7340  -6.7334  -6.6414  -6.5735
    -6.4066  -6.2718  -6.0341  -5.9066  -5.8363  -5.7124  -5.6894  -5.4884
    -5.3637  -5.1386  -5.0615  -5.0321  -4.7601  -4.6268  -4.5720  -4.3239
    -4.0965  -3.3308  -2.9916  -2.0500  -1.6991  -1.0309  -0.8107  -0.6699
    -0.5431  -0.4098  -0.1910  -0.1348  -0.0317   0.0131   0.1899   0.5969
     0.6487   0.6815   0.7755   0.9039   1.0461   1.0927   1.1165   1.2530
     1.3188   1.3414   1.3519   1.3781   1.4280   1.5040   1.6744   1.7189
     1.7949   1.8298   1.8545   2.0323   2.0654   2.0741   2.1897   2.2011
     2.2348   2.2446   2.3823   2.4966   2.5061   2.5298   2.5462   2.5798
     2.6196   2.6307   2.6715   2.7160   2.7694   2.8359   2.8675   2.8916
     2.9204   2.9795   3.0026   3.0274   3.0308   3.0687   3.0837   3.1012
     3.1862   3.2059   3.2275   3.2727   3.3177   3.3242   3.3469   3.3901
     3.3961   3.4241   3.4407   3.4782   3.5218   3.5449   3.5883   3.6020
     3.6245   3.6325   3.6689   3.7552   3.7700   3.8013   3.8426   3.8587
     3.8929   3.9587   3.9895   4.0445   4.0792   4.0839   4.1194   4.1381
     4.1557   4.2046   4.2156   4.2428   4.2801   4.2917   4.3351   4.3415
     4.4061   4.4296   4.4332   4.4485   4.4920   4.5663   4.5991   4.6079
     4.6481   4.7378   4.7451   4.7519   4.7612   4.7828   4.7913   4.8399
     4.8773   4.8805   4.9241   4.9410   4.9496   4.9805   4.9966   5.0327
     5.0902   5.1485   5.1665   5.1729   5.1766   5.2321   5.2652   5.2893
     5.3326   5.3427   5.3571   5.3828   5.3902   5.4409   5.4761   5.4952
     5.5106   5.5117   5.5472   5.5670   5.5821   5.5857   5.6295   5.6557
     5.6724   5.6849   5.6873   5.7264   5.7730   5.8019   5.8126   5.8666
     5.8729   5.8824   5.9136   5.9302   5.9572   5.9926   6.0198   6.0319
     6.0432   6.1288   6.1475   6.1743   6.1857   6.2120   6.2287   6.2412
     6.2710   6.2891   6.3237   6.3240   6.3882   6.4005   6.4080   6.4097
     6.4402   6.4505   6.4647   6.5221   6.5260   6.5508   6.5754   6.6075
     6.6205   6.6521   6.6739   6.6755   6.6970   6.7349   6.7622   6.7780
     6.8012   6.8041   6.8322   6.8584   6.8732   6.8923   6.9144   6.9414
     6.9643   6.9957   7.0097   7.0308   7.0403   7.0754   7.0864   7.1080
     7.1419   7.1575   7.1867   7.1986   7.2181   7.2197   7.2286   7.2290
     7.2587   7.2917   7.3160   7.3292   7.3411   7.3446   7.3570   7.3990
     7.4422   7.4525   7.4732   7.4864   7.5090   7.5155   7.5282   7.5298
     7.5517   7.6130   7.6259   7.6318   7.6345   7.6571   7.6966   7.7117
     7.7269   7.7408   7.7628   7.7722   7.7813   7.8125   7.8685   7.8751
     7.8942   7.9288   7.9401   7.9405   7.9582   7.9702   8.0110   8.0205
     8.0419   8.0496   8.0749   8.0755   8.0934   8.1105   8.1236   8.1417
     8.1726   8.1957   8.2247   8.2547   8.2624   8.2940   8.3017   8.3250
     8.3466   8.3545   8.3960   8.3961   8.4464   8.4573   8.4730   8.5065
     8.5260   8.5502   8.5729   8.5940   8.6019   8.6210   8.6311   8.6353
     8.6404   8.6537   8.6727   8.6952   8.7126   8.7330   8.7615   8.7641
     8.7711   8.7865   8.8412   8.8469   8.8522   8.8840   8.8896   8.9178
     8.9208   8.9360   8.9362   8.9545   8.9643   8.9900   9.0133   9.0182
     9.0279   9.0412   9.0514   9.0944   9.1132   9.1599   9.1732   9.1915
     9.2182   9.2275   9.2797   9.2834   9.3093   9.3303   9.3607   9.3658
     9.3926   9.4184   9.4398   9.4553   9.4572   9.4652   9.4982   9.5131
     9.5148   9.5436   9.5600   9.5660   9.5908   9.6131   9.6220   9.6409
     9.6738   9.6811   9.7112   9.7396   9.7569   9.7791   9.8046   9.8251
     9.8255   9.8296   9.8623   9.8791   9.8832   9.8835   9.9112   9.9194
     9.9417   9.9939  10.0184  10.0401

          k = 0.0000 0.0000 0.0091 (132677 PWs)   bands (ev):

   -21.7668 -21.4389 -21.2210 -21.1142 -20.8363 -20.6130 -20.2249 -20.1637
   -19.9661 -19.7127 -19.6940 -19.5412 -19.1046 -18.9820 -18.8468 -18.5474
   -18.3779 -18.1518 -18.0413 -17.7856 -17.5307 -17.5068 -17.4207 -17.2526
   -17.0463 -16.8931 -16.8171 -16.6523 -16.4660 -15.9144 -15.6768 -15.1805
   -15.1345 -14.9809 -14.8193 -14.7264 -14.5119 -14.4919 -14.3921 -14.0473
   -13.9339 -13.8537 -13.7939 -13.1857 -13.0359 -12.9264 -12.8153 -12.5873
   -12.4926 -12.3756 -12.3375 -11.8159 -11.4996 -11.3514 -11.2360 -11.1466
   -11.1345 -11.1135 -10.9876 -10.8918 -10.6372 -10.5500 -10.4072 -10.3930
   -10.2215 -10.1513  -9.9473  -9.8779  -9.8374  -9.7527  -9.5567  -9.4499
    -9.3654  -9.3442  -9.2024  -9.1593  -9.0828  -9.0376  -9.0178  -8.9491
    -8.8694  -8.8123  -8.7709  -8.7106  -8.6195  -8.5371  -8.5050  -8.5048
    -8.4152  -8.3819  -8.2606  -8.1600  -8.0712  -8.0033  -7.9881  -7.9169
    -7.8523  -7.7821  -7.6051  -7.4999  -7.4908  -7.4207  -7.3235  -7.2731
    -7.2123  -6.9694  -6.8503  -6.8028  -6.7561  -6.7336  -6.6400  -6.5718
    -6.3827  -6.2663  -6.0454  -5.9139  -5.8407  -5.7372  -5.6875  -5.5013
    -5.3565  -5.1317  -5.0593  -5.0461  -4.7543  -4.6309  -4.5451  -4.3199
    -4.0955  -3.3565  -2.9672  -2.0788  -1.6738  -1.0226  -0.8096  -0.6848
    -0.5643  -0.4079  -0.1990  -0.1463  -0.0605   0.0430   0.2155   0.6000
     0.6517   0.7196   0.7653   0.9068   1.0266   1.0738   1.1331   1.2575
     1.3225   1.3233   1.3581   1.4011   1.4252   1.4994   1.7000   1.7017
     1.8214   1.8311   1.8354   2.0575   2.0619   2.0840   2.1700   2.1916
     2.2230   2.2592   2.3824   2.4860   2.4962   2.5158   2.5450   2.5598
     2.6114   2.6226   2.6574   2.7191   2.7861   2.8412   2.8637   2.9006
     2.9269   2.9889   2.9943   3.0013   3.0304   3.0459   3.1020   3.1262
     3.1678   3.1786   3.2473   3.2480   3.3354   3.3469   3.3645   3.3799
     3.3828   3.3980   3.4497   3.4592   3.5235   3.5413   3.5680   3.6250
     3.6293   3.6779   3.6846   3.7400   3.7914   3.8125   3.8176   3.8381
     3.8626   3.9722   3.9837   4.0628   4.0789   4.0913   4.1411   4.1519
     4.1899   4.2245   4.2280   4.2341   4.2813   4.2855   4.3064   4.3344
     4.4058   4.4259   4.4584   4.4651   4.4821   4.5533   4.5788   4.6299
     4.6365   4.7024   4.7139   4.7340   4.7743   4.7851   4.8095   4.8244
     4.8717   4.9174   4.9281   4.9459   4.9507   4.9905   5.0123   5.0269
     5.0902   5.1196   5.1364   5.1599   5.1973   5.2424   5.2471   5.2883
     5.3447   5.3498   5.3868   5.3911   5.3961   5.4437   5.4854   5.4982
     5.5127   5.5362   5.5419   5.5724   5.5765   5.5952   5.6343   5.6424
     5.6737   5.7067   5.7197   5.7256   5.7471   5.8040   5.8164   5.8628
     5.8733   5.8753   5.8985   5.9107   5.9312   5.9737   6.0250   6.0260
     6.0312   6.1398   6.1476   6.1795   6.1951   6.2189   6.2279   6.2340
     6.2620   6.2987   6.3147   6.3289   6.3587   6.3972   6.4161   6.4330
     6.4413   6.4554   6.4745   6.5210   6.5483   6.5504   6.5655   6.5827
     6.6237   6.6449   6.6684   6.6735   6.6917   6.7206   6.7397   6.7710
     6.8114   6.8228   6.8254   6.8421   6.8711   6.8729   6.9039   6.9393
     6.9424   6.9874   7.0193   7.0310   7.0614   7.0787   7.0875   7.1033
     7.1317   7.1598   7.1620   7.1870   7.1919   7.2049   7.2109   7.2231
     7.2894   7.2999   7.3187   7.3459   7.3492   7.3550   7.3687   7.3918
     7.4567   7.4597   7.4632   7.4918   7.5110   7.5138   7.5431   7.5643
     7.5712   7.5870   7.6231   7.6360   7.6614   7.6699   7.6809   7.7112
     7.7251   7.7418   7.7665   7.7688   7.8025   7.8206   7.8556   7.8645
     7.8862   7.9151   7.9278   7.9440   7.9607   7.9831   8.0000   8.0198
     8.0390   8.0405   8.0875   8.0911   8.0990   8.1050   8.1436   8.1505
     8.1726   8.1822   8.2218   8.2467   8.2624   8.2947   8.3110   8.3130
     8.3242   8.3777   8.3836   8.4186   8.4407   8.4575   8.4730   8.5025
     8.5369   8.5419   8.5474   8.5761   8.6065   8.6185   8.6268   8.6278
     8.6456   8.6698   8.6726   8.7009   8.7030   8.7162   8.7249   8.7362
     8.7861   8.8060   8.8426   8.8441   8.8634   8.8954   8.9001   8.9321
     8.9440   8.9444   8.9579   8.9588   8.9655   8.9935   9.0061   9.0290
     9.0318   9.0565   9.0735   9.1028   9.1065   9.1513   9.1674   9.1753
     9.2014   9.2123   9.2535   9.2719   9.3239   9.3312   9.3499   9.3543
     9.4071   9.4361   9.4468   9.4549   9.4713   9.4970   9.5190   9.5247
     9.5365   9.5634   9.5659   9.5900   9.6068   9.6124   9.6397   9.6574
     9.6893   9.6919   9.7281   9.7432   9.7581   9.7764   9.8107   9.8165
     9.8201   9.8524   9.8524   9.8563   9.8668   9.8773   9.8919   9.9078
     9.9164   9.9635  10.0123  10.0415

          k = 0.0000 0.0000 0.0104 (132691 PWs)   bands (ev):

   -21.7643 -21.4533 -21.2090 -21.1044 -20.8495 -20.5960 -20.2506 -20.1676
   -19.9771 -19.6962 -19.6623 -19.5655 -19.0756 -18.9962 -18.8409 -18.5405
   -18.3875 -18.1989 -18.0178 -17.8022 -17.5695 -17.4894 -17.3815 -17.2531
   -17.0542 -16.8740 -16.7956 -16.6537 -16.4712 -15.9151 -15.6805 -15.1867
   -15.1545 -14.9716 -14.8585 -14.7327 -14.5156 -14.4757 -14.3781 -13.9961
   -13.9619 -13.8645 -13.7916 -13.1384 -13.0483 -12.9379 -12.8269 -12.5716
   -12.4808 -12.3569 -12.3318 -11.8641 -11.5019 -11.3811 -11.2470 -11.1749
   -11.1572 -11.1027 -11.0000 -10.8898 -10.6063 -10.5363 -10.4338 -10.3522
   -10.1708 -10.1637  -9.9304  -9.8656  -9.8343  -9.7486  -9.5344  -9.4672
    -9.3750  -9.3600  -9.1911  -9.1738  -9.0680  -9.0586  -9.0095  -8.9352
    -8.8780  -8.8163  -8.7867  -8.7120  -8.6311  -8.5458  -8.5020  -8.4847
    -8.4323  -8.3731  -8.2521  -8.1623  -8.0775  -8.0232  -8.0160  -7.9343
    -7.8298  -7.7957  -7.6158  -7.4830  -7.4635  -7.3806  -7.3087  -7.3028
    -7.2271  -6.9749  -6.8347  -6.7887  -6.7778  -6.7279  -6.6356  -6.5669
    -6.3592  -6.2616  -6.0545  -5.9224  -5.8457  -5.7849  -5.6630  -5.5140
    -5.3496  -5.1580  -5.0596  -5.0255  -4.7489  -4.6372  -4.5201  -4.3127
    -4.0949  -3.3822  -2.9433  -2.1072  -1.6488  -1.0139  -0.8093  -0.7028
    -0.5793  -0.4074  -0.2113  -0.1623  -0.0917   0.0875   0.2424   0.6035
     0.6551   0.6973   0.8159   0.9101   1.0075   1.0553   1.1452   1.2618
     1.3069   1.3119   1.3757   1.4246   1.4272   1.4954   1.6817   1.7285
     1.8162   1.8338   1.8464   2.0542   2.0798   2.0959   2.1471   2.1796
     2.2204   2.2783   2.3830   2.4668   2.4842   2.5009   2.5315   2.5450
     2.6051   2.6316   2.6420   2.7232   2.8010   2.8458   2.8465   2.9211
     2.9311   2.9583   2.9822   2.9946   3.0370   3.0447   3.1034   3.1343
     3.1380   3.1911   3.2265   3.2647   3.3343   3.3581   3.3662   3.3736
     3.3860   3.4077   3.4419   3.4603   3.4997   3.5281   3.5880   3.6326
     3.6485   3.7007   3.7065   3.7430   3.7907   3.8039   3.8167   3.8335
     3.8355   3.9763   3.9813   4.0473   4.0855   4.1100   4.1549   4.1736
     4.1893   4.2209   4.2279   4.2612   4.2815   4.2864   4.3108   4.3350
     4.3752   4.4459   4.4766   4.4892   4.4904   4.5394   4.5591   4.6256
     4.6477   4.6664   4.6783   4.7082   4.7873   4.7962   4.8066   4.8377
     4.8465   4.9255   4.9475   4.9538   4.9541   4.9752   5.0303   5.0735
     5.0837   5.0896   5.1083   5.1486   5.2179   5.2242   5.2620   5.2904
     5.3357   5.3363   5.3905   5.4179   5.4346   5.4490   5.4697   5.5061
     5.5141   5.5348   5.5611   5.5689   5.5748   5.6192   5.6295   5.6539
     5.6596   5.7177   5.7315   5.7342   5.7439   5.8066   5.8088   5.8410
     5.8513   5.8725   5.9084   5.9155   5.9228   5.9685   6.0191   6.0214
     6.0317   6.1314   6.1430   6.1856   6.1878   6.2080   6.2139   6.2384
     6.2711   6.2882   6.3022   6.3255   6.3754   6.3896   6.4058   6.4300
     6.4654   6.4667   6.4961   6.5103   6.5387   6.5395   6.5725   6.6065
     6.6200   6.6467   6.6623   6.6660   6.6843   6.7154   6.7197   6.7562
     6.7966   6.8071   6.8217   6.8480   6.8502   6.8770   6.9067   6.9113
     6.9529   6.9963   7.0228   7.0275   7.0716   7.0738   7.0922   7.0959
     7.1092   7.1514   7.1601   7.1625   7.1844   7.1972   7.2004   7.2148
     7.2970   7.2992   7.3287   7.3511   7.3644   7.3677   7.3799   7.3954
     7.4479   7.4657   7.4692   7.4958   7.4973   7.5417   7.5539   7.5622
     7.5877   7.5989   7.6050   7.6405   7.6750   7.6904   7.6955   7.7169
     7.7270   7.7400   7.7450   7.7710   7.8164   7.8204   7.8254   7.8585
     7.8891   7.8969   7.9220   7.9505   7.9513   7.9863   8.0246   8.0279
     8.0381   8.0387   8.0953   8.0991   8.1043   8.1186   8.1366   8.1716
     8.1793   8.1910   8.2170   8.2382   8.2668   8.2813   8.3062   8.3205
     8.3267   8.3601   8.3958   8.4189   8.4405   8.4491   8.4654   8.4885
     8.4936   8.5414   8.5638   8.5762   8.5943   8.6163   8.6164   8.6300
     8.6473   8.6565   8.6596   8.6756   8.6911   8.7232   8.7439   8.7461
     8.8090   8.8103   8.8314   8.8368   8.8540   8.8933   8.9244   8.9246
     8.9311   8.9595   8.9716   8.9721   8.9882   9.0096   9.0201   9.0497
     9.0552   9.0945   9.0947   9.1037   9.1076   9.1408   9.1464   9.1687
     9.1863   9.2054   9.2312   9.2649   9.3075   9.3375   9.3516   9.3684
     9.4033   9.4188   9.4196   9.4735   9.4844   9.5160   9.5410   9.5513
     9.5631   9.5770   9.5830   9.5876   9.6227   9.6347   9.6512   9.6632
     9.7001   9.7077   9.7245   9.7527   9.7809   9.7905   9.8067   9.8095
     9.8208   9.8262   9.8296   9.8424   9.8595   9.8607   9.8952   9.9033
     9.9257   9.9629  10.0130  10.0344

          k = 0.0000 0.0000 0.0117 (132697 PWs)   bands (ev):

   -21.7614 -21.4674 -21.1983 -21.0926 -20.8622 -20.5788 -20.2792 -20.1682
   -19.9883 -19.6828 -19.6308 -19.5849 -19.0485 -19.0096 -18.8342 -18.5347
   -18.3948 -18.2460 -17.9937 -17.8198 -17.6096 -17.4746 -17.3391 -17.2527
   -17.0626 -16.8672 -16.7635 -16.6551 -16.4747 -15.9186 -15.6854 -15.2061
   -15.1561 -14.9627 -14.9020 -14.7329 -14.5316 -14.4576 -14.3556 -14.0015
   -13.9488 -13.8623 -13.7854 -13.0996 -13.0562 -12.9472 -12.8390 -12.5532
   -12.4696 -12.3389 -12.3256 -11.9108 -11.5058 -11.4102 -11.2661 -11.2099
   -11.1988 -11.0711 -11.0007 -10.8869 -10.5767 -10.5304 -10.4540 -10.3062
   -10.1890 -10.1078  -9.9163  -9.8552  -9.8308  -9.7411  -9.5128  -9.4842
    -9.3975  -9.3594  -9.1889  -9.1813  -9.0846  -9.0509  -9.0015  -8.9268
    -8.8855  -8.8134  -8.8021  -8.7132  -8.6435  -8.5559  -8.5004  -8.4645
    -8.4539  -8.3695  -8.2369  -8.1635  -8.0947  -8.0449  -8.0323  -7.9500
    -7.8092  -7.8050  -7.6254  -7.4668  -7.4367  -7.3517  -7.3193  -7.3020
    -7.2346  -6.9825  -6.8240  -6.7963  -6.7868  -6.7150  -6.6280  -6.5580
    -6.3359  -6.2580  -6.0608  -5.9319  -5.8514  -5.8329  -5.6393  -5.5260
    -5.3433  -5.1944  -5.0655  -4.9899  -4.7446  -4.6444  -4.4985  -4.3014
    -4.0947  -3.4078  -2.9199  -2.1350  -1.6242  -1.0051  -0.8104  -0.7225
    -0.5884  -0.4090  -0.2329  -0.1784  -0.1122   0.1343   0.2704   0.6075
     0.6590   0.6647   0.8771   0.9137   0.9890   1.0371   1.1507   1.2657
     1.2947   1.2976   1.3940   1.4329   1.4502   1.4914   1.6630   1.7561
     1.7974   1.8374   1.8674   2.0416   2.0921   2.1159   2.1308   2.1678
     2.2209   2.2998   2.3833   2.4418   2.4708   2.4879   2.4998   2.5455
     2.6015   2.6267   2.6472   2.7279   2.8115   2.8271   2.8516   2.9133
     2.9293   2.9468   2.9733   2.9820   3.0384   3.0577   3.0730   3.1288
     3.1431   3.2089   3.2210   3.2775   3.2957   3.3585   3.3738   3.3976
     3.4030   3.4242   3.4285   3.4584   3.4719   3.5350   3.6090   3.6365
     3.6718   3.6959   3.7170   3.7610   3.7822   3.7986   3.8120   3.8138
     3.8599   3.9680   3.9860   4.0306   4.0740   4.1279   4.1593   4.1733
     4.1875   4.2078   4.2476   4.2645   4.2705   4.3023   4.3432   4.3574
     4.3604   4.4470   4.4894   4.5088   4.5146   4.5279   4.5471   4.6163
     4.6178   4.6460   4.6810   4.6817   4.7884   4.7893   4.8127   4.8260
     4.8659   4.8957   4.9430   4.9539   4.9730   5.0069   5.0443   5.0480
     5.0889   5.0892   5.1242   5.1414   5.1942   5.2470   5.2709   5.3004
     5.3199   5.3276   5.3817   5.4139   5.4482   5.4781   5.4829   5.4956
     5.5195   5.5236   5.5659   5.5844   5.5871   5.6205   5.6364   5.6370
     5.6844   5.7037   5.7267   5.7390   5.7711   5.7905   5.8140   5.8173
     5.8386   5.8713   5.9061   5.9284   5.9610   5.9655   6.0090   6.0201
     6.0352   6.1047   6.1335   6.1553   6.1916   6.1924   6.2085   6.2342
     6.2695   6.2870   6.3026   6.3143   6.3887   6.3981   6.4072   6.4316
     6.4706   6.4770   6.4850   6.4909   6.5244   6.5742   6.5897   6.6060
     6.6372   6.6387   6.6559   6.6657   6.6834   6.7004   6.7320   6.7359
     6.7742   6.7808   6.8130   6.8288   6.8665   6.8739   6.8782   6.9049
     6.9825   7.0051   7.0136   7.0275   7.0381   7.0623   7.0822   7.0901
     7.1337   7.1380   7.1541   7.1606   7.1794   7.1915   7.2051   7.2106
     7.2872   7.2942   7.3347   7.3516   7.3637   7.3839   7.3878   7.4082
     7.4288   7.4369   7.4934   7.5115   7.5140   7.5371   7.5547   7.5560
     7.5933   7.6091   7.6365   7.6552   7.6807   7.6862   7.6863   7.7246
     7.7454   7.7470   7.7589   7.7678   7.7766   7.7892   7.8391   7.8627
     7.8770   7.9007   7.9195   7.9335   7.9776   7.9985   8.0275   8.0367
     8.0482   8.0510   8.0884   8.1052   8.1117   8.1441   8.1516   8.1653
     8.1915   8.1978   8.2152   8.2477   8.2592   8.2792   8.3134   8.3142
     8.3373   8.3494   8.3720   8.4148   8.4222   8.4352   8.4502   8.4820
     8.4962   8.5389   8.5406   8.5655   8.5833   8.5971   8.6090   8.6310
     8.6399   8.6538   8.6584   8.6744   8.6884   8.7354   8.7612   8.7744
     8.7942   8.8179   8.8394   8.8407   8.8498   8.8855   8.9040   8.9174
     8.9509   8.9636   8.9649   8.9805   9.0125   9.0264   9.0606   9.0673
     9.0846   9.0883   9.1022   9.1269   9.1301   9.1421   9.1560   9.1600
     9.1773   9.2001   9.2161   9.2677   9.2824   9.3422   9.3531   9.3823
     9.3973   9.4009   9.4018   9.4847   9.4940   9.5220   9.5240   9.5743
     9.5791   9.5884   9.6039   9.6060   9.6315   9.6358   9.6552   9.6772
     9.6926   9.7191   9.7476   9.7647   9.7687   9.7811   9.7915   9.7960
     9.8046   9.8353   9.8440   9.8547   9.8629   9.8741   9.8784   9.9155
     9.9416   9.9773   9.9924  10.0239

          k = 0.0000 0.0000 0.0130 (132705 PWs)   bands (ev):

   -21.7583 -21.4813 -21.1889 -21.0790 -20.8746 -20.5617 -20.3088 -20.1674
   -19.9996 -19.6739 -19.6184 -19.5793 -19.0360 -19.0099 -18.8266 -18.5305
   -18.3989 -18.2929 -17.9694 -17.8380 -17.6492 -17.4619 -17.2991 -17.2484
   -17.0714 -16.8671 -16.7270 -16.6561 -16.4763 -15.9251 -15.6924 -15.2253
   -15.1519 -14.9622 -14.9379 -14.7304 -14.5491 -14.4466 -14.3263 -14.0451
   -13.9154 -13.8441 -13.7761 -13.0969 -13.0340 -12.9525 -12.8506 -12.5324
   -12.4598 -12.3245 -12.3167 -11.9547 -11.5124 -11.4384 -11.2970 -11.2433
   -11.2356 -11.0416 -10.9936 -10.8827 -10.5597 -10.5338 -10.4516 -10.2596
   -10.2068 -10.0538  -9.9040  -9.8462  -9.8268  -9.7310  -9.5008  -9.4941
    -9.4179  -9.3542  -9.2047  -9.1726  -9.1133  -9.0319  -8.9949  -8.9294
    -8.8859  -8.8171  -8.8056  -8.7140  -8.6566  -8.5677  -8.5028  -8.4738
    -8.4443  -8.3724  -8.2199  -8.1634  -8.1226  -8.0647  -8.0374  -7.9638
    -7.8225  -7.7793  -7.6337  -7.4529  -7.4107  -7.3665  -7.3074  -7.2884
    -7.2307  -6.9922  -6.8299  -6.8002  -6.7928  -6.6998  -6.6166  -6.5441
    -6.3131  -6.2557  -6.0640  -5.9426  -5.8811  -5.8577  -5.6185  -5.5355
    -5.3378  -5.2325  -5.0711  -4.9528  -4.7423  -4.6517  -4.4808  -4.2858
    -4.0951  -3.4334  -2.8973  -2.1620  -1.6000  -0.9965  -0.8147  -0.7410
    -0.5924  -0.4129  -0.2665  -0.1871  -0.1246   0.1818   0.2993   0.6119
     0.6312   0.6633   0.9173   0.9398   0.9713   1.0193   1.1478   1.2671
     1.2846   1.2887   1.4077   1.4465   1.4756   1.4872   1.6445   1.7772
     1.7858   1.8420   1.8793   2.0294   2.0978   2.1229   2.1359   2.1620
     2.2227   2.3226   2.3806   2.4169   2.4567   2.4671   2.4758   2.5457
     2.6002   2.6126   2.6645   2.7329   2.8098   2.8148   2.8568   2.8737
     2.9186   2.9492   2.9648   2.9841   3.0114   3.0654   3.0735   3.1285
     3.1520   3.1952   3.2508   3.2544   3.2936   3.3516   3.3835   3.4083
     3.4152   3.4292   3.4343   3.4438   3.4859   3.5439   3.6246   3.6425
     3.6812   3.6941   3.7337   3.7374   3.7725   3.7852   3.8189   3.8423
     3.8878   3.9589   3.9852   4.0158   4.0607   4.1111   4.1509   4.1655
     4.1807   4.2372   4.2458   4.2483   4.2863   4.3232   4.3393   4.3876
     4.4035   4.4362   4.4958   4.5063   4.5199   4.5405   4.5593   4.5843
     4.5975   4.6320   4.6588   4.7073   4.7603   4.7909   4.8117   4.8350
     4.8562   4.8909   4.9397   4.9532   4.9976   4.9986   5.0194   5.0604
     5.0915   5.1030   5.1407   5.1636   5.1797   5.2631   5.2644   5.3041
     5.3220   5.3252   5.3681   5.3942   5.4361   5.4795   5.4941   5.5155
     5.5205   5.5319   5.5705   5.5981   5.5989   5.6042   5.6200   5.6478
     5.7047   5.7140   5.7185   5.7480   5.7543   5.7697   5.8156   5.8230
     5.8715   5.8775   5.9014   5.9340   5.9628   6.0015   6.0037   6.0277
     6.0360   6.0715   6.0955   6.1303   6.1732   6.1998   6.2052   6.2226
     6.2693   6.2695   6.3053   6.3280   6.3665   6.4055   6.4293   6.4472
     6.4527   6.4554   6.4726   6.5011   6.5287   6.5829   6.6112   6.6139
     6.6262   6.6390   6.6647   6.6693   6.6922   6.6987   6.7156   6.7474
     6.7550   6.7614   6.8002   6.8122   6.8488   6.8601   6.8911   6.9028
     6.9739   6.9850   7.0049   7.0222   7.0325   7.0417   7.0835   7.1039
     7.1202   7.1272   7.1636   7.1728   7.1856   7.1932   7.2011   7.2285
     7.2719   7.2891   7.3285   7.3455   7.3657   7.3749   7.3758   7.4160
     7.4285   7.4371   7.4767   7.5186   7.5338   7.5481   7.5526   7.5611
     7.6081   7.6295   7.6410   7.6467   7.6752   7.6949   7.6987   7.7175
     7.7278   7.7449   7.7659   7.7723   7.7912   7.8004   7.8303   7.8577
     7.8755   7.8982   7.9101   7.9568   8.0025   8.0129   8.0180   8.0329
     8.0418   8.0826   8.1029   8.1165   8.1225   8.1442   8.1665   8.1740
     8.1865   8.2013   8.2177   8.2556   8.2611   8.2859   8.2922   8.3202
     8.3380   8.3585   8.3642   8.3762   8.4103   8.4172   8.4481   8.4687
     8.5023   8.5038   8.5170   8.5652   8.5702   8.5817   8.6085   8.6205
     8.6412   8.6597   8.6692   8.6710   8.7012   8.7472   8.7710   8.7749
     8.8049   8.8137   8.8381   8.8468   8.8692   8.8775   8.8891   8.9170
     8.9544   8.9646   8.9665   8.9848   9.0288   9.0355   9.0640   9.0792
     9.0846   9.1073   9.1251   9.1290   9.1378   9.1525   9.1790   9.1816
     9.1972   9.2035   9.2187   9.2557   9.2842   9.3278   9.3557   9.3570
     9.3957   9.4042   9.4258   9.4657   9.4947   9.5240   9.5246   9.5593
     9.5724   9.5972   9.6090   9.6194   9.6256   9.6535   9.6567   9.6764
     9.6910   9.7255   9.7463   9.7514   9.7767   9.7846   9.7863   9.8075
     9.8124   9.8382   9.8479   9.8627   9.8673   9.8797   9.9345   9.9345
     9.9407   9.9685   9.9937  10.0463

          k = 0.0000 0.0000 0.0143 (132748 PWs)   bands (ev):

   -21.7548 -21.4947 -21.1806 -21.0638 -20.8864 -20.5445 -20.3385 -20.1660
   -20.0108 -19.6762 -19.6200 -19.5471 -19.0479 -18.9875 -18.8177 -18.5284
   -18.3996 -18.3396 -17.9457 -17.8567 -17.6874 -17.4507 -17.2767 -17.2262
   -17.0803 -16.8700 -16.6925 -16.6541 -16.4758 -15.9342 -15.7024 -15.2390
   -15.1475 -14.9968 -14.9374 -14.7268 -14.5672 -14.4400 -14.2942 -14.0900
   -13.9027 -13.8049 -13.7643 -13.1138 -13.0085 -12.9442 -12.8606 -12.5095
   -12.4521 -12.3198 -12.3003 -11.9940 -11.5237 -11.4651 -11.3387 -11.2806
   -11.2572 -11.0166 -10.9806 -10.8767 -10.5809 -10.5175 -10.4304 -10.2240
   -10.2124 -10.0041  -9.8915  -9.8382  -9.8225  -9.7194  -9.5170  -9.4858
    -9.4276  -9.3457  -9.2216  -9.1649  -9.1427  -9.0114  -8.9928  -8.9396
    -8.8786  -8.8314  -8.7958  -8.7144  -8.6703  -8.5816  -8.5153  -8.4839
    -8.4241  -8.3793  -8.2137  -8.1551  -8.1549  -8.0790  -8.0375  -7.9761
    -7.8353  -7.7533  -7.6410  -7.4471  -7.3865  -7.3827  -7.3203  -7.2469
    -7.2192  -7.0041  -6.8470  -6.8029  -6.7951  -6.6864  -6.6014  -6.5255
    -6.2906  -6.2546  -6.0640  -5.9543  -5.9295  -5.8646  -5.6050  -5.5387
    -5.3346  -5.2688  -5.0765  -4.9161  -4.7431  -4.6577  -4.4666  -4.2662
    -4.0960  -3.4588  -2.8756  -2.1882  -1.5760  -0.9884  -0.8248  -0.7545
    -0.5926  -0.4195  -0.3063  -0.1891  -0.1332   0.2290   0.3290   0.5982
     0.6168   0.6681   0.9202   0.9550   1.0020   1.0033   1.1364   1.2581
     1.2820   1.2891   1.4168   1.4665   1.4822   1.5015   1.6263   1.7601
     1.8125   1.8480   1.8756   2.0279   2.0987   2.1207   2.1385   2.1780
     2.2252   2.3444   2.3678   2.4009   2.4364   2.4421   2.4642   2.5442
     2.6009   2.6012   2.6813   2.7365   2.7968   2.8076   2.8332   2.8624
     2.8982   2.9342   2.9411   2.9985   3.0047   3.0610   3.0879   3.1387
     3.1582   3.1862   3.2127   3.2845   3.3060   3.3434   3.3671   3.4061
     3.4071   3.4488   3.4600   3.4626   3.5037   3.5548   3.6257   3.6482
     3.6740   3.7139   3.7218   3.7516   3.7533   3.7640   3.8251   3.8920
     3.9162   3.9493   3.9766   4.0041   4.0478   4.0864   4.1142   4.1626
     4.1836   4.2257   4.2400   4.2880   4.3050   4.3130   4.3699   4.4100
     4.4335   4.4361   4.4766   4.4943   4.5327   4.5589   4.5641   4.5732
     4.5779   4.6214   4.6644   4.7295   4.7333   4.7914   4.8125   4.8178
     4.8460   4.9121   4.9347   4.9540   4.9593   5.0019   5.0193   5.0662
     5.1030   5.1378   5.1460   5.1517   5.2209   5.2461   5.2731   5.2907
     5.3266   5.3449   5.3488   5.3784   5.4274   5.4637   5.4847   5.4999
     5.5278   5.5727   5.5794   5.5837   5.5911   5.5981   5.6333   5.6643
     5.6993   5.7061   5.7246   5.7550   5.7563   5.7753   5.8273   5.8422
     5.8738   5.8948   5.9235   5.9337   5.9585   6.0050   6.0111   6.0261
     6.0388   6.0491   6.0677   6.1139   6.1586   6.1888   6.2075   6.2087
     6.2489   6.2710   6.3201   6.3414   6.3435   6.3958   6.4153   6.4313
     6.4420   6.4723   6.4743   6.5156   6.5455   6.5634   6.5999   6.6106
     6.6349   6.6594   6.6691   6.6811   6.7002   6.7024   6.7148   6.7216
     6.7556   6.7791   6.7862   6.7897   6.8346   6.8532   6.8916   6.9128
     6.9280   6.9719   6.9847   6.9949   7.0304   7.0583   7.0796   7.1083
     7.1210   7.1240   7.1632   7.1725   7.1888   7.1936   7.2247   7.2450
     7.2692   7.2915   7.3050   7.3171   7.3626   7.3649   7.3681   7.4196
     7.4313   7.4411   7.4695   7.5143   7.5456   7.5534   7.5542   7.5873
     7.5934   7.6296   7.6437   7.6502   7.6503   7.6724   7.7226   7.7249
     7.7341   7.7476   7.7652   7.7899   7.8059   7.8132   7.8361   7.8721
     7.8839   7.8894   7.9226   7.9769   7.9830   8.0161   8.0225   8.0397
     8.0590   8.1017   8.1131   8.1256   8.1333   8.1446   8.1737   8.1818
     8.1892   8.2123   8.2137   8.2240   8.2788   8.2874   8.3089   8.3116
     8.3203   8.3557   8.3757   8.3816   8.3956   8.3959   8.4282   8.4516
     8.4697   8.4828   8.5253   8.5437   8.5708   8.5919   8.5942   8.6198
     8.6413   8.6559   8.6720   8.6774   8.7182   8.7587   8.7660   8.7818
     8.7947   8.8136   8.8547   8.8549   8.8744   8.8781   8.8835   8.9289
     8.9349   8.9697   8.9755   8.9909   9.0166   9.0512   9.0620   9.0830
     9.0862   9.1072   9.1389   9.1455   9.1491   9.1623   9.1887   9.2001
     9.2124   9.2277   9.2296   9.2878   9.2897   9.3258   9.3334   9.3470
     9.4008   9.4150   9.4318   9.4548   9.4984   9.5087   9.5185   9.5363
     9.5598   9.5808   9.6026   9.6214   9.6260   9.6571   9.6577   9.6831
     9.7005   9.7163   9.7376   9.7377   9.7691   9.7808   9.8113   9.8317
     9.8323   9.8448   9.8628   9.8660   9.8761   9.9089   9.9490   9.9525
     9.9596   9.9794  10.0183  10.0428

          k = 0.0000 0.0000 0.0156 (132750 PWs)   bands (ev):

   -21.7510 -21.5079 -21.1732 -21.0472 -20.8976 -20.5276 -20.3681 -20.1644
   -20.0215 -19.6909 -19.6122 -19.5108 -19.0636 -18.9634 -18.8073 -18.5283
   -18.3975 -18.3855 -17.9242 -17.8752 -17.7231 -17.4406 -17.2739 -17.1851
   -17.0893 -16.8744 -16.6754 -16.6353 -16.4731 -15.9457 -15.7159 -15.2464
   -15.1465 -15.0345 -14.9288 -14.7226 -14.5857 -14.4352 -14.2625 -14.1348
   -13.8998 -13.7579 -13.7481 -13.1341 -13.0063 -12.9141 -12.8660 -12.4856
   -12.4467 -12.3204 -12.2821 -12.0268 -11.5415 -11.4909 -11.3840 -11.3165
   -11.2716 -10.9972 -10.9634 -10.8681 -10.6137 -10.4990 -10.4003 -10.2392
   -10.1661  -9.9634  -9.8757  -9.8288  -9.8178  -9.7070  -9.5328  -9.4949
    -9.4190  -9.3337  -9.2401  -9.1710  -9.1577  -9.0015  -8.9899  -8.9452
    -8.8690  -8.8451  -8.7871  -8.7139  -8.6843  -8.5985  -8.5343  -8.4867
    -8.4041  -8.3881  -8.2255  -8.1889  -8.1337  -8.0863  -8.0357  -7.9869
    -7.8476  -7.7270  -7.6473  -7.4578  -7.3825  -7.3694  -7.3306  -7.2050
    -7.2041  -7.0183  -6.8646  -6.8153  -6.7912  -6.6758  -6.5827  -6.5031
    -6.2685  -6.2543  -6.0609  -5.9779  -5.9672  -5.8722  -5.6036  -5.5315
    -5.3400  -5.2954  -5.0815  -4.8806  -4.7482  -4.6615  -4.4552  -4.2435
    -4.0974  -3.4840  -2.8549  -2.2133  -1.5521  -0.9809  -0.8415  -0.7609
    -0.5899  -0.4288  -0.3470  -0.1869  -0.1401   0.2751   0.3589   0.5671
     0.6222   0.6733   0.9192   0.9432   0.9855   1.0669   1.1186   1.2426
     1.2862   1.2944   1.4237   1.4761   1.4898   1.5278   1.6087   1.7423
     1.8375   1.8556   1.8578   2.0406   2.0932   2.1218   2.1373   2.2039
     2.2284   2.3374   2.3702   2.3879   2.4156   2.4274   2.4549   2.5397
     2.5939   2.6031   2.6952   2.7354   2.7855   2.7905   2.7958   2.8645
     2.8722   2.9163   2.9165   3.0011   3.0258   3.0520   3.1047   3.1427
     3.1603   3.1845   3.1880   3.2954   3.3246   3.3319   3.3436   3.4086
     3.4138   3.4683   3.4836   3.4884   3.5248   3.5676   3.6129   3.6470
     3.6737   3.7205   3.7301   3.7375   3.7449   3.7710   3.8302   3.9377
     3.9420   3.9462   3.9623   3.9919   4.0363   4.0662   4.0787   4.1423
     4.1860   4.2052   4.2580   4.2902   4.3294   4.3410   4.3827   4.4044
     4.4365   4.4487   4.4643   4.4911   4.5253   4.5533   4.5727   4.5843
     4.5986   4.6133   4.6821   4.7105   4.7525   4.7817   4.7975   4.8167
     4.8535   4.9182   4.9259   4.9277   4.9605   4.9851   5.0237   5.0819
     5.1192   5.1253   5.1549   5.1898   5.2223   5.2534   5.2725   5.2923
     5.3229   5.3266   5.3591   5.3828   5.4189   5.4496   5.4621   5.4923
     5.5164   5.5469   5.5624   5.5792   5.6120   5.6280   5.6620   5.6697
     5.6896   5.6899   5.7363   5.7639   5.7820   5.8082   5.8281   5.8702
     5.8745   5.8898   5.9258   5.9515   5.9712   5.9804   5.9941   6.0129
     6.0233   6.0404   6.1006   6.1168   6.1450   6.1557   6.2078   6.2118
     6.2296   6.2722   6.3159   6.3400   6.3514   6.3730   6.3974   6.4125
     6.4262   6.4735   6.4937   6.5253   6.5538   6.5595   6.5907   6.6043
     6.6331   6.6514   6.6698   6.6836   6.6973   6.7245   6.7282   6.7409
     6.7583   6.7608   6.7740   6.7828   6.8455   6.8466   6.8882   6.8913
     6.9106   6.9503   6.9714   6.9773   7.0214   7.0719   7.0752   7.1104
     7.1157   7.1249   7.1565   7.1773   7.1913   7.1982   7.2272   7.2383
     7.2551   7.2980   7.3060   7.3183   7.3527   7.3643   7.3666   7.3769
     7.4368   7.4680   7.4878   7.4985   7.5287   7.5505   7.5621   7.5702
     7.6037   7.6208   7.6233   7.6461   7.6571   7.6666   7.7116   7.7215
     7.7443   7.7724   7.7951   7.8055   7.8207   7.8291   7.8458   7.8825
     7.9080   7.9105   7.9387   7.9522   7.9913   8.0129   8.0285   8.0349
     8.0801   8.1008   8.1055   8.1289   8.1453   8.1660   8.1736   8.1792
     8.1891   8.2107   8.2114   8.2482   8.2642   8.2861   8.3063   8.3205
     8.3214   8.3572   8.3690   8.3769   8.3776   8.3949   8.4074   8.4499
     8.4550   8.4788   8.5198   8.5259   8.5783   8.5794   8.5998   8.6204
     8.6353   8.6416   8.6723   8.6951   8.7330   8.7635   8.7681   8.7818
     8.7924   8.7959   8.8585   8.8687   8.8749   8.8818   8.9055   8.9176
     8.9262   8.9685   8.9882   9.0039   9.0148   9.0486   9.0504   9.0866
     9.0999   9.1141   9.1211   9.1634   9.1636   9.1851   9.1879   9.2013
     9.2141   9.2554   9.2571   9.2924   9.3061   9.3323   9.3502   9.3627
     9.3764   9.4147   9.4422   9.4595   9.4851   9.4985   9.5068   9.5121
     9.5485   9.5650   9.5913   9.6214   9.6304   9.6445   9.6596   9.6931
     9.7010   9.7029   9.7325   9.7350   9.7564   9.7773   9.8246   9.8380
     9.8539   9.8555   9.8863   9.8938   9.9059   9.9363   9.9452   9.9702
     9.9877   9.9950  10.0332  10.0374

          k = 0.0000 0.0000 0.0169 (132756 PWs)   bands (ev):

   -21.7469 -21.5206 -21.1665 -21.0298 -20.9080 -20.5111 -20.3971 -20.1629
   -20.0317 -19.7108 -19.5990 -19.4734 -19.0799 -18.9412 -18.7952 -18.5295
   -18.4329 -18.3905 -17.9123 -17.8880 -17.7541 -17.4316 -17.2769 -17.1392
   -17.0983 -16.8792 -16.6753 -16.6009 -16.4684 -15.9592 -15.7328 -15.2482
   -15.1546 -15.0611 -14.9200 -14.7183 -14.6040 -14.4311 -14.2351 -14.1768
   -13.8994 -13.7377 -13.7006 -13.1553 -13.0164 -12.8920 -12.8503 -12.4661
   -12.4399 -12.3263 -12.2633 -12.0509 -11.5665 -11.5177 -11.4289 -11.3485
   -11.2814 -10.9821 -10.9455 -10.8561 -10.6485 -10.4835 -10.3659 -10.2528
   -10.1204  -9.9367  -9.8578  -9.8127  -9.8113  -9.6947  -9.5483  -9.5120
    -9.4013  -9.3191  -9.2607  -9.1962  -9.1510  -9.0219  -8.9678  -8.9425
    -8.8592  -8.8577  -8.7821  -8.7115  -8.6987  -8.6185  -8.5524  -8.4884
    -8.3977  -8.3844  -8.2472  -8.2230  -8.1079  -8.0883  -8.0331  -7.9954
    -7.8591  -7.7007  -7.6526  -7.4802  -7.3744  -7.3702  -7.3214  -7.1905
    -7.1608  -7.0345  -6.8809  -6.8292  -6.7899  -6.6676  -6.5610  -6.4786
    -6.2538  -6.2468  -6.0553  -6.0262  -5.9811  -5.8803  -5.6118  -5.5184
    -5.3625  -5.3019  -5.0862  -4.8465  -4.7580  -4.6625  -4.4456  -4.2188
    -4.0991  -3.5091  -2.8353  -2.2373  -1.5285  -0.9744  -0.8627  -0.7619
    -0.5853  -0.4421  -0.3847  -0.1819  -0.1457   0.3190   0.3868   0.5409
     0.6280   0.6789   0.9097   0.9401   0.9702   1.0957   1.1315   1.2260
     1.2918   1.3022   1.4301   1.4683   1.5142   1.5546   1.5918   1.7248
     1.8264   1.8522   1.8791   2.0625   2.0823   2.1248   2.1400   2.2300
     2.2320   2.3098   2.3584   2.3871   2.4127   2.4148   2.4511   2.5316
     2.5912   2.6064   2.7009   2.7293   2.7457   2.7573   2.8010   2.8389
     2.8755   2.8971   2.8985   3.0070   3.0262   3.0609   3.1162   3.1200
     3.1602   3.1920   3.1967   3.2719   3.3180   3.3345   3.3589   3.4154
     3.4236   3.4819   3.5059   3.5176   3.5470   3.5821   3.5963   3.6440
     3.6726   3.7094   3.7225   3.7428   3.7522   3.7900   3.8345   3.9285
     3.9431   3.9698   3.9731   3.9980   4.0255   4.0476   4.0527   4.1162
     4.1856   4.1909   4.2778   4.2794   4.3544   4.3716   4.3820   4.3946
     4.4113   4.4315   4.4769   4.4889   4.5347   4.5397   4.5890   4.6042
     4.6226   4.6277   4.6704   4.7340   4.7346   4.7806   4.8077   4.8244
     4.8566   4.8819   4.9126   4.9331   4.9712   4.9750   5.0178   5.1059
     5.1063   5.1362   5.1639   5.1975   5.2363   5.2512   5.2537   5.3055
     5.3231   5.3311   5.3665   5.3924   5.4054   5.4299   5.4511   5.4855
     5.4942   5.5187   5.5298   5.5886   5.6273   5.6300   5.6723   5.6757
     5.7026   5.7190   5.7491   5.7810   5.8076   5.8252   5.8396   5.8658
     5.8852   5.8972   5.9124   5.9396   5.9459   5.9643   6.0070   6.0272
     6.0279   6.0442   6.0866   6.1263   6.1328   6.1644   6.1942   6.2081
     6.2324   6.2725   6.2925   6.3236   6.3552   6.3723   6.3913   6.3956
     6.4108   6.4613   6.4944   6.5205   6.5502   6.5662   6.5892   6.6101
     6.6372   6.6376   6.6611   6.6745   6.6942   6.7340   6.7340   6.7560
     6.7594   6.7744   6.7764   6.7807   6.8307   6.8421   6.8858   6.8960
     6.9039   6.9246   6.9511   6.9878   7.0119   7.0628   7.0830   7.1111
     7.1176   7.1238   7.1483   7.1670   7.1806   7.1852   7.2194   7.2377
     7.2432   7.2870   7.3197   7.3278   7.3392   7.3606   7.3702   7.3851
     7.4514   7.4597   7.4856   7.4937   7.5179   7.5465   7.5595   7.5598
     7.5775   7.6125   7.6282   7.6394   7.6647   7.6790   7.6937   7.7155
     7.7572   7.7918   7.8171   7.8317   7.8349   7.8518   7.8606   7.8986
     7.9236   7.9373   7.9482   7.9618   7.9928   8.0016   8.0171   8.0472
     8.0709   8.0769   8.1013   8.1268   8.1504   8.1765   8.1822   8.1906
     8.1940   8.2152   8.2170   8.2545   8.2772   8.2854   8.2902   8.3182
     8.3262   8.3428   8.3524   8.3672   8.3723   8.4058   8.4227   8.4493
     8.4595   8.4832   8.4993   8.5244   8.5688   8.5843   8.6043   8.6148
     8.6266   8.6297   8.6716   8.7189   8.7329   8.7594   8.7647   8.7787
     8.7862   8.8111   8.8508   8.8548   8.8820   8.8954   8.8996   8.9217
     8.9426   8.9593   9.0037   9.0143   9.0308   9.0399   9.0399   9.0846
     9.0991   9.1212   9.1249   9.1477   9.1724   9.1961   9.2014   9.2182
     9.2376   9.2415   9.2793   9.2976   9.2981   9.3236   9.3529   9.3873
     9.4010   9.4268   9.4290   9.4668   9.4793   9.4861   9.4925   9.5168
     9.5309   9.5584   9.5979   9.6019   9.6231   9.6486   9.6508   9.6789
     9.6972   9.7080   9.7133   9.7392   9.7753   9.7845   9.8322   9.8410
     9.8473   9.8652   9.9095   9.9364   9.9435   9.9465   9.9622   9.9666
    10.0084  10.0126  10.0323  10.0385

          k = 0.0000 0.0000 0.0182 (132768 PWs)   bands (ev):

   -21.7425 -21.5330 -21.1604 -21.0121 -20.9171 -20.4962 -20.4244 -20.1619
   -20.0409 -19.7321 -19.5839 -19.4357 -19.0962 -18.9216 -18.7813 -18.5310
   -18.4788 -18.3825 -17.9253 -17.8850 -17.7752 -17.4238 -17.2822 -17.1078
   -17.0918 -16.8838 -16.6791 -16.5646 -16.4622 -15.9743 -15.7524 -15.2485
   -15.1741 -15.0704 -14.9115 -14.7147 -14.6218 -14.4270 -14.2367 -14.1925
   -13.8982 -13.7227 -13.6464 -13.1767 -13.0309 -12.8921 -12.8074 -12.4659
   -12.4190 -12.3362 -12.2438 -12.0656 -11.5982 -11.5472 -11.4714 -11.3759
   -11.2865 -10.9695 -10.9298 -10.8406 -10.6836 -10.4712 -10.3298 -10.2637
   -10.0763  -9.9223  -9.8459  -9.8072  -9.7789  -9.6827  -9.5633  -9.5294
[...]
     0.7430   0.7828   0.8330   0.8409   0.8813   1.0160   1.0882   1.1937
     1.3653   1.3700   1.4456   1.5087   1.5877   1.6362   1.7369   1.7541
     1.8044   1.8997   1.9717   2.0172   2.0983   2.1065   2.1680   2.2067
     2.2139   2.2474   2.2897   2.3122   2.3869   2.3928   2.4459   2.4731
     2.5378   2.5862   2.5870   2.6701   2.6779   2.7033   2.7391   2.7487
     2.7651   2.8134   2.8997   2.9211   2.9367   3.0208   3.0289   3.1118
     3.1801   3.2263   3.2977   3.3603   3.3767   3.3924   3.4709   3.4839
     3.4902   3.5031   3.5337   3.5691   3.5924   3.6171   3.6314   3.6843
     3.7179   3.7369   3.7632   3.8131   3.8225   3.8411   3.8537   3.8786
     3.8903   3.8990   3.9592   3.9819   4.0398   4.0479   4.0618   4.0664
     4.1058   4.1951   4.2049   4.2341   4.2610   4.2934   4.2976   4.3223
     4.3603   4.3850   4.4998   4.5021   4.5746   4.5757   4.6317   4.6744
     4.7374   4.7657   4.7973   4.8392   4.8562   4.8658   4.8909   4.8951
     4.9210   4.9305   4.9598   4.9631   4.9755   4.9987   5.0202   5.0489
     5.0819   5.1034   5.1096   5.1255   5.1370   5.1804   5.2137   5.2463
     5.2681   5.2723   5.3154   5.3220   5.3585   5.4111   5.4453   5.4475
     5.4769   5.5432   5.5786   5.5922   5.6155   5.6338   5.6848   5.6855
     5.7043   5.7464   5.7798   5.7980   5.8021   5.8580   5.8843   5.8879
     5.9187   5.9372   5.9704   5.9844   6.0072   6.0231   6.0413   6.0490
     6.0608   6.0661   6.1337   6.1402   6.1763   6.1937   6.1997   6.2260
     6.2574   6.2600   6.2944   6.3063   6.3354   6.3369   6.3452   6.3685
     6.3721   6.3816   6.4161   6.4362   6.4722   6.4917   6.5308   6.5440
     6.5626   6.5897   6.5971   6.6198   6.6517   6.6565   6.6854   6.7130
     6.7471   6.7591   6.7917   6.8157   6.8173   6.8288   6.8632   6.8813
     6.9056   6.9277   6.9714   6.9796   7.0301   7.0370   7.0495   7.0515
     7.0751   7.1033   7.1089   7.1490   7.1568   7.1955   7.2151   7.2165
     7.2373   7.2987   7.3195   7.3252   7.3560   7.3613   7.3816   7.4201
     7.4317   7.4670   7.4813   7.4923   7.5050   7.5254   7.5283   7.5489
     7.5659   7.5738   7.6136   7.6206   7.6477   7.6511   7.6791   7.6928
     7.7190   7.7569   7.7755   7.7996   7.8038   7.8484   7.8617   7.9046
     7.9130   7.9361   7.9770   7.9882   8.0298   8.0395   8.0689   8.0828
     8.1127   8.1495   8.1578   8.1634   8.1918   8.2252   8.2295   8.2460
     8.2519   8.2777   8.2825   8.2947   8.3160   8.3360   8.3452   8.3700
     8.3707   8.4169   8.4173   8.4356   8.4678   8.4698   8.4967   8.5084
     8.5128   8.5325   8.5338   8.5557   8.5871   8.6030   8.6254   8.6332
     8.6354   8.6656   8.6812   8.6971   8.7182   8.7260   8.7555   8.7693
     8.7829   8.8010   8.8351   8.8638   8.8792   8.8798   8.9012   8.9054
     8.9148   8.9387   8.9565   8.9743   9.0006   9.0125   9.0272   9.0405
     9.0417   9.0664   9.0851   9.0881   9.1205   9.1383   9.1416   9.1752
     9.2082   9.2358   9.2516   9.2880   9.3035   9.3258   9.3656   9.3753
     9.4228   9.4270   9.4453   9.4767   9.4813   9.5018   9.5417   9.5439
     9.5604   9.5771   9.6031   9.6490   9.6513   9.6791   9.6890   9.7128
     9.7443   9.7530   9.7833   9.7943   9.8045   9.8201   9.8376   9.8438
     9.8628   9.8921   9.9490   9.9572   9.9630   9.9841   9.9883  10.0228
    10.0386  10.0937  10.0975  10.1059

          k = 0.0000 0.0000 0.0299 (132850 PWs)   bands (ev):

   -21.6987 -21.6175 -21.1206 -20.9995 -20.7959 -20.6838 -20.3589 -20.1991
   -20.0572 -19.8770 -19.4579 -19.2526 -19.0511 -18.8784 -18.8430 -18.6945
   -18.4197 -18.3355 -18.1464 -18.0167 -17.5991 -17.4660 -17.3296 -17.1677
   -16.8935 -16.7700 -16.6594 -16.4785 -16.3270 -16.1371 -15.8222 -15.5526
   -15.0395 -14.9865 -14.8547 -14.7951 -14.6477 -14.5824 -14.3590 -14.1531
   -13.7555 -13.6689 -13.2913 -13.2457 -13.0837 -12.9255 -12.8350 -12.4012
   -12.3197 -12.1479 -12.0851 -12.0697 -11.9536 -11.8796 -11.6870 -11.5329
   -11.1508 -11.0259 -10.9206 -10.8062 -10.7033 -10.4679 -10.2350 -10.0938
    -9.9588  -9.8516  -9.7489  -9.7282  -9.6702  -9.6199  -9.5935  -9.5096
    -9.4149  -9.3492  -9.2689  -9.1616  -9.0972  -9.0760  -9.0079  -8.9663
    -8.9129  -8.8710  -8.8390  -8.7546  -8.6871  -8.6604  -8.6397  -8.5595
    -8.5509  -8.4846  -8.3277  -8.2175  -8.1415  -8.0534  -8.0479  -7.8832
    -7.7609  -7.6989  -7.6848  -7.6102  -7.4346  -7.2913  -7.2038  -7.1350
    -7.0585  -6.9934  -6.9934  -6.8306  -6.6979  -6.6333  -6.5079  -6.3891
    -6.3020  -6.1658  -6.0559  -6.0378  -5.9944  -5.9637  -5.8000  -5.7250
    -5.3360  -5.1782  -5.0880  -4.9772  -4.6382  -4.6312  -4.3660  -4.1718
    -3.9415  -3.7388  -2.7178  -2.3849  -1.3042  -1.1131  -0.8811  -0.7673
    -0.6615  -0.6120  -0.4124  -0.2085  -0.0299   0.1857   0.6441   0.7062
     0.7489   0.7730   0.8191   0.8322   0.9198   1.0268   1.0751   1.1506
     1.3717   1.3743   1.4351   1.5169   1.5763   1.6345   1.7769   1.7993
     1.8260   1.8958   1.9642   1.9986   2.0560   2.0795   2.1987   2.2018
     2.2259   2.2524   2.2789   2.3010   2.3505   2.4182   2.4444   2.4825
     2.5561   2.5592   2.5909   2.6773   2.6901   2.7172   2.7253   2.7328
     2.7490   2.8223   2.8841   2.8892   2.9422   3.0154   3.0568   3.1204
     3.1673   3.2003   3.3110   3.3738   3.3930   3.4214   3.4639   3.4870
     3.4899   3.5012   3.5442   3.5676   3.5678   3.6132   3.6317   3.6689
     3.7099   3.7476   3.7610   3.8003   3.8506   3.8547   3.8837   3.8966
     3.9025   3.9077   3.9502   3.9681   4.0063   4.0311   4.0562   4.0780
     4.0902   4.1814   4.2120   4.2484   4.2557   4.2882   4.3125   4.3161
     4.3512   4.3623   4.4657   4.5541   4.5547   4.5963   4.6443   4.7084
     4.7393   4.7730   4.7844   4.7947   4.8568   4.8670   4.8686   4.9188
     4.9322   4.9332   4.9564   4.9819   4.9872   5.0203   5.0460   5.0717
     5.0735   5.0815   5.0889   5.1392   5.1465   5.1862   5.2105   5.2241
     5.2359   5.2482   5.3023   5.3375   5.3636   5.4195   5.4344   5.4383
     5.4989   5.5413   5.5489   5.5724   5.6197   5.6448   5.6745   5.6877
     5.7293   5.7457   5.7765   5.7867   5.8423   5.8645   5.8698   5.9084
     5.9221   5.9344   5.9650   5.9713   6.0001   6.0315   6.0443   6.0471
     6.0597   6.0768   6.1258   6.1503   6.1606   6.1995   6.2035   6.2491
     6.2534   6.2594   6.2929   6.3107   6.3194   6.3418   6.3499   6.3659
     6.3736   6.3931   6.4071   6.4452   6.4579   6.4983   6.5264   6.5373
     6.5502   6.5865   6.6060   6.6162   6.6481   6.6593   6.6889   6.7249
     6.7263   6.7535   6.7923   6.8128   6.8281   6.8297   6.8565   6.8716
     6.8838   6.8849   6.9703   6.9904   7.0102   7.0129   7.0379   7.0530
     7.0578   7.0993   7.1323   7.1526   7.1882   7.2042   7.2301   7.2522
     7.2572   7.3147   7.3346   7.3413   7.3653   7.3828   7.3861   7.4219
     7.4283   7.4396   7.4596   7.4829   7.5115   7.5156   7.5308   7.5453
     7.5512   7.5735   7.6033   7.6160   7.6249   7.6360   7.6821   7.6846
     7.6890   7.7216   7.7680   7.8089   7.8110   7.8429   7.8593   7.9098
     7.9244   7.9464   7.9670   8.0071   8.0360   8.0400   8.0863   8.0977
     8.1244   8.1451   8.1662   8.1756   8.1919   8.2177   8.2292   8.2429
     8.2441   8.2651   8.2994   8.3100   8.3234   8.3409   8.3559   8.3663
     8.3769   8.4076   8.4301   8.4406   8.4604   8.4607   8.5073   8.5111
     8.5289   8.5392   8.5509   8.5639   8.5761   8.6115   8.6277   8.6358
     8.6448   8.6557   8.6916   8.7082   8.7254   8.7285   8.7425   8.7699
     8.7842   8.8187   8.8286   8.8436   8.8439   8.8709   8.8916   8.9085
     8.9126   8.9470   8.9517   8.9793   8.9860   9.0131   9.0237   9.0402
     9.0483   9.0662   9.0881   9.0971   9.1352   9.1354   9.1445   9.1576
     9.1937   9.2211   9.2330   9.2626   9.2997   9.3174   9.3708   9.3959
     9.4143   9.4256   9.4445   9.4673   9.5068   9.5101   9.5323   9.5557
     9.5658   9.5773   9.6000   9.6377   9.6464   9.6764   9.6977   9.7153
     9.7432   9.7549   9.7806   9.7942   9.8036   9.8287   9.8367   9.8578
     9.8633   9.8998   9.9447   9.9627   9.9682   9.9820   9.9944  10.0215
    10.0544  10.0821  10.1010  10.1060

          k = 0.0000 0.0000 0.0312 (132834 PWs)   bands (ev):

   -21.6962 -21.6211 -21.1191 -21.0016 -20.7744 -20.7067 -20.3533 -20.2029
   -20.0557 -19.8821 -19.4522 -19.2567 -19.0145 -18.9172 -18.8417 -18.6939
   -18.3951 -18.3502 -18.1553 -18.0224 -17.5819 -17.4797 -17.3296 -17.1696
   -16.8926 -16.7668 -16.6406 -16.4919 -16.3169 -16.1473 -15.8146 -15.5713
   -15.0280 -14.9832 -14.8495 -14.8039 -14.6379 -14.6053 -14.3556 -14.1560
   -13.7389 -13.6771 -13.2887 -13.2480 -13.0395 -12.9515 -12.8616 -12.3941
   -12.2803 -12.1804 -12.0647 -12.0528 -11.9687 -11.9094 -11.6912 -11.5390
   -11.1268 -11.0524 -10.9206 -10.8021 -10.7003 -10.4696 -10.2277 -10.0978
    -9.9348  -9.8760  -9.7449  -9.7034  -9.6755  -9.6473  -9.5544  -9.5066
    -9.4503  -9.3524  -9.2291  -9.1622  -9.1026  -9.0952  -8.9812  -8.9693
    -8.9281  -8.8819  -8.8495  -8.7529  -8.6591  -8.6584  -8.6427  -8.5888
    -8.5522  -8.4876  -8.3249  -8.2117  -8.1461  -8.0525  -8.0510  -7.8803
    -7.7349  -7.7067  -7.6925  -7.6269  -7.4157  -7.3100  -7.1965  -7.1285
    -7.0538  -7.0000  -6.9993  -6.8327  -6.6539  -6.6311  -6.5543  -6.3898
    -6.2844  -6.1813  -6.0398  -6.0089  -6.0083  -5.9691  -5.8193  -5.7318
    -5.3340  -5.1709  -5.0783  -4.9954  -4.6368  -4.6270  -4.3622  -4.1750
    -3.9283  -3.7511  -2.7151  -2.3884  -1.2917  -1.1259  -0.8724  -0.7810
    -0.6511  -0.6244  -0.4084  -0.2108  -0.0191   0.1710   0.6625   0.7127
     0.7521   0.7665   0.8029   0.8262   0.9598   1.0380   1.0624   1.1117
     1.3727   1.3818   1.4265   1.5241   1.5674   1.6330   1.7961   1.8356
     1.8609   1.9011   1.9439   1.9957   1.9993   2.0657   2.2012   2.2194
     2.2468   2.2558   2.2703   2.2940   2.3148   2.4306   2.4567   2.4889
     2.5324   2.5577   2.6152   2.6836   2.6865   2.7016   2.7127   2.7306
     2.7688   2.8281   2.8532   2.8789   2.9460   3.0115   3.0812   3.1299
     3.1554   3.1762   3.3202   3.3868   3.4034   3.4477   3.4543   3.4764
     3.4934   3.5114   3.5383   3.5458   3.5847   3.5995   3.6370   3.6584
     3.6986   3.7578   3.7598   3.7885   3.8654   3.8806   3.9042   3.9092
     3.9165   3.9216   3.9429   3.9641   3.9727   3.9989   4.0326   4.0895
     4.1074   4.1672   4.2154   4.2440   4.2647   4.2907   4.3052   4.3162
     4.3450   4.3681   4.4327   4.5398   4.6013   4.6126   4.6614   4.7178
     4.7376   4.7468   4.7809   4.7998   4.8256   4.8544   4.8764   4.9161
     4.9405   4.9507   4.9631   4.9903   5.0044   5.0351   5.0453   5.0585
     5.0671   5.1052   5.1097   5.1406   5.1606   5.1790   5.1790   5.2041
     5.2149   5.2309   5.2969   5.3631   5.3675   5.4177   5.4313   5.4499
     5.5089   5.5152   5.5183   5.5843   5.6143   5.6419   5.6744   5.6937
     5.7385   5.7681   5.7695   5.7778   5.8445   5.8738   5.8880   5.9083
     5.9295   5.9440   5.9586   5.9658   5.9687   6.0075   6.0424   6.0626
     6.0916   6.0945   6.1212   6.1357   6.1593   6.1942   6.1974   6.2312
     6.2649   6.2735   6.2888   6.3128   6.3252   6.3409   6.3497   6.3801
     6.3805   6.3955   6.3997   6.4499   6.4738   6.4944   6.4982   6.5107
     6.5524   6.5788   6.6205   6.6305   6.6553   6.6618   6.6710   6.7100
     6.7486   6.7531   6.7959   6.8027   6.8321   6.8379   6.8412   6.8620
     6.8698   6.8768   6.9671   6.9676   6.9976   7.0016   7.0390   7.0515
     7.0596   7.0890   7.1351   7.1549   7.2092   7.2328   7.2396   7.2866
     7.2937   7.3175   7.3415   7.3428   7.3559   7.3769   7.3814   7.4136
     7.4253   7.4421   7.4691   7.4815   7.4897   7.5168   7.5240   7.5405
     7.5760   7.5768   7.5899   7.5947   7.6010   7.6406   7.6613   7.6650
     7.6992   7.7005   7.7522   7.8141   7.8309   7.8320   7.8645   7.9082
     7.9248   7.9579   7.9670   8.0168   8.0374   8.0412   8.0854   8.1088
     8.1298   8.1530   8.1689   8.1802   8.1938   8.2109   8.2242   8.2516
     8.2527   8.2572   8.3156   8.3166   8.3226   8.3527   8.3617   8.3704
     8.3833   8.3960   8.4113   8.4327   8.4618   8.4632   8.4932   8.4954
     8.5258   8.5599   8.5612   8.5826   8.6012   8.6175   8.6211   8.6447
     8.6520   8.6662   8.6896   8.6972   8.7247   8.7383   8.7435   8.7824
     8.7934   8.8071   8.8201   8.8252   8.8361   8.8508   8.8670   8.9053
     8.9119   8.9442   8.9670   8.9794   9.0023   9.0123   9.0137   9.0399
     9.0563   9.0744   9.0824   9.1057   9.1264   9.1424   9.1490   9.1641
     9.1754   9.2102   9.2305   9.2358   9.2971   9.3102   9.3585   9.3888
     9.4136   9.4216   9.4623   9.4796   9.5091   9.5252   9.5397   9.5600
     9.5768   9.5790   9.5881   9.6129   9.6436   9.6828   9.6871   9.7292
     9.7426   9.7533   9.7780   9.7969   9.8016   9.8249   9.8272   9.8643
     9.8827   9.9190   9.9285   9.9631   9.9740   9.9963  10.0104  10.0324
    10.0574  10.0606  10.0835  10.1004

          k = 0.0000 0.0000-0.0326 (132814 PWs)   bands (ev):

   -21.6953 -21.6224 -21.1186 -21.0024 -20.7626 -20.7189 -20.3514 -20.2042
   -20.0552 -19.8839 -19.4502 -19.2583 -18.9916 -18.9408 -18.8413 -18.6937
   -18.3765 -18.3655 -18.1582 -18.0244 -17.5748 -17.4856 -17.3296 -17.1703
   -16.8923 -16.7661 -16.6327 -16.4976 -16.3132 -16.1511 -15.8116 -15.5780
   -15.0238 -14.9824 -14.8471 -14.8074 -14.6272 -14.6206 -14.3543 -14.1570
   -13.7317 -13.6814 -13.2874 -13.2497 -12.9945 -12.9911 -12.8692 -12.3924
   -12.2531 -12.2057 -12.0600 -12.0392 -11.9762 -11.9218 -11.6926 -11.5412
   -11.1131 -11.0670 -10.9207 -10.8007 -10.6994 -10.4702 -10.2249 -10.0997
    -9.9176  -9.8931  -9.7434  -9.6829  -9.6774  -9.6688  -9.5319  -9.5047
    -9.4726  -9.3537  -9.1992  -9.1782  -9.1120  -9.0945  -8.9703  -8.9629
    -8.9402  -8.8893  -8.8514  -8.7524  -8.6575  -8.6440  -8.6413  -8.6071
    -8.5526  -8.4887  -8.3239  -8.2097  -8.1477  -8.0522  -8.0521  -7.8793
    -7.7191  -7.7094  -7.7013  -7.6333  -7.4076  -7.3181  -7.1940  -7.1262
    -7.0520  -7.0024  -7.0016  -6.8334  -6.6361  -6.6122  -6.5909  -6.3901
    -6.2772  -6.1878  -6.0258  -6.0224  -5.9879  -5.9807  -5.8266  -5.7341
    -5.3334  -5.1685  -5.0733  -5.0032  -4.6364  -4.6255  -4.3609  -4.1762
    -3.9234  -3.7556  -2.7142  -2.3896  -1.2871  -1.1306  -0.8687  -0.7864
    -0.6433  -0.6329  -0.4070  -0.2116  -0.0151   0.1657   0.6698   0.7154
     0.7526   0.7646   0.7962   0.8240   0.9796   1.0477   1.0522   1.0924
     1.3731   1.3851   1.4229   1.5273   1.5636   1.6325   1.8054   1.8350
     1.9031   1.9195   1.9201   1.9585   1.9968   2.0604   2.2013   2.2252
     2.2572   2.2664   2.2735   2.2854   2.2914   2.4318   2.4702   2.4912
     2.5170   2.5565   2.6397   2.6575   2.6934   2.7048   2.7076   2.7242
     2.7884   2.8224   2.8413   2.8750   2.9475   3.0100   3.0930   3.1366
     3.1479   3.1644   3.3234   3.3931   3.4070   3.4486   3.4615   3.4731
     3.4924   3.5178   3.5323   3.5363   3.5941   3.5978   3.6275   3.6637
     3.6906   3.7594   3.7638   3.7820   3.8755   3.8886   3.9063   3.9152
     3.9293   3.9341   3.9456   3.9511   3.9574   3.9929   4.0116   4.0936
     4.1206   4.1575   4.2164   4.2390   4.2748   4.2945   4.3008   4.3067
     4.3427   4.3879   4.4089   4.5348   4.6118   4.6339   4.6767   4.7032
     4.7116   4.7660   4.7808   4.7939   4.8279   4.8379   4.8791   4.9148
     4.9428   4.9485   4.9901   4.9956   5.0045   5.0176   5.0427   5.0442
     5.1134   5.1174   5.1239   5.1244   5.1503   5.1703   5.1709   5.1910
     5.2120   5.2249   5.2954   5.3609   5.3852   5.4201   5.4271   5.4633
     5.4888   5.4996   5.5242   5.5903   5.6167   5.6291   5.6752   5.7178
     5.7180   5.7649   5.7757   5.7956   5.8242   5.8804   5.9013   5.9238
     5.9331   5.9361   5.9516   5.9551   5.9787   5.9826   6.0426   6.0733
     6.1027   6.1091   6.1203   6.1217   6.1630   6.1848   6.1898   6.2280
     6.2737   6.2759   6.2847   6.3057   6.3415   6.3446   6.3544   6.3582
     6.3804   6.4060   6.4194   6.4496   6.4654   6.4880   6.4938   6.4985
     6.5612   6.5765   6.6255   6.6324   6.6342   6.6621   6.7050   6.7067
     6.7322   6.7528   6.7979   6.8009   6.8336   6.8342   6.8464   6.8576
     6.8650   6.8800   6.9456   6.9659   6.9979   7.0000   7.0399   7.0490
     7.0649   7.0822   7.1347   7.1558   7.2111   7.2329   7.2849   7.3035
     7.3141   7.3142   7.3172   7.3420   7.3461   7.3691   7.3694   7.4125
     7.4409   7.4483   7.4613   7.4825   7.5028   7.5110   7.5155   7.5351
     7.5770   7.5783   7.5825   7.5851   7.6226   7.6336   7.6429   7.6531
     7.6984   7.7053   7.7437   7.8136   7.8299   7.8434   7.8644   7.9075
     7.9195   7.9566   7.9829   8.0060   8.0434   8.0469   8.0793   8.1125
     8.1307   8.1566   8.1730   8.1809   8.1930   8.2028   8.2234   8.2511
     8.2595   8.2643   8.3185   8.3220   8.3275   8.3534   8.3655   8.3789
     8.3854   8.3892   8.4037   8.4081   8.4651   8.4665   8.4876   8.4907
     8.5347   8.5596   8.5639   8.5907   8.5968   8.6251   8.6352   8.6502
     8.6569   8.6700   8.6743   8.7009   8.7171   8.7446   8.7592   8.7809
     8.7884   8.7979   8.8206   8.8241   8.8247   8.8464   8.8553   8.9039
     8.9132   8.9435   8.9705   8.9943   9.0029   9.0118   9.0159   9.0253
     9.0610   9.0781   9.0832   9.0974   9.1317   9.1451   9.1500   9.1678
     9.1844   9.1890   9.2191   9.2586   9.2789   9.2960   9.3633   9.3782
     9.4205   9.4211   9.4734   9.4852   9.4954   9.5505   9.5507   9.5571
     9.5668   9.5823   9.5832   9.5968   9.6535   9.6682   9.6933   9.7342
     9.7401   9.7520   9.7829   9.7982   9.8065   9.8116   9.8187   9.8898
     9.8909   9.8910   9.9435   9.9618   9.9770  10.0135  10.0239  10.0321
    10.0515  10.0560  10.0597  10.0937

     the Fermi energy is    -2.6276 ev

     Writing output data file C_3Z_2A_W9.save/

     init_run     :     18.54s CPU     19.22s WALL (       1 calls)
     electrons    :  11067.70s CPU  11191.12s WALL (       1 calls)

     Called by init_run:
     wfcinit      :      0.00s CPU      0.00s WALL (       1 calls)
     potinit      :      1.24s CPU      1.39s WALL (       1 calls)
     hinit0       :     13.66s CPU     13.80s WALL (       1 calls)

     Called by electrons:
     c_bands      :  11067.69s CPU  11190.92s WALL (       1 calls)
     v_of_rho     :      0.95s CPU      1.02s WALL (       1 calls)
     newd         :      0.81s CPU      1.06s WALL (       1 calls)

     Called by c_bands:
     init_us_2    :      0.96s CPU      1.08s WALL (      26 calls)
     cegterg      :  10846.78s CPU  10957.69s WALL (     104 calls)

     Called by sum_band:

     Called by *egterg:
     h_psi        :   3504.00s CPU   3555.44s WALL (    1980 calls)
     s_psi        :    347.72s CPU    349.80s WALL (    1980 calls)
     g_psi        :     16.83s CPU     16.91s WALL (    1850 calls)
     cdiaghg      :   3792.30s CPU   3805.70s WALL (    1876 calls)

     Called by h_psi:
     h_psi:pot    :   3482.25s CPU   3525.51s WALL (    1980 calls)
     h_psi:calbec :    327.38s CPU    331.08s WALL (    1980 calls)
     vloc_psi     :   2812.12s CPU   2849.44s WALL (    1980 calls)
     add_vuspsi   :    342.72s CPU    344.95s WALL (    1980 calls)

     General routines
     calbec       :    327.37s CPU    331.04s WALL (    1980 calls)
     fft          :      1.00s CPU      1.09s WALL (      14 calls)
     ffts         :      0.01s CPU      0.01s WALL (       1 calls)
     fftw         :   2227.51s CPU   2255.92s WALL (  610436 calls)
     interpolate  :      0.07s CPU      0.07s WALL (       1 calls)
     davcio       :      0.00s CPU      8.82s WALL (      52 calls)

     Parallel routines
     fft_scatt_xy :    458.26s CPU    463.46s WALL (  610451 calls)
     fft_scatt_yz :    322.37s CPU    328.84s WALL (  610451 calls)

     PWSCF        :     3h 5m CPU        5h 3m WALL

      12h

   This run was terminated on:   4:46:33  29Apr2021            

=------------------------------------------------------------------------------=
   JOB DONE.
=------------------------------------------------------------------------------=
