
     Program PWSCF v.6.3 starts on 17May2021 at 19:11: 0 

     This program is part of the open-source Quantum ESPRESSO suite
     for quantum simulation of materials; please cite
         "P. Giannozzi et al., J. Phys.:Condens. Matter 21 395502 (2009);
         "P. Giannozzi et al., J. Phys.:Condens. Matter 29 465901 (2017);
          URL http://www.quantum-espresso.org", 
     in publications or presentations arising from this work. More details at
     http://www.quantum-espresso.org/quote

     Parallel version (MPI), running on    16 processors
     R & G space division:  proc/nbgrp/npool/nimage =      16
     Waiting for input...
     Reading input from standard input
     Message from routine read_cards :
     DEPRECATED: no units specified in CELL_PARAMETERS card

     Current dimensions of program PWSCF are:
     Max number of different atomic species (ntypx) = 10
     Max number of k-points (npk) =  40000
     Max angular momentum in pseudopotentials (lmaxx) =  3

     Atomic positions and unit cell read from directory:
     /home/zfwang/scratch/GNRDATASET/AGNR/C_3Z_2A_W7/C_3Z_2A_W7.save/


     Subspace diagonalization in iterative solution of the eigenvalue problem:
     a serial algorithm will be used


     Parallelization info
     --------------------
     sticks:   dense  smooth     PW     G-vecs:    dense   smooth      PW
     Min        2556     852    220               345120    66412    8740
     Max        2557     853    221               345123    66415    8743
     Sum       40909   13645   3531              5521939  1062617  139873



     bravais-lattice index     =            0
     lattice parameter (alat)  =       1.8897  a.u.
     unit-cell volume          =   31096.3254 (a.u.)^3
     number of atoms/cell      =           62
     number of atomic types    =            2
     number of electrons       =       206.00
     number of Kohn-Sham states=          500
     kinetic-energy cutoff     =      40.0000  Ry
     charge density cutoff     =     480.0000  Ry
     Exchange-correlation      = PBE ( 1  4  3  4 0 0)

     celldm(1)=  18.897261  celldm(2)=   3.000000  celldm(3)=   1.536000
     celldm(4)=   0.000000  celldm(5)=   0.000000  celldm(6)=   0.000000

     crystal axes: (cart. coord. in units of alat)
               a(1) = (  10.000000   0.000000   0.000000 )  
               a(2) = (   0.000000  30.000000   0.000000 )  
               a(3) = (   0.000000   0.000000  15.360000 )  

     reciprocal axes: (cart. coord. in units 2 pi/alat)
               b(1) = (  0.100000  0.000000  0.000000 )  
               b(2) = (  0.000000  0.033333  0.000000 )  
               b(3) = (  0.000000  0.000000  0.065104 )  


     PseudoPot. # 1 for C  read from file:
     /home/zfwang/hp_home/MySoftware/qe-6.3/pseudo/C.pbe-n-rrkjus_psl.0.1.UPF
     MD5 check sum: fff530ed632a789b3b184014e67dd7f1
     Pseudo is Ultrasoft + core correction, Zval =  4.0
     Generated using "atomic" code by A. Dal Corso v.5.0.2 svn rev. 9415
     Using radial grid of 1073 points,  4 beta functions with: 
                l(1) =   0
                l(2) =   0
                l(3) =   1
                l(4) =   1
     Q(r) pseudized with 0 coefficients 


     PseudoPot. # 2 for H  read from file:
     /home/zfwang/hp_home/MySoftware/qe-6.3/pseudo/H.pbe-rrkjus_psl.0.1.UPF
     MD5 check sum: e164a6907b691c6980f16942be34de84
     Pseudo is Ultrasoft, Zval =  1.0
     Generated using "atomic" code by A. Dal Corso v.5.0.2 svn rev. 9415
     Using radial grid of  929 points,  2 beta functions with: 
                l(1) =   0
                l(2) =   0
     Q(r) pseudized with 0 coefficients 


     atomic species   valence    mass     pseudopotential
        C              4.00    12.01070     C ( 1.00)
        H              1.00     1.00794     H ( 1.00)

     No symmetry found



   Cartesian axes

     site n.     atom                  positions (alat units)
         1           C   tau(   1) = (   5.0000003  10.8801701   7.7050925  )
         2           C   tau(   2) = (   4.9999999  11.9370577  11.8673803  )
         3           C   tau(   3) = (   4.9999988  11.2496803   4.0210356  )
         4           C   tau(   4) = (   4.9999995  12.2399078   8.1470938  )
         5           C   tau(   5) = (   5.0000004  13.2870964  12.2925164  )
         6           C   tau(   6) = (   4.9999998  10.5532157   6.3817394  )
         7           C   tau(   7) = (   4.9999996  11.6011788  10.5425382  )
         8           C   tau(   8) = (   4.9999989  12.6481662  14.6806732  )
         9           C   tau(   9) = (   4.9999982  12.2529243   3.0325614  )
        10           C   tau(  10) = (   4.9999988  13.2694163   7.1737076  )
        11           C   tau(  11) = (   5.0000012  14.3061538  11.3217569  )
        12           C   tau(  12) = (   4.9999983  13.6343631   3.4387647  )
        13           C   tau(  13) = (   4.9999990  14.6458843   7.5748522  )
        14           C   tau(  14) = (   5.0000016  15.6941349  11.7184167  )
        15           C   tau(  15) = (   4.9999988  11.5638038   5.3754215  )
        16           C   tau(  16) = (   4.9999998  12.5908651   9.5326804  )
        17           C   tau(  17) = (   5.0000006  13.6257181  13.7025142  )
        18           C   tau(  18) = (   4.9999980  11.9500436   1.6643535  )
        19           C   tau(  19) = (   4.9999984  12.9398179   5.7912743  )
        20           C   tau(  20) = (   5.0000007  13.9637085   9.9321872  )
        21           C   tau(  21) = (   5.0000018  15.0104492  14.0899356  )
        22           C   tau(  22) = (   4.9999988  14.6633457   2.4652510  )
        23           C   tau(  23) = (   4.9999990  15.6643567   6.5890854  )
        24           C   tau(  24) = (   5.0000015  16.7132099  10.7476509  )
        25           C   tau(  25) = (   5.0000024  17.7603767  14.8930639  )
        26           C   tau(  26) = (   4.9999997  16.0362999   2.8658092  )
        27           C   tau(  27) = (   4.9999989  17.0437927   6.9849520  )
        28           C   tau(  28) = (   5.0000025  18.0632569  11.1727897  )
        29           C   tau(  29) = (   5.0000013  19.1201270  15.3350617  )
        30           C   tau(  30) = (   4.9999985  12.9564991   0.6951827  )
        31           C   tau(  31) = (   4.9999985  13.9639359   4.8143118  )
        32           C   tau(  32) = (   4.9999999  14.9898369   8.9502402  )
        33           C   tau(  33) = (   5.0000025  16.0365591  13.1079862  )
        34           C   tau(  34) = (   4.9999995  14.3359226   1.0910596  )
        35           C   tau(  35) = (   4.9999982  15.3368932   5.2148802  )
        36           C   tau(  36) = (   5.0000005  16.3745711   9.3376511  )
        37           C   tau(  37) = (   5.0000028  17.4093998  13.5074861  )
        38           C   tau(  38) = (   5.0000006  17.0604428   1.8888594  )
        39           C   tau(  39) = (   4.9999989  18.0502422   6.0157555  )
        40           C   tau(  40) = (   5.0000008  18.4364549   2.3047080  )
        41           C   tau(  41) = (   5.0000014  15.3543883   0.1053110  )
        42           C   tau(  42) = (   4.9999989  16.3658761   4.2413594  )
        43           C   tau(  43) = (   4.9999993  17.3521327   8.3594781  )
        44           C   tau(  44) = (   5.0000027  18.3990958  12.4976300  )
        45           C   tau(  45) = (   5.0000022  16.7308535   0.5064352  )
        46           C   tau(  46) = (   4.9999990  17.7473201   4.6475521  )
        47           C   tau(  47) = (   5.0000006  19.4470719   1.2984271  )
        48           C   tau(  48) = (   5.0000002  18.7505760   3.6590904  )
        49           H   tau(  49) = (   5.0000022  10.0754469   8.4369769  )
        50           H   tau(  50) = (   4.9999983  11.1338412  12.5999741  )
        51           H   tau(  51) = (   4.9999993  10.2011656   3.7142422  )
        52           H   tau(  52) = (   5.0000007   9.5070505   6.0698884  )
        53           H   tau(  53) = (   4.9999995  10.5478786  10.2723306  )
        54           H   tau(  54) = (   4.9999978  11.5924260  14.4166191  )
        55           H   tau(  55) = (   4.9999976  10.9044215   1.3485776  )
        56           H   tau(  56) = (   5.0000029  18.8665200  10.4402146  )
        57           H   tau(  57) = (   5.0000002  19.9248910  14.6032264  )
        58           H   tau(  58) = (   4.9999990  19.0958993   6.3314827  )
        59           H   tau(  59) = (   4.9999990  18.4078784   8.6235497  )
        60           H   tau(  60) = (   5.0000037  19.4523777  12.7678882  )
        61           H   tau(  61) = (   4.9999994  20.4932332   1.6103330  )
        62           H   tau(  62) = (   5.0000002  19.7990853   3.9659100  )

     number of k points=    26  Marzari-Vanderbilt smearing, width (Ry)=  0.0100
                       cart. coord. in units 2pi/alat
        k(    1) = (   0.0000000   0.0000000   0.0000000), wk =   0.0400000
        k(    2) = (   0.0000000   0.0000000   0.0013021), wk =   0.0800000
        k(    3) = (   0.0000000   0.0000000   0.0026042), wk =   0.0800000
        k(    4) = (   0.0000000   0.0000000   0.0039062), wk =   0.0800000
        k(    5) = (   0.0000000   0.0000000   0.0052083), wk =   0.0800000
        k(    6) = (   0.0000000   0.0000000   0.0065104), wk =   0.0800000
        k(    7) = (   0.0000000   0.0000000   0.0078125), wk =   0.0800000
        k(    8) = (   0.0000000   0.0000000   0.0091146), wk =   0.0800000
        k(    9) = (   0.0000000   0.0000000   0.0104167), wk =   0.0800000
        k(   10) = (   0.0000000   0.0000000   0.0117187), wk =   0.0800000
        k(   11) = (   0.0000000   0.0000000   0.0130208), wk =   0.0800000
        k(   12) = (   0.0000000   0.0000000   0.0143229), wk =   0.0800000
        k(   13) = (   0.0000000   0.0000000   0.0156250), wk =   0.0800000
        k(   14) = (   0.0000000   0.0000000   0.0169271), wk =   0.0800000
        k(   15) = (   0.0000000   0.0000000   0.0182292), wk =   0.0800000
        k(   16) = (   0.0000000   0.0000000   0.0195312), wk =   0.0800000
        k(   17) = (   0.0000000   0.0000000   0.0208333), wk =   0.0800000
        k(   18) = (   0.0000000   0.0000000   0.0221354), wk =   0.0800000
        k(   19) = (   0.0000000   0.0000000   0.0234375), wk =   0.0800000
        k(   20) = (   0.0000000   0.0000000   0.0247396), wk =   0.0800000
        k(   21) = (   0.0000000   0.0000000   0.0260417), wk =   0.0800000
        k(   22) = (   0.0000000   0.0000000   0.0273437), wk =   0.0800000
        k(   23) = (   0.0000000   0.0000000   0.0286458), wk =   0.0800000
        k(   24) = (   0.0000000   0.0000000   0.0299479), wk =   0.0800000
        k(   25) = (   0.0000000   0.0000000   0.0312500), wk =   0.0800000
        k(   26) = (   0.0000000   0.0000000  -0.0325521), wk =   0.0400000

     Dense  grid:  5521939 G-vectors     FFT dimensions: ( 135, 400, 216)

     Smooth grid:  1062617 G-vectors     FFT dimensions: (  80, 240, 120)

     Estimated max dynamical RAM per process >       1.14 GB

     Estimated total dynamical RAM >      18.29 GB

     The potential is recalculated from file :
     /home/zfwang/scratch/GNRDATASET/AGNR/C_3Z_2A_W7/C_3Z_2A_W7.save/charge-density.dat


     negative rho (up, down):  3.695E-04 0.000E+00
     Starting wfcs are  206 randomized atomic wfcs +  294 random wfcs

     Band Structure Calculation
     Davidson diagonalization with overlap

     ethr =  4.85E-09,  avg # of iterations = 60.2

     total cpu time spent up to now is    10131.8 secs

     End of band structure calculation

          k = 0.0000 0.0000 0.0000 (132743 PWs)   bands (ev):

   -21.8949 -21.4505 -21.4174 -20.9795 -20.5628 -20.4826 -20.1068 -20.0167
   -19.6135 -19.4516 -19.2191 -18.9962 -18.6742 -18.1688 -17.9840 -17.9064
   -17.8864 -17.6584 -17.4316 -17.2149 -17.0180 -16.8945 -16.3817 -15.9327
   -15.3609 -15.3113 -14.9728 -14.9097 -14.7982 -14.4863 -14.3535 -14.1930
   -14.0978 -13.8646 -13.7536 -12.8060 -12.6944 -12.5474 -12.4742 -12.3598
   -12.3150 -12.1776 -11.4066 -11.2661 -11.1019 -11.0495 -10.9985 -10.8939
   -10.8136 -10.7720 -10.4011 -10.2829 -10.1423 -10.0732  -9.9564  -9.9469
    -9.6231  -9.5840  -9.4298  -9.3982  -9.3849  -9.3696  -9.1364  -9.0930
    -8.9341  -8.9311  -8.8630  -8.8433  -8.5128  -8.4439  -8.3982  -8.3891
    -8.3493  -8.3215  -8.2778  -8.0816  -8.0609  -7.8427  -7.7797  -7.7508
    -7.6527  -7.4670  -7.4139  -7.1978  -7.1731  -6.9573  -6.8829  -6.8645
    -6.6979  -6.3826  -6.3028  -6.1840  -5.9044  -5.8206  -5.5534  -5.4644
    -5.4275  -5.1929  -4.8442  -4.7592  -4.5904  -3.8041  -3.3306  -2.2557
    -1.7328  -1.0851  -0.9270  -0.8604  -0.4698  -0.2457  -0.1143  -0.0908
    -0.0497   0.0524   0.3346   0.3916   0.7227   0.8998   0.9116   0.9706
     0.9812   0.9938   1.1445   1.2327   1.2784   1.3433   1.3573   1.5434
     1.5455   1.5788   1.5831   1.7978   1.8061   1.8112   1.8869   1.9313
     1.9864   2.0227   2.0996   2.1866   2.2553   2.2851   2.3221   2.3871
     2.3961   2.4070   2.4453   2.4489   2.5675   2.5852   2.5881   2.6258
     2.6596   2.6754   2.6899   2.7656   2.7958   2.8088   2.8790   2.9472
     2.9546   2.9552   2.9757   3.0658   3.0670   3.1548   3.1597   3.1679
     3.1812   3.2211   3.2294   3.2327   3.2960   3.2964   3.3480   3.3723
     3.4040   3.4218   3.4411   3.4546   3.4753   3.5221   3.5579   3.7164
     3.7288   3.7642   3.7852   3.8448   3.8461   3.8823   3.9000   3.9198
     3.9293   3.9537   4.0161   4.0217   4.0572   4.1385   4.1391   4.1559
     4.1616   4.1644   4.1954   4.2057   4.3219   4.3224   4.3477   4.3578
     4.4879   4.5105   4.5272   4.5371   4.5421   4.5810   4.6107   4.6595
     4.6657   4.6691   4.7683   4.7763   4.8255   4.8374   4.8431   4.8557
     4.8675   4.8772   4.9438   4.9541   4.9803   4.9921   5.0473   5.0978
     5.1044   5.1162   5.1167   5.1509   5.1781   5.1798   5.2468   5.2489
     5.2586   5.2682   5.2878   5.3082   5.3209   5.3625   5.3864   5.4189
     5.4737   5.4895   5.6392   5.6606   5.7096   5.7456   5.7494   5.7524
     5.7560   5.8007   5.8520   5.8676   5.8717   5.8829   5.8887   5.8956
     5.9012   5.9226   5.9292   5.9882   5.9978   6.0082   6.0290   6.0728
     6.0951   6.1853   6.2070   6.2218   6.2534   6.2588   6.2737   6.2827
     6.3003   6.3762   6.4223   6.4571   6.4831   6.5051   6.5112   6.5650
     6.5838   6.5920   6.5924   6.6277   6.6302   6.6517   6.6879   6.7023
     6.7063   6.7231   6.7366   6.7808   6.8058   6.8485   6.8628   6.8715
     6.9065   6.9110   6.9217   6.9260   6.9525   6.9626   6.9788   6.9830
     6.9937   7.0141   7.0626   7.0836   7.0981   7.1010   7.1098   7.1277
     7.1306   7.1746   7.1981   7.2038   7.2235   7.2443   7.2532   7.2546
     7.3012   7.3246   7.3286   7.3309   7.3737   7.3988   7.4068   7.4424
     7.4492   7.4635   7.4691   7.5181   7.5371   7.5496   7.5737   7.6013
     7.6253   7.6548   7.6881   7.7410   7.7489   7.7614   7.8005   7.8182
     7.8420   7.8441   7.8463   7.8473   7.8693   7.8882   7.9146   7.9284
     7.9300   7.9482   7.9760   7.9827   8.0127   8.0562   8.0709   8.0728
     8.0855   8.1000   8.1064   8.1696   8.1793   8.1890   8.1934   8.2194
     8.2328   8.2468   8.2676   8.3170   8.3230   8.3699   8.3699   8.3724
     8.3945   8.4025   8.4153   8.4454   8.4576   8.4853   8.4963   8.4987
     8.5231   8.5344   8.5749   8.5859   8.6204   8.6434   8.6609   8.6668
     8.6961   8.7382   8.8114   8.8386   8.8468   8.8535   8.8705   8.8824
     8.8854   8.9163   8.9173   8.9265   8.9445   8.9461   8.9516   8.9566
     8.9629   8.9819   8.9882   9.0025   9.0178   9.0457   9.0602   9.0603
     9.0674   9.1217   9.1671   9.1924   9.1963   9.2154   9.2178   9.2272
     9.2341   9.2630   9.2756   9.2910   9.3320   9.3705   9.3769   9.3837
     9.4159   9.4474   9.4559   9.4711   9.4941   9.4957   9.5240   9.5300
     9.5537   9.6028   9.6696   9.6724   9.6839   9.6947   9.7545   9.7891
     9.7976   9.8042   9.8078   9.8179   9.8253   9.8806   9.8931   9.8998
     9.9201   9.9252   9.9554   9.9741   9.9956  10.0066  10.0117  10.0989
    10.1017  10.1372  10.1458  10.1517  10.1691  10.2178  10.2494  10.2546
    10.2559  10.2573  10.2829  10.3141  10.3153  10.3296  10.3552  10.3709
    10.4065  10.4150  10.4197  10.4777  10.4865  10.5030  10.5295  10.5459
    10.5462  10.5490  10.5538  10.5656

          k = 0.0000 0.0000 0.0013 (132747 PWs)   bands (ev):

   -21.8947 -21.4575 -21.4101 -20.9794 -20.5655 -20.4798 -20.1173 -20.0058
   -19.6140 -19.4531 -19.2177 -18.9963 -18.6729 -18.1713 -17.9831 -17.9420
   -17.8500 -17.6577 -17.4324 -17.2178 -17.0148 -16.8947 -16.3813 -15.9334
   -15.3615 -15.3098 -14.9990 -14.8834 -14.7972 -14.4879 -14.3543 -14.2047
   -14.0892 -13.8642 -13.7491 -12.8054 -12.6953 -12.5519 -12.4704 -12.3600
   -12.3190 -12.1717 -11.4128 -11.2737 -11.0989 -11.0472 -10.9988 -10.8872
   -10.8373 -10.7467 -10.4016 -10.2860 -10.1426 -10.0693  -9.9562  -9.9454
    -9.6326  -9.5749  -9.4395  -9.3887  -9.3881  -9.3658  -9.1404  -9.0898
    -8.9367  -8.9309  -8.8811  -8.8238  -8.5138  -8.4472  -8.4107  -8.3831
    -8.3457  -8.3252  -8.2674  -8.0886  -8.0543  -7.8609  -7.7613  -7.7508
    -7.6543  -7.4671  -7.4128  -7.1964  -7.1752  -6.9559  -6.9009  -6.8469
    -6.6982  -6.3806  -6.3034  -6.1843  -5.9066  -5.8195  -5.5657  -5.4695
    -5.4106  -5.1918  -4.8490  -4.7575  -4.5880  -3.8055  -3.3294  -2.2569
    -1.7318  -1.0850  -0.9318  -0.8549  -0.4694  -0.2484  -0.1520  -0.0694
    -0.0388   0.0619   0.3349   0.3918   0.7229   0.8865   0.9205   0.9619
     0.9829   1.0063   1.1388   1.2320   1.2822   1.3288   1.3730   1.5430
     1.5462   1.5583   1.6049   1.7831   1.8073   1.8140   1.8861   1.9366
     1.9937   2.0204   2.1010   2.1862   2.2560   2.2851   2.3223   2.3755
     2.3961   2.4044   2.4489   2.4562   2.5493   2.5883   2.5983   2.6227
     2.6568   2.6872   2.6932   2.7565   2.7903   2.8248   2.8788   2.9308
     2.9359   2.9798   2.9887   3.0424   3.0906   3.1222   3.1226   3.1964
     3.2056   3.2246   3.2266   3.2363   3.2916   3.2920   3.3605   3.3610
     3.4043   3.4266   3.4412   3.4468   3.4951   3.5233   3.5641   3.6814
     3.7368   3.7616   3.8086   3.8246   3.8602   3.8727   3.9081   3.9149
     3.9348   3.9587   4.0073   4.0227   4.0673   4.1263   4.1276   4.1562
     4.1646   4.1751   4.1763   4.2367   4.3189   4.3197   4.3241   4.3889
     4.4821   4.5034   4.5219   4.5422   4.5436   4.5826   4.6069   4.6429
     4.6703   4.6947   4.7469   4.7924   4.8000   4.8060   4.8535   4.8641
     4.8921   4.8943   4.9097   4.9735   4.9885   5.0051   5.0366   5.0800
     5.0871   5.1290   5.1328   5.1477   5.1785   5.1949   5.2195   5.2349
     5.2650   5.2687   5.3083   5.3171   5.3256   5.3639   5.3915   5.4211
     5.4751   5.4898   5.6396   5.6532   5.6967   5.7091   5.7273   5.7860
     5.7946   5.8032   5.8296   5.8445   5.8652   5.8764   5.8930   5.9036
     5.9076   5.9225   5.9492   5.9815   6.0051   6.0072   6.0484   6.0710
     6.0911   6.1677   6.2059   6.2262   6.2420   6.2656   6.2749   6.2961
     6.3079   6.3749   6.4189   6.4518   6.4807   6.4866   6.5188   6.5508
     6.5792   6.5907   6.6032   6.6246   6.6534   6.6554   6.6894   6.6964
     6.6984   6.7341   6.7349   6.7838   6.8062   6.8367   6.8586   6.8638
     6.8961   6.9070   6.9124   6.9315   6.9441   6.9695   6.9767   7.0050
     7.0052   7.0125   7.0552   7.0818   7.0878   7.1067   7.1078   7.1437
     7.1478   7.1609   7.1854   7.2242   7.2291   7.2412   7.2441   7.2505
     7.3028   7.3178   7.3216   7.3497   7.3818   7.4033   7.4062   7.4193
     7.4409   7.4793   7.4906   7.5165   7.5286   7.5655   7.5668   7.6099
     7.6248   7.6495   7.6868   7.7281   7.7432   7.7579   7.7850   7.8102
     7.8189   7.8346   7.8444   7.8643   7.8754   7.8970   7.9260   7.9313
     7.9419   7.9421   7.9824   7.9987   8.0156   8.0433   8.0483   8.0569
     8.0672   8.1111   8.1364   8.1541   8.1637   8.1982   8.2054   8.2238
     8.2338   8.2707   8.2715   8.3059   8.3174   8.3427   8.3722   8.3899
     8.3907   8.4156   8.4168   8.4573   8.4655   8.4689   8.4854   8.5141
     8.5341   8.5374   8.5765   8.5881   8.6229   8.6467   8.6577   8.6675
     8.7087   8.7264   8.7877   8.8185   8.8294   8.8365   8.8672   8.8736
     8.8864   8.8919   8.9209   8.9294   8.9312   8.9458   8.9649   8.9699
     8.9783   8.9905   9.0097   9.0105   9.0192   9.0371   9.0653   9.0740
     9.1007   9.1213   9.1516   9.1813   9.1898   9.2081   9.2122   9.2224
     9.2441   9.2597   9.2920   9.3153   9.3206   9.3553   9.3818   9.3944
     9.4225   9.4459   9.4594   9.4683   9.4856   9.5004   9.5249   9.5483
     9.5568   9.6023   9.6581   9.6718   9.6879   9.6962   9.7267   9.7712
     9.7787   9.8100   9.8186   9.8373   9.8554   9.8598   9.8919   9.8960
     9.9140   9.9421   9.9595   9.9819   9.9958  10.0055  10.0139  10.0875
    10.0942  10.1334  10.1401  10.1500  10.1672  10.1995  10.2221  10.2436
    10.2781  10.2848  10.2973  10.3120  10.3160  10.3280  10.3600  10.3718
    10.3894  10.4216  10.4375  10.4764  10.4850  10.5025  10.5237  10.5328
    10.5366  10.5592  10.5647  10.5801

          k = 0.0000 0.0000 0.0026 (132739 PWs)   bands (ev):

   -21.8943 -21.4711 -21.3956 -20.9790 -20.5727 -20.4721 -20.1406 -19.9811
   -19.6154 -19.4572 -19.2137 -18.9968 -18.6688 -18.1787 -17.9941 -17.9708
   -17.8059 -17.6553 -17.4349 -17.2256 -17.0060 -16.8953 -16.3802 -15.9352
   -15.3634 -15.3053 -15.0419 -14.8425 -14.7921 -14.4926 -14.3569 -14.2307
   -14.0720 -13.8621 -13.7363 -12.8037 -12.6981 -12.5628 -12.4612 -12.3628
   -12.3265 -12.1563 -11.4307 -11.2925 -11.0972 -11.0433 -10.9920 -10.8715
   -10.8701 -10.7071 -10.4029 -10.2945 -10.1428 -10.0591  -9.9556  -9.9407
    -9.6510  -9.5577  -9.4568  -9.3962  -9.3698  -9.3587  -9.1501  -9.0825
    -8.9451  -8.9304  -8.9033  -8.7966  -8.5168  -8.4558  -8.4280  -8.3897
    -8.3361  -8.3216  -8.2469  -8.1006  -8.0429  -7.8939  -7.7509  -7.7274
    -7.6591  -7.4675  -7.4100  -7.1919  -7.1813  -6.9520  -6.9260  -6.8228
    -6.6989  -6.3749  -6.3049  -6.1852  -5.9128  -5.8167  -5.5955  -5.4742
    -5.3779  -5.1885  -4.8623  -4.7534  -4.5809  -3.8095  -3.3259  -2.2607
    -1.7290  -1.0846  -0.9432  -0.8416  -0.4683  -0.2597  -0.1929  -0.0825
     0.0076   0.0857   0.3356   0.3925   0.7235   0.8673   0.9207   0.9557
     0.9904   1.0268   1.1234   1.2298   1.2918   1.3110   1.3947   1.5318
     1.5479   1.5484   1.6293   1.7586   1.7968   1.8203   1.8849   1.9494
     2.0132   2.0142   2.1047   2.1850   2.2573   2.2855   2.3231   2.3600
     2.3761   2.4085   2.4489   2.4760   2.5306   2.5846   2.5889   2.6454
     2.6508   2.7008   2.7081   2.7380   2.7900   2.8476   2.8775   2.9085
     2.9201   3.0052   3.0103   3.0194   3.0780   3.0780   3.1157   3.1922
     3.2137   3.2317   3.2414   3.2690   3.2773   3.2811   3.3391   3.3871
     3.4066   3.4208   3.4426   3.4620   3.5214   3.5277   3.5839   3.6393
     3.7023   3.7900   3.7984   3.8317   3.8543   3.8849   3.8969   3.9196
     3.9575   3.9616   3.9925   4.0254   4.0859   4.1068   4.1083   4.1341
     4.1598   4.1923   4.1955   4.2703   4.2959   4.3127   4.3276   4.4211
     4.4703   4.4853   4.5123   4.5422   4.5550   4.5852   4.6027   4.6252
     4.6887   4.7205   4.7225   4.7615   4.7655   4.8186   4.8474   4.8643
     4.8829   4.9207   4.9383   4.9733   5.0065   5.0100   5.0398   5.0645
     5.0677   5.1135   5.1485   5.1533   5.1802   5.1958   5.2190   5.2333
     5.2431   5.2763   5.3092   5.3430   5.3614   5.3697   5.3982   5.4301
     5.4794   5.4910   5.6295   5.6407   5.6542   5.6851   5.7296   5.7789
     5.8044   5.8065   5.8325   5.8336   5.8428   5.8581   5.8949   5.9091
     5.9228   5.9322   5.9613   5.9979   5.9995   6.0263   6.0613   6.0856
     6.0869   6.1472   6.2026   6.2184   6.2308   6.2646   6.2818   6.3183
     6.3212   6.3763   6.4111   6.4276   6.4648   6.4961   6.5133   6.5314
     6.5683   6.5855   6.6174   6.6325   6.6581   6.6720   6.6837   6.6913
     6.7038   6.7452   6.7494   6.7544   6.8153   6.8345   6.8436   6.8585
     6.8839   6.8865   6.9051   6.9102   6.9325   6.9885   6.9918   6.9991
     7.0230   7.0398   7.0476   7.0647   7.0989   7.0994   7.1297   7.1374
     7.1554   7.1702   7.1845   7.2215   7.2270   7.2353   7.2583   7.2622
     7.3016   7.3087   7.3216   7.3564   7.3955   7.4025   7.4112   7.4118
     7.4408   7.4882   7.5073   7.5175   7.5441   7.5550   7.5921   7.5992
     7.6358   7.6429   7.6868   7.7068   7.7099   7.7448   7.7571   7.7915
     7.8094   7.8212   7.8349   7.8635   7.8888   7.9090   7.9291   7.9346
     7.9513   7.9719   7.9731   8.0006   8.0169   8.0243   8.0550   8.0558
     8.0575   8.1052   8.1283   8.1350   8.1638   8.2096   8.2310   8.2386
     8.2458   8.2520   8.2810   8.3160   8.3270   8.3308   8.3709   8.3865
     8.4094   8.4124   8.4175   8.4578   8.4608   8.4826   8.5084   8.5158
     8.5457   8.5593   8.5679   8.6006   8.6314   8.6514   8.6678   8.6723
     8.6971   8.7242   8.7300   8.7952   8.7989   8.8070   8.8291   8.8429
     8.8876   8.8885   8.8903   8.9121   8.9390   8.9442   8.9809   8.9935
     8.9972   9.0005   9.0050   9.0388   9.0532   9.0822   9.0908   9.0936
     9.1226   9.1297   9.1340   9.1577   9.1604   9.1967   9.2132   9.2206
     9.2582   9.2857   9.2876   9.2987   9.3482   9.3591   9.3893   9.4073
     9.4218   9.4432   9.4562   9.4810   9.4854   9.5106   9.5305   9.5607
     9.5805   9.6016   9.6336   9.6690   9.6810   9.7006   9.7072   9.7305
     9.7654   9.8080   9.8135   9.8413   9.8735   9.8809   9.8920   9.8968
     9.9068   9.9533   9.9716   9.9967  10.0000  10.0051  10.0235  10.0631
    10.0754  10.1024  10.1198  10.1570  10.1694  10.1806  10.2024  10.2463
    10.2703  10.2883  10.3058  10.3150  10.3274  10.3489  10.3721  10.3764
    10.3801  10.4357  10.4551  10.4688  10.4831  10.5036  10.5051  10.5174
    10.5457  10.5689  10.5759  10.5982

          k = 0.0000 0.0000 0.0039 (132763 PWs)   bands (ev):

   -21.8935 -21.4860 -21.3790 -20.9784 -20.5826 -20.4614 -20.1681 -19.9514
   -19.6180 -19.4636 -19.2076 -18.9973 -18.6622 -18.1903 -18.0355 -17.9666
   -17.7634 -17.6503 -17.4393 -17.2367 -16.9929 -16.8964 -16.3785 -15.9382
   -15.3668 -15.2984 -15.0849 -14.8162 -14.7693 -14.5003 -14.3631 -14.2605
   -14.0560 -13.8568 -13.7164 -12.8007 -12.7033 -12.5767 -12.4498 -12.3734
   -12.3286 -12.1352 -11.4589 -11.3163 -11.1033 -11.0455 -10.9696 -10.9013
   -10.8471 -10.6658 -10.4051 -10.3066 -10.1420 -10.0451  -9.9547  -9.9328
    -9.6715  -9.5392  -9.4751  -9.4045  -9.3511  -9.3497  -9.1625  -9.0741
    -8.9601  -8.9295  -8.9216  -8.7692  -8.5221  -8.4677  -8.4446  -8.4091
    -8.3228  -8.3072  -8.2254  -8.1122  -8.0311  -7.9296  -7.7510  -7.6902
    -7.6666  -7.4683  -7.4059  -7.1908  -7.1845  -6.9519  -6.9461  -6.7985
    -6.6999  -6.3655  -6.3075  -6.1867  -5.9222  -5.8129  -5.6330  -5.4763
    -5.3414  -5.1829  -4.8812  -4.7487  -4.5701  -3.8160  -3.3201  -2.2669
    -1.7243  -1.0841  -0.9570  -0.8248  -0.4666  -0.2887  -0.2175  -0.1030
     0.0568   0.1186   0.3367   0.3937   0.7246   0.8474   0.9068   0.9585
     1.0042   1.0488   1.1015   1.2249   1.2960   1.3043   1.4171   1.5102
     1.5493   1.5521   1.6540   1.7294   1.7823   1.8245   1.8846   1.9648
     2.0069   2.0407   2.1097   2.1829   2.2564   2.2879   2.3243   2.3459
     2.3545   2.4004   2.4491   2.4970   2.5193   2.5665   2.5901   2.6443
     2.6738   2.7100   2.7116   2.7371   2.7937   2.8652   2.8704   2.8914
     2.9127   2.9951   3.0276   3.0314   3.0362   3.0387   3.1401   3.1701
     3.2144   3.2340   3.2528   3.2643   3.2721   3.3091   3.3223   3.4018
     3.4117   3.4257   3.4516   3.4820   3.5383   3.5440   3.5963   3.6164
     3.6680   3.7695   3.8022   3.8265   3.8580   3.8862   3.9216   3.9232
     3.9564   3.9697   3.9961   4.0260   4.0820   4.0882   4.0976   4.1220
     4.1635   4.2051   4.2158   4.2872   4.2889   4.3125   4.3370   4.4352
     4.4539   4.4655   4.5176   4.5423   4.5585   4.5874   4.6014   4.6198
     4.6812   4.6976   4.7199   4.7540   4.7554   4.8127   4.8321   4.8584
     4.8998   4.9468   4.9531   4.9738   5.0052   5.0195   5.0511   5.0535
     5.0789   5.0865   5.1368   5.1556   5.1757   5.2113   5.2209   5.2221
     5.2730   5.2771   5.3023   5.3710   5.3786   5.4006   5.4081   5.4447
     5.4862   5.4943   5.5952   5.6102   5.6416   5.6662   5.7387   5.7558
     5.7615   5.7955   5.7957   5.8369   5.8533   5.8820   5.8953   5.9107
     5.9272   5.9550   5.9589   5.9969   6.0287   6.0342   6.0688   6.0890
     6.1285   6.1369   6.1899   6.1998   6.2334   6.2588   6.2879   6.3032
     6.3340   6.3832   6.3988   6.4211   6.4571   6.4962   6.5090   6.5237
     6.5630   6.5770   6.6148   6.6469   6.6589   6.6648   6.6747   6.6983
     6.7065   6.7098   6.7578   6.7809   6.8099   6.8229   6.8524   6.8617
     6.8679   6.8736   6.8846   6.9027   6.9289   6.9678   6.9974   6.9993
     7.0291   7.0577   7.0679   7.0724   7.0924   7.1144   7.1176   7.1437
     7.1456   7.1603   7.2182   7.2202   7.2280   7.2383   7.2730   7.2800
     7.3023   7.3072   7.3277   7.3584   7.3834   7.4106   7.4178   7.4203
     7.4574   7.4862   7.5183   7.5248   7.5462   7.5727   7.5799   7.6111
     7.6319   7.6541   7.6777   7.6817   7.6906   7.7127   7.7337   7.7920
     7.7939   7.8027   7.8246   7.8631   7.8753   7.9068   7.9284   7.9345
     7.9383   7.9582   7.9718   8.0143   8.0352   8.0407   8.0490   8.0674
     8.0738   8.0778   8.1283   8.1458   8.1586   8.2021   8.2192   8.2266
     8.2520   8.2915   8.2945   8.3116   8.3417   8.3544   8.3695   8.3897
     8.3992   8.4180   8.4360   8.4595   8.4648   8.4840   8.5228   8.5396
     8.5434   8.5689   8.5961   8.6088   8.6453   8.6495   8.6545   8.6768
     8.6799   8.6920   8.7407   8.7443   8.7713   8.7779   8.7891   8.8344
     8.8657   8.8730   8.8881   8.8888   8.9214   8.9462   8.9908   8.9981
     9.0017   9.0233   9.0387   9.0510   9.0869   9.0991   9.1075   9.1109
     9.1259   9.1295   9.1417   9.1631   9.1666   9.1972   9.2233   9.2248
     9.2569   9.2709   9.2912   9.3255   9.3479   9.3629   9.4090   9.4223
     9.4288   9.4465   9.4531   9.4861   9.5040   9.5254   9.5432   9.5606
     9.5992   9.6129   9.6133   9.6575   9.6611   9.6986   9.7054   9.7085
     9.7585   9.7889   9.7929   9.8530   9.8546   9.8845   9.8899   9.9024
     9.9339   9.9524   9.9941   9.9966  10.0008  10.0200  10.0316  10.0395
    10.0541  10.0821  10.0928  10.1491  10.1761  10.1762  10.2015  10.2492
    10.2499  10.2511  10.3094  10.3272  10.3496  10.3514  10.3723  10.3950
    10.3982  10.4439  10.4567  10.4625  10.4842  10.4941  10.4992  10.5193
    10.5603  10.5657  10.5793  10.5911

          k = 0.0000 0.0000 0.0052 (132771 PWs)   bands (ev):

   -21.8924 -21.5012 -21.3617 -20.9776 -20.5940 -20.4491 -20.1967 -19.9195
   -19.6217 -19.4714 -19.2000 -18.9976 -18.6532 -18.2056 -18.0789 -17.9577
   -17.7261 -17.6397 -17.4456 -17.2491 -16.9772 -16.8979 -16.3762 -15.9420
   -15.3726 -15.2898 -15.1246 -14.8095 -14.7264 -14.5105 -14.3759 -14.2872
   -14.0447 -13.8467 -13.6909 -12.7967 -12.7114 -12.5909 -12.4387 -12.3898
   -12.3238 -12.1113 -11.4947 -11.3428 -11.1157 -11.0530 -10.9514 -10.9100
   -10.8209 -10.6245 -10.4089 -10.3193 -10.1399 -10.0294  -9.9533  -9.9218
    -9.6927  -9.5210  -9.4936  -9.4131  -9.3434  -9.3288  -9.1761  -9.0660
    -8.9797  -8.9369  -8.9282  -8.7426  -8.5302  -8.4812  -8.4598  -8.4323
    -8.3072  -8.2892  -8.2073  -8.1198  -8.0196  -7.9657  -7.7513  -7.6760
    -7.6521  -7.4693  -7.4013  -7.2029  -7.1740  -6.9781  -6.9393  -6.7745
    -6.7005  -6.3529  -6.3111  -6.1889  -5.9342  -5.8091  -5.6734  -5.4773
    -5.3045  -5.1747  -4.9039  -4.7444  -4.5565  -3.8248  -3.3124  -2.2753
    -1.7179  -1.0834  -0.9713  -0.8067  -0.4644  -0.3315  -0.2284  -0.1239
     0.1022   0.1598   0.3384   0.3953   0.7260   0.8274   0.8887   0.9624
     1.0225   1.0715   1.0752   1.2164   1.2855   1.3172   1.4394   1.4884
     1.5527   1.5572   1.6787   1.6976   1.7658   1.8277   1.8852   1.9733
     2.0071   2.0727   2.1149   2.1801   2.2498   2.2938   2.3251   2.3334
     2.3349   2.3809   2.4504   2.5063   2.5172   2.5609   2.5919   2.6383
     2.6776   2.7187   2.7196   2.7529   2.8003   2.8529   2.8686   2.8807
     2.9244   2.9716   2.9907   2.9926   3.0585   3.0612   3.1465   3.1639
     3.2052   3.2299   3.2372   3.2484   3.2990   3.2990   3.3591   3.4050
     3.4072   3.4551   3.4585   3.4992   3.5496   3.5613   3.5696   3.6283
     3.6618   3.7460   3.7779   3.8297   3.8399   3.9089   3.9356   3.9438
     3.9457   3.9685   4.0183   4.0254   4.0516   4.0693   4.0904   4.1380
     4.1683   4.2141   4.2330   4.2821   4.2942   4.3228   4.3599   4.4259
     4.4262   4.4569   4.5395   4.5479   4.5492   4.5910   4.6024   4.6257
     4.6450   4.6735   4.6867   4.7647   4.7762   4.7889   4.8221   4.8696
     4.9249   4.9269   4.9668   4.9742   5.0185   5.0269   5.0392   5.0640
     5.0675   5.0995   5.1255   5.1583   5.1712   5.1965   5.2386   5.2426
     5.2737   5.2974   5.3166   5.3831   5.3987   5.4050   5.4573   5.4580
     5.4891   5.5023   5.5608   5.5717   5.6365   5.6494   5.7180   5.7360
     5.7491   5.7543   5.7869   5.8171   5.8425   5.8723   5.9098   5.9310
     5.9437   5.9575   5.9743   6.0073   6.0190   6.0655   6.0914   6.1024
     6.1337   6.1655   6.1757   6.1952   6.2194   6.2477   6.2759   6.2986
     6.3458   6.3646   6.3840   6.4290   6.4486   6.5053   6.5122   6.5221
     6.5652   6.5692   6.6087   6.6296   6.6468   6.6681   6.6743   6.6804
     6.7021   6.7105   6.7467   6.7855   6.8140   6.8251   6.8454   6.8459
     6.8665   6.8738   6.8874   6.9048   6.9361   6.9539   6.9837   6.9894
     7.0268   7.0570   7.0753   7.0946   7.0974   7.1065   7.1217   7.1396
     7.1415   7.1773   7.2141   7.2262   7.2344   7.2590   7.2705   7.2993
     7.3248   7.3280   7.3379   7.3700   7.3717   7.4029   7.4196   7.4357
     7.4720   7.4775   7.5191   7.5379   7.5399   7.5781   7.5912   7.6146
     7.6206   7.6352   7.6688   7.6808   7.6931   7.7063   7.7119   7.7666
     7.7912   7.7920   7.8207   7.8318   7.8626   7.8739   7.8918   7.9377
     7.9490   7.9672   7.9834   8.0009   8.0209   8.0345   8.0573   8.0752
     8.1030   8.1151   8.1386   8.1398   8.1490   8.1858   8.2092   8.2417
     8.2730   8.2918   8.3076   8.3217   8.3342   8.3706   8.3791   8.3862
     8.4206   8.4286   8.4506   8.4711   8.4729   8.4924   8.5280   8.5296
     8.5467   8.5875   8.5980   8.6018   8.6201   8.6453   8.6633   8.6721
     8.6932   8.6996   8.7066   8.7380   8.7390   8.7601   8.7739   8.8282
     8.8419   8.8631   8.8706   8.8878   8.9042   8.9470   8.9982   9.0009
     9.0076   9.0257   9.0462   9.0626   9.0720   9.0925   9.0999   9.1054
     9.1335   9.1622   9.1759   9.1921   9.1944   9.2139   9.2318   9.2462
     9.2488   9.2872   9.2932   9.3419   9.3495   9.3693   9.3919   9.4248
     9.4473   9.4766   9.4782   9.5041   9.5048   9.5226   9.5607   9.5685
     9.5935   9.6108   9.6239   9.6438   9.6501   9.6873   9.6949   9.7187
     9.7534   9.7776   9.7821   9.8312   9.8557   9.8681   9.8784   9.8994
     9.9394   9.9510   9.9889   9.9910  10.0094  10.0174  10.0370  10.0484
    10.0537  10.0548  10.1097  10.1527  10.1680  10.1731  10.1984  10.2079
    10.2475  10.2567  10.3011  10.3387  10.3411  10.3677  10.3682  10.3984
    10.4080  10.4417  10.4462  10.4584  10.4759  10.4894  10.5198  10.5341
    10.5511  10.5645  10.5678  10.5850

          k = 0.0000 0.0000 0.0065 (132741 PWs)   bands (ev):

   -21.8910 -21.5162 -21.3437 -20.9765 -20.6061 -20.4361 -20.2251 -19.8866
   -19.6269 -19.4799 -19.1919 -18.9974 -18.6421 -18.2243 -18.1212 -17.9475
   -17.6996 -17.6186 -17.4540 -17.2612 -16.9601 -16.8999 -16.3736 -15.9464
   -15.3822 -15.2803 -15.1580 -14.8078 -14.6788 -14.5227 -14.3988 -14.3060
   -14.0389 -13.8319 -13.6607 -12.7917 -12.7231 -12.6040 -12.4341 -12.4019
   -12.3155 -12.0863 -11.5352 -11.3719 -11.1320 -11.0644 -10.9616 -10.8789
   -10.7927 -10.5842 -10.4153 -10.3291 -10.1367 -10.0132  -9.9516  -9.9077
    -9.7139  -9.5118  -9.5037  -9.4221  -9.3361  -9.3074  -9.1902  -9.0595
    -9.0000  -8.9519  -8.9266  -8.7180  -8.5412  -8.4955  -8.4752  -8.4531
    -8.2904  -8.2713  -8.1976  -8.1182  -8.0086  -8.0016  -7.7517  -7.6867
    -7.6138  -7.4707  -7.3970  -7.2166  -7.1605  -7.0047  -6.9323  -6.7508
    -6.7003  -6.3375  -6.3157  -6.1916  -5.9482  -5.8066  -5.7139  -5.4779
    -5.2695  -5.1633  -4.9289  -4.7407  -4.5410  -3.8357  -3.3030  -2.2856
    -1.7099  -1.0826  -0.9851  -0.7884  -0.4620  -0.3783  -0.2352  -0.1433
     0.1425   0.2087   0.3405   0.3974   0.7278   0.8075   0.8697   0.9660
     1.0431   1.0461   1.0948   1.2039   1.2799   1.3292   1.4595   1.4686
     1.5579   1.5637   1.6647   1.7024   1.7498   1.8308   1.8866   1.9668
     2.0225   2.1070   2.1200   2.1767   2.2374   2.3021   2.3096   2.3260
     2.3294   2.3575   2.4520   2.4866   2.5350   2.5698   2.5950   2.6336
     2.6578   2.7291   2.7458   2.7647   2.8065   2.8317   2.8622   2.8709
     2.9344   2.9476   2.9630   2.9672   3.0852   3.0868   3.1236   3.1699
     3.1889   3.2269   3.2303   3.2417   3.2833   3.3258   3.3936   3.4079
     3.4158   3.4622   3.4828   3.5101   3.5102   3.5896   3.5963   3.5970
     3.7044   3.7229   3.7530   3.8009   3.8388   3.9265   3.9309   3.9325
     3.9719   3.9896   4.0024   4.0207   4.0457   4.0582   4.0855   4.1580
     4.1788   4.2210   4.2363   4.2824   4.3098   4.3289   4.3855   4.3976
     4.4119   4.4568   4.5312   4.5400   4.5778   4.5903   4.6010   4.6172
     4.6300   4.6486   4.6618   4.7373   4.7952   4.7974   4.8121   4.8846
     4.9013   4.9569   4.9644   4.9810   5.0011   5.0168   5.0246   5.0918
     5.0930   5.0990   5.1271   5.1477   5.1747   5.1985   5.2637   5.2680
     5.2728   5.2937   5.3615   5.3791   5.4136   5.4273   5.4661   5.4772
     5.5050   5.5073   5.5322   5.5598   5.6098   5.6475   5.6748   5.7117
     5.7222   5.7565   5.7773   5.8016   5.8136   5.8477   5.9074   5.9560
     5.9564   5.9654   5.9999   6.0055   6.0432   6.0761   6.0965   6.1277
     6.1433   6.1579   6.1750   6.1960   6.2220   6.2441   6.2681   6.3008
     6.3425   6.3568   6.3623   6.4265   6.4336   6.4927   6.5320   6.5375
     6.5508   6.5766   6.5890   6.6088   6.6399   6.6681   6.6757   6.6761
     6.6939   6.7183   6.7261   6.7815   6.8009   6.8102   6.8382   6.8514
     6.8548   6.8673   6.9026   6.9195   6.9431   6.9648   6.9697   6.9801
     7.0251   7.0365   7.0767   7.0799   7.1029   7.1052   7.1362   7.1448
     7.1646   7.1864   7.2049   7.2282   7.2514   7.2572   7.2874   7.3204
     7.3452   7.3480   7.3571   7.3770   7.3808   7.3993   7.4250   7.4306
     7.4597   7.4749   7.5241   7.5434   7.5573   7.5673   7.5820   7.6015
     7.6077   7.6556   7.6605   7.6878   7.6912   7.7010   7.7274   7.7450
     7.7623   7.7772   7.7992   7.8185   7.8360   7.8630   7.8821   7.9232
     7.9360   7.9663   7.9699   8.0063   8.0209   8.0359   8.0732   8.0907
     8.1016   8.1141   8.1310   8.1350   8.1834   8.2104   8.2181   8.2534
     8.2822   8.2876   8.3076   8.3221   8.3343   8.3838   8.3927   8.4050
     8.4193   8.4347   8.4487   8.4863   8.4926   8.5004   8.5169   8.5259
     8.5464   8.5589   8.5735   8.6096   8.6224   8.6446   8.6460   8.6721
     8.6992   8.7024   8.7177   8.7273   8.7405   8.7461   8.7942   8.8186
     8.8232   8.8554   8.8611   8.8855   8.9071   8.9403   8.9953   8.9971
     9.0054   9.0159   9.0327   9.0527   9.0728   9.0829   9.0885   9.1222
     9.1462   9.1599   9.1850   9.2047   9.2238   9.2452   9.2550   9.2640
     9.2935   9.3074   9.3217   9.3220   9.3592   9.3662   9.3973   9.4367
     9.4591   9.4977   9.4987   9.5073   9.5163   9.5466   9.5495   9.5784
     9.5853   9.6025   9.6270   9.6397   9.6640   9.6832   9.6940   9.7181
     9.7452   9.7754   9.7893   9.8133   9.8322   9.8524   9.8576   9.9018
     9.9174   9.9448   9.9684   9.9816   9.9841  10.0175  10.0541  10.0640
    10.0653  10.0688  10.1373  10.1553  10.1596  10.1671  10.1689  10.2014
    10.2640  10.2666  10.2910  10.3233  10.3429  10.3532  10.3776  10.3821
    10.3990  10.4226  10.4427  10.4517  10.4818  10.4825  10.5234  10.5373
    10.5462  10.5565  10.5645  10.5944

          k = 0.0000 0.0000 0.0078 (132689 PWs)   bands (ev):

   -21.8894 -21.5310 -21.3254 -20.9751 -20.6186 -20.4233 -20.2526 -19.8530
   -19.6336 -19.4883 -19.1838 -18.9961 -18.6291 -18.2466 -18.1611 -17.9368
   -17.6857 -17.5859 -17.4640 -17.2717 -16.9424 -16.9022 -16.3708 -15.9512
   -15.3974 -15.2714 -15.1817 -14.8074 -14.6317 -14.5360 -14.4305 -14.3172
   -14.0373 -13.8133 -13.6267 -12.7864 -12.7380 -12.6153 -12.4464 -12.3971
   -12.3056 -12.0613 -11.5781 -11.4039 -11.1515 -11.0785 -10.9725 -10.8398
   -10.7623 -10.5457 -10.4262 -10.3318 -10.1327  -9.9973  -9.9494  -9.8913
    -9.7347  -9.5298  -9.4881  -9.4310  -9.3293  -9.2857  -9.2039  -9.0568
    -9.0171  -8.9681  -8.9247  -8.6964  -8.5547  -8.5101  -8.4964  -8.4643
    -8.2731  -8.2570  -8.1960  -8.1049  -8.0369  -7.9980  -7.7524  -7.6982
    -7.5760  -7.4720  -7.3935  -7.2313  -7.1442  -7.0314  -6.9259  -6.7275
    -6.6987  -6.3213  -6.3196  -6.1949  -5.9639  -5.8091  -5.7503  -5.4783
    -5.2379  -5.1480  -4.9551  -4.7375  -4.5244  -3.8484  -3.2922  -2.2977
    -1.7006  -1.0819  -0.9980  -0.7708  -0.4598  -0.4251  -0.2410  -0.1601
     0.1795   0.2626   0.3430   0.3999   0.7298   0.7879   0.8508   0.9695
     1.0147   1.0649   1.1186   1.1884   1.2783   1.3392   1.4453   1.4821
     1.5655   1.5712   1.6318   1.7157   1.7442   1.8339   1.8886   1.9544
     2.0440   2.1245   2.1415   2.1736   2.2212   2.2882   2.3053   2.3139
     2.3321   2.3444   2.4510   2.4680   2.5484   2.5857   2.6001   2.6304
     2.6356   2.7378   2.7583   2.7831   2.8093   2.8099   2.8299   2.8834
     2.9007   2.9304   2.9539   2.9856   3.0991   3.1104   3.1147   3.1341
     3.2057   3.2118   3.2302   3.2482   3.2705   3.3512   3.3997   3.4114
     3.4465   3.4598   3.4815   3.5075   3.5193   3.5612   3.6159   3.6383
     3.6998   3.7278   3.7507   3.7727   3.8279   3.9119   3.9187   3.9539
     3.9819   3.9821   4.0054   4.0172   4.0227   4.0730   4.1036   4.1740
     4.1932   4.2245   4.2253   4.2975   4.3277   4.3291   4.3720   4.4045
     4.4049   4.4693   4.5131   4.5333   4.5560   4.5779   4.6073   4.6138
     4.6251   4.6429   4.6661   4.7071   4.7898   4.7975   4.8114   4.9015
     4.9015   4.9483   4.9624   4.9765   4.9978   4.9991   5.0440   5.0842
     5.1007   5.1225   5.1404   5.1529   5.1631   5.2317   5.2676   5.2895
     5.2920   5.3033   5.3711   5.4057   5.4142   5.4445   5.4574   5.4707
     5.4926   5.5309   5.5570   5.5689   5.5799   5.6334   5.6481   5.6686
     5.7107   5.7501   5.7670   5.7723   5.8044   5.8295   5.9038   5.9518
     5.9542   5.9838   6.0066   6.0347   6.0632   6.0759   6.0982   6.1195
     6.1487   6.1578   6.1742   6.2140   6.2412   6.2612   6.2697   6.2924
     6.3223   6.3480   6.3678   6.4083   6.4274   6.4737   6.5256   6.5299
     6.5415   6.5557   6.6014   6.6282   6.6329   6.6550   6.6631   6.6733
     6.6976   6.7201   6.7300   6.7720   6.7789   6.7999   6.8307   6.8318
     6.8543   6.8720   6.8890   6.9346   6.9421   6.9535   6.9761   6.9945
     7.0162   7.0507   7.0599   7.0718   7.0943   7.1164   7.1376   7.1491
     7.1869   7.2060   7.2099   7.2267   7.2589   7.2642   7.3082   7.3168
     7.3459   7.3669   7.3701   7.3706   7.3935   7.4106   7.4257   7.4506
     7.4548   7.4792   7.5001   7.5413   7.5526   7.5764   7.5918   7.5953
     7.6131   7.6511   7.6637   7.6775   7.6992   7.7097   7.7218   7.7325
     7.7471   7.7563   7.7827   7.7975   7.8452   7.8493   7.8741   7.9035
     7.9043   7.9615   7.9731   8.0194   8.0223   8.0407   8.0447   8.0944
     8.1092   8.1168   8.1372   8.1656   8.1821   8.2313   8.2450   8.2468
     8.2808   8.2954   8.3189   8.3364   8.3527   8.3863   8.4030   8.4048
     8.4102   8.4373   8.4480   8.4515   8.4740   8.4861   8.5283   8.5350
     8.5536   8.5678   8.5753   8.6013   8.6042   8.6327   8.6335   8.6662
     8.6973   8.7046   8.7297   8.7431   8.7701   8.7771   8.7847   8.8198
     8.8231   8.8465   8.8573   8.8839   8.9236   8.9355   8.9767   8.9791
     8.9992   9.0079   9.0188   9.0433   9.0770   9.0887   9.0902   9.0980
     9.1451   9.1884   9.1923   9.1939   9.2314   9.2721   9.2811   9.2915
     9.2964   9.3292   9.3524   9.3544   9.3732   9.3751   9.4146   9.4568
     9.4744   9.4961   9.5073   9.5171   9.5185   9.5287   9.5513   9.5822
     9.6017   9.6118   9.6288   9.6528   9.6690   9.6826   9.7041   9.7164
     9.7286   9.7803   9.7846   9.7971   9.8187   9.8398   9.8467   9.8919
     9.9140   9.9278   9.9356   9.9614   9.9750  10.0230  10.0546  10.0747
    10.0780  10.0906  10.1237  10.1281  10.1451  10.1901  10.1974  10.2251
    10.2689  10.2774  10.2822  10.3108  10.3289  10.3306  10.3455  10.3757
    10.3992  10.4046  10.4235  10.4511  10.4682  10.4860  10.4934  10.5194
    10.5351  10.5482  10.5761  10.5815

          k = 0.0000 0.0000 0.0091 (132677 PWs)   bands (ev):

   -21.8874 -21.5455 -21.3068 -20.9736 -20.6311 -20.4117 -20.2780 -19.8192
   -19.6421 -19.4961 -19.1765 -18.9934 -18.6145 -18.2729 -18.1975 -17.9261
   -17.6795 -17.5495 -17.4732 -17.2796 -16.9255 -16.9044 -16.3682 -15.9559
   -15.4196 -15.2648 -15.1926 -14.8078 -14.5904 -14.5463 -14.4666 -14.3245
   -14.0384 -13.7920 -13.5899 -12.7836 -12.7533 -12.6249 -12.4658 -12.3837
   -12.2951 -12.0373 -11.6212 -11.4390 -11.1748 -11.0925 -10.9788 -10.8034
   -10.7284 -10.5101 -10.4416 -10.3249 -10.1282  -9.9818  -9.9469  -9.8738
    -9.7542  -9.5473  -9.4764  -9.4384  -9.3231  -9.2637  -9.2166  -9.0626
    -9.0260  -8.9861  -8.9224  -8.6794  -8.5696  -8.5247  -8.5217  -8.4665
    -8.2557  -8.2523  -8.1926  -8.0843  -8.0710  -7.9880  -7.7535  -7.7099
    -7.5401  -7.4725  -7.3911  -7.2461  -7.1256  -7.0579  -6.9206  -6.7045
    -6.6953  -6.3280  -6.2995  -6.1989  -5.9811  -5.8273  -5.7714  -5.4788
    -5.2113  -5.1289  -4.9811  -4.7346  -4.5074  -3.8625  -3.2803  -2.3111
    -1.6899  -1.0816  -1.0093  -0.7551  -0.4705  -0.4584  -0.2460  -0.1739
     0.2152   0.3191   0.3461   0.4030   0.7318   0.7690   0.8323   0.9731
     0.9816   1.0871   1.1426   1.1716   1.2796   1.3468   1.4252   1.4996
     1.5765   1.5781   1.6010   1.7049   1.7631   1.8374   1.8907   1.9408
     2.0671   2.1275   2.1612   2.1849   2.2040   2.2670   2.2789   2.3167
     2.3355   2.3467   2.4371   2.4643   2.5557   2.6040   2.6071   2.6136
     2.6277   2.7438   2.7538   2.7872   2.7955   2.7968   2.8208   2.8622
     2.9065   2.9134   2.9569   3.0135   3.0787   3.0885   3.1410   3.1419
     3.1938   3.2149   3.2362   3.2494   3.2726   3.3748   3.4011   3.4150
     3.4158   3.4764   3.4950   3.5224   3.5344   3.5361   3.6418   3.6783
     3.6787   3.7049   3.7467   3.7834   3.8242   3.8928   3.9054   3.9587
     3.9590   3.9798   3.9875   4.0264   4.0474   4.0795   4.1392   4.1778
     4.1988   4.2173   4.2340   4.3056   4.3254   4.3459   4.3682   4.4079
     4.4088   4.4901   4.4983   4.5000   4.5464   4.5528   4.5851   4.6127
     4.6161   4.6785   4.6836   4.6852   4.7639   4.7881   4.8151   4.8997
     4.9107   4.9378   4.9480   4.9814   4.9818   5.0232   5.0637   5.0783
     5.0964   5.1338   5.1371   5.1509   5.2115   5.2547   5.2679   5.3017
     5.3158   5.3352   5.3610   5.3944   5.4079   5.4472   5.4734   5.4891
     5.4902   5.5395   5.5434   5.5841   5.5890   5.6178   5.6257   5.6472
     5.6977   5.7184   5.7504   5.7626   5.8126   5.8185   5.8979   5.9418
     5.9425   5.9844   6.0171   6.0386   6.0460   6.0749   6.1158   6.1383
     6.1525   6.1545   6.1900   6.2353   6.2464   6.2568   6.2822   6.3038
     6.3173   6.3439   6.3792   6.3875   6.4197   6.4434   6.5024   6.5125
     6.5398   6.5474   6.6083   6.6217   6.6253   6.6367   6.6688   6.6717
     6.7141   6.7222   6.7480   6.7593   6.7654   6.7932   6.8105   6.8132
     6.8556   6.8707   6.8846   6.9103   6.9276   6.9664   6.9735   7.0031
     7.0301   7.0351   7.0629   7.0835   7.0906   7.1300   7.1351   7.1600
     7.2029   7.2217   7.2260   7.2267   7.2565   7.2753   7.2911   7.3150
     7.3382   7.3595   7.3770   7.3793   7.4040   7.4198   7.4341   7.4507
     7.4712   7.4862   7.5074   7.5302   7.5460   7.5824   7.6045   7.6151
     7.6272   7.6305   7.6384   7.6669   7.6969   7.7130   7.7236   7.7293
     7.7383   7.7633   7.7810   7.7825   7.8101   7.8510   7.8697   7.8920
     7.9059   7.9571   7.9735   8.0067   8.0205   8.0268   8.0476   8.0916
     8.1263   8.1327   8.1548   8.1792   8.1918   8.2070   8.2391   8.2448
     8.3099   8.3211   8.3227   8.3479   8.3679   8.3848   8.3886   8.3989
     8.4014   8.4171   8.4305   8.4417   8.4645   8.5032   8.5177   8.5234
     8.5486   8.5525   8.5741   8.6055   8.6122   8.6303   8.6545   8.6599
     8.6959   8.7148   8.7441   8.7494   8.7847   8.8026   8.8151   8.8154
     8.8274   8.8412   8.8789   8.8813   8.9089   8.9430   8.9557   8.9830
     8.9860   8.9957   9.0107   9.0486   9.0610   9.0776   9.0912   9.1197
     9.1234   9.1818   9.2036   9.2104   9.2328   9.2584   9.2898   9.3113
     9.3175   9.3537   9.3753   9.3804   9.3927   9.4286   9.4408   9.4689
     9.4846   9.4925   9.4948   9.5094   9.5205   9.5327   9.5503   9.5906
     9.6097   9.6219   9.6459   9.6681   9.6697   9.6966   9.6997   9.7060
     9.7400   9.7587   9.7737   9.7834   9.8251   9.8424   9.8548   9.8690
     9.9063   9.9116   9.9373   9.9463   9.9660  10.0204  10.0329  10.0651
    10.0726  10.1082  10.1185  10.1262  10.1442  10.2191  10.2202  10.2521
    10.2578  10.2715  10.2835  10.2876  10.3089  10.3209  10.3234  10.3570
    10.3705  10.4121  10.4215  10.4421  10.4429  10.4549  10.4908  10.4935
    10.5240  10.5505  10.5541  10.5856

          k = 0.0000 0.0000 0.0104 (132691 PWs)   bands (ev):

   -21.8851 -21.5597 -21.2879 -20.9718 -20.6437 -20.4036 -20.2991 -19.7855
   -19.6523 -19.5026 -19.1703 -18.9890 -18.5989 -18.3037 -18.2294 -17.9157
   -17.6773 -17.5245 -17.4699 -17.2846 -16.9152 -16.9007 -16.3660 -15.9604
   -15.4483 -15.2607 -15.1909 -14.8088 -14.5816 -14.5323 -14.4992 -14.3303
   -14.0406 -13.7691 -13.5509 -12.7936 -12.7581 -12.6332 -12.4854 -12.3676
   -12.2848 -12.0154 -11.6628 -11.4767 -11.2017 -11.1039 -10.9821 -10.7732
   -10.6901 -10.4801 -10.4576 -10.3086 -10.1234  -9.9667  -9.9441  -9.8575
    -9.7706  -9.5645  -9.4741  -9.4395  -9.3177  -9.2414  -9.2273  -9.0764
    -9.0279  -9.0049  -8.9197  -8.6688  -8.5851  -8.5474  -8.5392  -8.4623
    -8.2599  -8.2395  -8.1805  -8.1032  -8.0607  -7.9783  -7.7553  -7.7212
    -7.5115  -7.4672  -7.3899  -7.2602  -7.1078  -7.0815  -6.9168  -6.6899
    -6.6820  -6.3356  -6.2778  -6.2034  -5.9998  -5.8620  -5.7758  -5.4793
    -5.1897  -5.1092  -5.0034  -4.7320  -4.4904  -3.8779  -3.2675  -2.3257
    -1.6780  -1.0824  -1.0184  -0.7427  -0.5127  -0.4586  -0.2495  -0.1847
     0.2503   0.3496   0.3771   0.4064   0.7325   0.7517   0.8145   0.9473
     0.9771   1.1085   1.1548   1.1670   1.2828   1.3513   1.4058   1.5135
     1.5643   1.5915   1.5933   1.6890   1.7881   1.8413   1.8921   1.9280
     2.0899   2.1268   2.1572   2.1896   2.2187   2.2466   2.2467   2.3189
     2.3396   2.3526   2.4223   2.4679   2.5572   2.5918   2.6140   2.6214
     2.6229   2.7396   2.7428   2.7662   2.7765   2.7904   2.8219   2.8562
     2.8968   2.9355   2.9655   3.0315   3.0586   3.0594   3.1629   3.1665
     3.1818   3.2158   3.2416   3.2467   3.2919   3.3706   3.3953   3.4077
     3.4217   3.4672   3.4969   3.5311   3.5533   3.5573   3.6515   3.6737
     3.6843   3.7056   3.7323   3.7747   3.8594   3.8717   3.8916   3.9366
     3.9367   3.9602   4.0038   4.0416   4.0707   4.0869   4.1655   4.1837
     4.1868   4.2185   4.2548   4.2883   4.3438   4.3648   4.3752   4.4061
     4.4184   4.4596   4.4770   4.5053   4.5384   4.5455   4.5568   4.6123
     4.6182   4.6642   4.6943   4.7097   4.7511   4.7791   4.8135   4.8633
     4.8972   4.9456   4.9631   4.9789   4.9868   5.0419   5.0594   5.0888
     5.1030   5.1172   5.1452   5.1741   5.2584   5.2626   5.2723   5.3239
     5.3424   5.3436   5.3521   5.3722   5.3863   5.4758   5.4830   5.4909
     5.5118   5.5153   5.5549   5.5635   5.5842   5.5951   5.6331   5.6649
     5.6859   5.6998   5.7363   5.7594   5.8063   5.8316   5.8861   5.9172
     5.9295   5.9802   5.9845   6.0352   6.0467   6.0823   6.1286   6.1445
     6.1657   6.1793   6.1922   6.2134   6.2689   6.2737   6.2825   6.3015
     6.3341   6.3628   6.3710   6.3922   6.4071   6.4148   6.4920   6.4932
     6.5316   6.5364   6.5912   6.5962   6.6288   6.6411   6.6572   6.6656
     6.7240   6.7338   6.7418   6.7620   6.7737   6.7900   6.7927   6.8050
     6.8485   6.8649   6.8732   6.8998   6.9182   6.9642   6.9753   7.0103
     7.0133   7.0363   7.0744   7.0783   7.1140   7.1268   7.1320   7.2015
     7.2193   7.2206   7.2268   7.2358   7.2380   7.2711   7.2873   7.3056
     7.3418   7.3438   7.3610   7.4014   7.4100   7.4268   7.4377   7.4395
     7.4750   7.5088   7.5261   7.5329   7.5514   7.5795   7.5854   7.6098
     7.6339   7.6368   7.6590   7.6770   7.6816   7.7145   7.7182   7.7315
     7.7375   7.7499   7.7626   7.7905   7.8073   7.8289   7.8930   7.8942
     7.9126   7.9449   7.9673   7.9873   8.0186   8.0340   8.0561   8.0943
     8.1338   8.1533   8.1553   8.1652   8.1965   8.2100   8.2441   8.2451
     8.2962   8.3036   8.3157   8.3287   8.3624   8.3881   8.3909   8.4089
     8.4097   8.4261   8.4273   8.4392   8.4747   8.4829   8.4864   8.5206
     8.5422   8.5651   8.5803   8.5930   8.6095   8.6422   8.6568   8.6784
     8.7135   8.7217   8.7518   8.7691   8.7998   8.8082   8.8124   8.8241
     8.8336   8.8620   8.8910   8.9094   8.9128   8.9357   8.9380   8.9583
     8.9614   8.9985   9.0348   9.0475   9.0658   9.0792   9.0852   9.0908
     9.1494   9.1709   9.1872   9.2149   9.2403   9.2716   9.2944   9.3308
     9.3385   9.3723   9.3870   9.3894   9.4091   9.4366   9.4469   9.4717
     9.4867   9.5037   9.5124   9.5142   9.5422   9.5520   9.5684   9.5869
     9.5875   9.6118   9.6553   9.6822   9.6923   9.7042   9.7094   9.7215
     9.7274   9.7457   9.7668   9.8049   9.8117   9.8303   9.8489   9.8808
     9.9040   9.9254   9.9367   9.9385   9.9645   9.9880  10.0215  10.0471
    10.0598  10.1036  10.1272  10.1459  10.1520  10.2063  10.2269  10.2390
    10.2450  10.2509  10.2853  10.2967  10.3000  10.3087  10.3336  10.3368
    10.3546  10.4061  10.4123  10.4275  10.4286  10.4363  10.4732  10.4854
    10.5066  10.5317  10.5516  10.5666

          k = 0.0000 0.0000 0.0117 (132697 PWs)   bands (ev):

   -21.8826 -21.5735 -21.2688 -20.9698 -20.6562 -20.4029 -20.3119 -19.7524
   -19.6636 -19.5077 -19.1657 -18.9827 -18.5826 -18.3378 -18.2573 -17.9059
   -17.6782 -17.5265 -17.4399 -17.2862 -16.9171 -16.8861 -16.3647 -15.9645
   -15.4812 -15.2572 -15.1808 -14.8105 -14.5969 -14.5496 -14.4798 -14.3359
   -14.0423 -13.7452 -13.5104 -12.8163 -12.7525 -12.6408 -12.5034 -12.3501
   -12.2751 -11.9974 -11.7008 -11.5166 -11.2315 -11.1121 -10.9842 -10.7501
   -10.6481 -10.4846 -10.4427 -10.2843 -10.1184  -9.9520  -9.9408  -9.8475
    -9.7789  -9.5813  -9.4831  -9.4330  -9.3133  -9.2354  -9.2189  -9.0922
    -9.0358  -9.0172  -8.9166  -8.6658  -8.6011  -8.5714  -8.5535  -8.4525
    -8.2745  -8.2270  -8.1630  -8.1306  -8.0360  -7.9691  -7.7582  -7.7315
    -7.5015  -7.4460  -7.3899  -7.2722  -7.1175  -7.0759  -6.9146  -6.6822
    -6.6598  -6.3443  -6.2549  -6.2085  -6.0202  -5.9014  -5.7750  -5.4801
    -5.1718  -5.0991  -5.0133  -4.7295  -4.4737  -3.8942  -3.2543  -2.3411
    -1.6652  -1.0852  -1.0243  -0.7358  -0.5500  -0.4609  -0.2498  -0.1930
     0.2852   0.3535   0.4103   0.4359   0.7254   0.7424   0.7979   0.9119
     0.9815   1.1224   1.1452   1.1916   1.2875   1.3518   1.3873   1.5239
     1.5366   1.6025   1.6095   1.6739   1.8138   1.8455   1.8901   1.9193
     2.1087   2.1207   2.1495   2.1833   2.2141   2.2263   2.2550   2.3188
     2.3445   2.3531   2.4178   2.4733   2.5533   2.5708   2.6031   2.6202
     2.6398   2.7294   2.7316   2.7473   2.7615   2.7775   2.8192   2.8585
     2.9049   2.9628   2.9762   3.0011   3.0405   3.0779   3.1531   3.1867
     3.2025   3.2159   3.2439   3.2524   3.3158   3.3288   3.4104   3.4127
     3.4306   3.4405   3.4946   3.5403   3.5749   3.5928   3.6325   3.6606
     3.6979   3.7050   3.7484   3.7526   3.8485   3.8699   3.8998   3.9247
     3.9269   3.9366   4.0211   4.0558   4.0753   4.1020   4.1628   4.1667
     4.2174   4.2229   4.2775   4.2802   4.3649   4.3793   4.3855   4.4026
     4.4053   4.4469   4.4605   4.4852   4.5178   4.5456   4.5698   4.6110
     4.6240   4.6532   4.6825   4.7076   4.7714   4.7890   4.8052   4.8225
     4.8802   4.9474   4.9475   5.0021   5.0151   5.0419   5.0661   5.0774
     5.1062   5.1263   5.1684   5.1917   5.2502   5.2837   5.3075   5.3141
     5.3197   5.3510   5.3640   5.3690   5.4137   5.4557   5.4880   5.4994
     5.5085   5.5117   5.5472   5.5572   5.5897   5.5899   5.6191   5.6734
     5.7063   5.7166   5.7236   5.7587   5.8028   5.8485   5.8633   5.8741
     5.9197   5.9542   5.9754   6.0314   6.0559   6.0854   6.1202   6.1355
     6.1509   6.1933   6.2188   6.2289   6.2494   6.2743   6.3151   6.3164
     6.3287   6.3554   6.3923   6.3977   6.4093   6.4117   6.4779   6.4784
     6.5160   6.5287   6.5722   6.5776   6.6253   6.6312   6.6513   6.6626
     6.7168   6.7216   6.7425   6.7524   6.7815   6.7831   6.7923   6.8109
     6.8475   6.8568   6.8693   6.9036   6.9133   6.9631   6.9721   6.9947
     7.0203   7.0420   7.0678   7.0879   7.1139   7.1262   7.1420   7.1798
     7.2117   7.2229   7.2297   7.2472   7.2634   7.2743   7.2854   7.3010
     7.3193   7.3548   7.3556   7.3830   7.3970   7.4433   7.4503   7.4639
     7.4745   7.4906   7.5087   7.5335   7.5526   7.5887   7.6031   7.6173
     7.6530   7.6576   7.6593   7.6799   7.6819   7.7029   7.7169   7.7206
     7.7387   7.7579   7.7607   7.7849   7.8204   7.8304   7.8980   7.9009
     7.9260   7.9365   7.9553   7.9893   8.0220   8.0445   8.0690   8.0905
     8.1269   8.1352   8.1552   8.1708   8.1998   8.2058   8.2278   8.2582
     8.2614   8.2735   8.3107   8.3242   8.3469   8.3790   8.3927   8.3943
     8.4198   8.4290   8.4409   8.4534   8.4547   8.4772   8.5023   8.5297
     8.5497   8.5602   8.5808   8.5977   8.6285   8.6361   8.6692   8.6694
     8.7200   8.7304   8.7705   8.7796   8.8051   8.8075   8.8296   8.8302
     8.8469   8.8679   8.9036   8.9230   8.9243   8.9310   8.9419   8.9536
     8.9584   8.9875   9.0211   9.0579   9.0608   9.0766   9.0876   9.1058
     9.1431   9.1758   9.2053   9.2090   9.2546   9.2840   9.2882   9.3511
     9.3595   9.3712   9.3822   9.3877   9.4134   9.4270   9.4286   9.4648
     9.4812   9.5155   9.5305   9.5479   9.5526   9.5643   9.5859   9.5895
     9.5964   9.6368   9.6542   9.6821   9.6851   9.7053   9.7228   9.7422
     9.7443   9.7519   9.7597   9.8033   9.8211   9.8270   9.8638   9.8683
     9.9067   9.9229   9.9502   9.9523   9.9661   9.9761   9.9986  10.0445
    10.0495  10.0926  10.1049  10.1621  10.1659  10.1729  10.1921  10.2215
    10.2387  10.2668  10.2709  10.2826  10.2997  10.3076  10.3211  10.3273
    10.3573  10.3915  10.3997  10.4150  10.4191  10.4360  10.4623  10.4832
    10.4911  10.5152  10.5305  10.5603

          k = 0.0000 0.0000 0.0130 (132705 PWs)   bands (ev):

   -21.8798 -21.5869 -21.2494 -20.9676 -20.6686 -20.4128 -20.3133 -19.7224
   -19.6738 -19.5111 -19.1627 -18.9745 -18.5669 -18.3727 -18.2822 -17.8969
   -17.6824 -17.5385 -17.4006 -17.2835 -16.9220 -16.8697 -16.3646 -15.9684
   -15.5158 -15.2525 -15.1661 -14.8134 -14.6166 -14.5849 -14.4412 -14.3415
   -14.0423 -13.7207 -13.4690 -12.8433 -12.7450 -12.6473 -12.5189 -12.3314
   -12.2666 -11.9856 -11.7322 -11.5581 -11.2630 -11.1174 -10.9860 -10.7331
   -10.6044 -10.5037 -10.4137 -10.2543 -10.1129  -9.9383  -9.9372  -9.8490
    -9.7735  -9.5976  -9.4983  -9.4248  -9.3096  -9.2404  -9.1964  -9.1077
    -9.0573  -9.0180  -8.9132  -8.6707  -8.6191  -8.5911  -8.5675  -8.4378
    -8.2916  -8.2254  -8.1464  -8.1435  -8.0115  -7.9599  -7.7629  -7.7399
    -7.5042  -7.4165  -7.3910  -7.2804  -7.1435  -7.0525  -6.9139  -6.6725
    -6.6381  -6.3539  -6.2312  -6.2142  -6.0428  -5.9403  -5.7728  -5.4811
    -5.1562  -5.1099  -5.0011  -4.7270  -4.4575  -3.9113  -3.2407  -2.3570
    -1.6513  -1.0905  -1.0265  -0.7378  -0.5796  -0.4655  -0.2458  -0.1994
     0.3202   0.3580   0.4147   0.4950   0.7093   0.7408   0.7835   0.8758
     0.9862   1.1119   1.1594   1.2163   1.2934   1.3473   1.3704   1.5118
     1.5312   1.6129   1.6260   1.6643   1.8385   1.8503   1.8822   1.9185
     2.0987   2.1310   2.1396   2.1743   2.1962   2.2083   2.2886   2.3136
     2.3490   2.3505   2.4249   2.4804   2.5392   2.5507   2.5796   2.6251
     2.6507   2.7131   2.7263   2.7312   2.7375   2.7858   2.8212   2.8482
     2.9299   2.9594   2.9845   2.9943   3.0279   3.1017   3.1361   3.1950
     3.2281   3.2313   3.2476   3.2618   3.2876   3.3411   3.4064   3.4195
     3.4210   3.4417   3.4972   3.5501   3.5854   3.6080   3.6270   3.6499
     3.6923   3.7216   3.7428   3.7595   3.8260   3.8383   3.8928   3.9127
     3.9383   3.9637   4.0285   4.0540   4.0768   4.1301   4.1455   4.1505
     4.2244   4.2617   4.2771   4.3067   4.3642   4.3668   4.3845   4.4037
     4.4085   4.4404   4.4631   4.4734   4.4930   4.5460   4.5877   4.6204
     4.6282   4.6485   4.6509   4.7194   4.7648   4.7779   4.7905   4.8383
     4.8676   4.9324   4.9410   5.0247   5.0344   5.0435   5.0692   5.0774
     5.1035   5.1447   5.1987   5.2051   5.2357   5.2691   5.2903   5.2990
     5.3488   5.3638   5.3724   5.3948   5.4263   5.4535   5.4536   5.4921
     5.4923   5.5123   5.5541   5.5563   5.5822   5.6290   5.6325   5.6623
     5.7100   5.7116   5.7685   5.7689   5.7983   5.8237   5.8320   5.8662
     5.9154   5.9352   5.9680   6.0321   6.0530   6.0799   6.1078   6.1236
     6.1265   6.1892   6.2029   6.2501   6.2684   6.2914   6.3118   6.3321
     6.3435   6.3577   6.3875   6.4097   6.4187   6.4214   6.4591   6.4850
     6.5047   6.5275   6.5506   6.5690   6.6011   6.6190   6.6481   6.6681
     6.6935   6.6997   6.7452   6.7551   6.7632   6.7833   6.7923   6.8060
     6.8414   6.8691   6.8779   6.9033   6.9242   6.9558   6.9695   7.0011
     7.0244   7.0438   7.0635   7.0820   7.1027   7.1095   7.1584   7.1622
     7.1905   7.2077   7.2366   7.2563   7.2642   7.2690   7.2920   7.3163
     7.3287   7.3518   7.3638   7.3642   7.3904   7.4347   7.4511   7.4621
     7.4729   7.4842   7.5009   7.5301   7.5793   7.6037   7.6168   7.6243
     7.6431   7.6435   7.6624   7.6777   7.6970   7.7143   7.7205   7.7407
     7.7541   7.7565   7.7769   7.8024   7.8138   7.8352   7.8987   7.9086
     7.9382   7.9402   7.9530   7.9997   8.0313   8.0576   8.0751   8.0897
     8.0906   8.1209   8.1571   8.1680   8.1684   8.1900   8.2031   8.2274
     8.2670   8.2926   8.2986   8.3209   8.3561   8.3565   8.3792   8.3926
     8.4000   8.4200   8.4339   8.4571   8.4748   8.4778   8.5327   8.5418
     8.5423   8.5752   8.5962   8.6079   8.6254   8.6526   8.6710   8.6796
     8.7232   8.7249   8.7570   8.7677   8.8041   8.8365   8.8437   8.8469
     8.8665   8.8774   8.8994   8.9040   8.9095   8.9342   8.9607   8.9759
     8.9882   8.9955   9.0084   9.0398   9.0401   9.0655   9.0955   9.1505
     9.1631   9.2032   9.2047   9.2294   9.2593   9.2736   9.2925   9.3475
     9.3482   9.3567   9.3771   9.3884   9.4182   9.4305   9.4331   9.4542
     9.4767   9.4813   9.5137   9.5611   9.5659   9.5842   9.6081   9.6138
     9.6357   9.6463   9.6713   9.6736   9.7095   9.7135   9.7202   9.7306
     9.7557   9.7643   9.7734   9.8095   9.8413   9.8471   9.8521   9.8626
     9.9168   9.9209   9.9320   9.9767   9.9839   9.9883   9.9920  10.0359
    10.0387  10.0632  10.1027  10.1322  10.1569  10.1719  10.1980  10.2060
    10.2115  10.2483  10.2661  10.2812  10.2837  10.2900  10.2972  10.3193
    10.3531  10.3771  10.4028  10.4091  10.4188  10.4316  10.4495  10.4805
    10.4918  10.5124  10.5300  10.5636

          k = 0.0000 0.0000 0.0143 (132748 PWs)   bands (ev):

   -21.8767 -21.5999 -21.2300 -20.9651 -20.6808 -20.4309 -20.3055 -19.7090
   -19.6695 -19.5125 -19.1611 -18.9646 -18.5541 -18.4050 -18.3054 -17.8887
   -17.6907 -17.5507 -17.3631 -17.2743 -16.9280 -16.8535 -16.3660 -15.9723
   -15.5500 -15.2464 -15.1492 -14.8182 -14.6392 -14.6176 -14.4064 -14.3460
   -14.0391 -13.6959 -13.4272 -12.8723 -12.7393 -12.6514 -12.5316 -12.3119
   -12.2596 -11.9829 -11.7541 -11.6006 -11.2954 -11.1205 -10.9883 -10.7216
   -10.5611 -10.5215 -10.3834 -10.2212 -10.1067  -9.9333  -9.9276  -9.8569
    -9.7580  -9.6135  -9.5171  -9.4179  -9.3063  -9.2425  -9.1738  -9.1221
    -9.0825  -9.0173  -8.9093  -8.6822  -8.6395  -8.6059  -8.5811  -8.4199
    -8.3090  -8.2409  -8.1440  -8.1234  -7.9884  -7.9499  -7.7699  -7.7459
    -7.5116  -7.3931  -7.3903  -7.2810  -7.1708  -7.0268  -6.9143  -6.6609
    -6.6169  -6.3645  -6.2205  -6.2076  -6.0682  -5.9764  -5.7705  -5.4825
    -5.1420  -5.1336  -4.9757  -4.7245  -4.4419  -3.9290  -3.2271  -2.3732
    -1.6366  -1.0981  -1.0252  -0.7512  -0.5993  -0.4720  -0.2366  -0.2046
     0.3553   0.3628   0.4195   0.5537   0.6919   0.7371   0.7740   0.8396
     0.9914   1.0949   1.1793   1.2412   1.2994   1.3365   1.3562   1.4918
     1.5360   1.6235   1.6283   1.6727   1.8556   1.8558   1.8759   1.9242
     2.0767   2.1269   2.1359   2.1510   2.1922   2.2099   2.3008   2.3171
     2.3477   2.3586   2.4372   2.4895   2.5091   2.5319   2.5668   2.6300
     2.6473   2.6853   2.7077   2.7238   2.7492   2.7969   2.8152   2.8462
     2.9142   2.9656   2.9813   3.0196   3.0292   3.1183   3.1190   3.2036
     3.2399   3.2463   3.2562   3.2612   3.2791   3.3660   3.3729   3.4252
     3.4304   3.4504   3.5011   3.5574   3.5885   3.5913   3.6145   3.6765
     3.6989   3.6991   3.7598   3.7727   3.8030   3.8070   3.8772   3.8919
     3.9557   4.0091   4.0296   4.0313   4.0966   4.1293   4.1307   4.1600
     4.2409   4.2703   4.3080   4.3157   4.3394   4.3462   4.3797   4.4066
     4.4282   4.4322   4.4745   4.4786   4.4815   4.5464   4.5916   4.6135
     4.6384   4.6429   4.6549   4.7284   4.7370   4.7560   4.7756   4.8608
     4.8806   4.9237   4.9310   5.0253   5.0364   5.0512   5.0767   5.0867
     5.1221   5.1601   5.1972   5.2194   5.2301   5.2346   5.2788   5.3070
     5.3399   5.3679   5.3888   5.4163   5.4273   5.4387   5.4558   5.4611
     5.4819   5.5263   5.5637   5.5840   5.5848   5.6482   5.6538   5.6758
     5.6934   5.7086   5.7562   5.7930   5.7966   5.8089   5.8227   5.8817
     5.9146   5.9212   5.9566   6.0352   6.0385   6.0663   6.0897   6.1048
     6.1178   6.1540   6.1941   6.2472   6.3030   6.3084   6.3159   6.3443
     6.3587   6.3791   6.3815   6.3854   6.4215   6.4322   6.4654   6.4810
     6.5206   6.5292   6.5406   6.5632   6.5732   6.6105   6.6432   6.6575
     6.6729   6.6825   6.7313   6.7516   6.7628   6.7802   6.7855   6.8123
     6.8492   6.8712   6.8773   6.9025   6.9237   6.9485   6.9899   7.0196
     7.0224   7.0368   7.0477   7.0619   7.0942   7.1148   7.1380   7.1553
     7.1694   7.2073   7.2482   7.2522   7.2562   7.2798   7.2830   7.2990
     7.3214   7.3434   7.3650   7.3850   7.4095   7.4110   7.4310   7.4540
     7.4764   7.4843   7.5248   7.5524   7.5646   7.5961   7.6215   7.6276
     7.6351   7.6473   7.6770   7.6958   7.6976   7.7233   7.7287   7.7567
     7.7717   7.7887   7.7910   7.8007   7.8255   7.8542   7.9074   7.9206
     7.9297   7.9438   7.9778   8.0110   8.0398   8.0553   8.0625   8.0714
     8.0855   8.0985   8.1181   8.1505   8.1554   8.1866   8.1944   8.2044
     8.2745   8.2776   8.2886   8.3252   8.3580   8.3666   8.3786   8.3824
     8.3991   8.4028   8.4324   8.4608   8.4771   8.4824   8.5286   8.5404
     8.5532   8.6008   8.6081   8.6210   8.6427   8.6525   8.6913   8.7026
     8.7071   8.7244   8.7526   8.7549   8.8051   8.8361   8.8369   8.8483
     8.8560   8.8968   8.9071   8.9157   8.9164   8.9403   8.9653   8.9702
     8.9729   9.0092   9.0267   9.0483   9.0521   9.0614   9.1184   9.1687
     9.2057   9.2121   9.2339   9.2432   9.2578   9.2667   9.2871   9.3068
     9.3321   9.3435   9.3830   9.3959   9.4041   9.4298   9.4431   9.4486
     9.4620   9.4855   9.5001   9.5453   9.5944   9.5959   9.6090   9.6160
     9.6418   9.6592   9.6832   9.6894   9.7168   9.7320   9.7397   9.7510
     9.7677   9.7777   9.7865   9.7951   9.8453   9.8545   9.8600   9.8949
     9.9093   9.9235   9.9466   9.9542   9.9727  10.0005  10.0094  10.0381
    10.0585  10.0692  10.0952  10.1040  10.1299  10.1773  10.1811  10.1941
    10.2203  10.2236  10.2307  10.2386  10.2609  10.2737  10.2817  10.3368
    10.3593  10.3719  10.3944  10.3952  10.4239  10.4252  10.4350  10.4750
    10.4997  10.5231  10.5457  10.5918

          k = 0.0000 0.0000 0.0156 (132750 PWs)   bands (ev):

   -21.8734 -21.6125 -21.2104 -20.9625 -20.6929 -20.4529 -20.2930 -19.7191
   -19.6443 -19.5114 -19.1608 -18.9534 -18.5493 -18.4289 -18.3273 -17.8816
   -17.7034 -17.5605 -17.3338 -17.2543 -16.9348 -16.8377 -16.3691 -15.9769
   -15.5815 -15.2390 -15.1313 -14.8256 -14.6638 -14.6451 -14.3842 -14.3436
   -14.0314 -13.6710 -13.3856 -12.9025 -12.7384 -12.6503 -12.5413 -12.2927
   -12.2541 -11.9908 -11.7652 -11.6428 -11.3279 -11.1217 -10.9915 -10.7156
   -10.5404 -10.5149 -10.3515 -10.1875 -10.0987  -9.9290  -9.9241  -9.8606
    -9.7385  -9.6289  -9.5386  -9.4132  -9.3029  -9.2424  -9.1512  -9.1361
    -9.1085  -9.0174  -8.9051  -8.6992  -8.6594  -8.6183  -8.5943  -8.4010
    -8.3246  -8.2669  -8.1304  -8.1032  -7.9694  -7.9368  -7.7782  -7.7502
    -7.5219  -7.3961  -7.3741  -7.2691  -7.1984  -7.0000  -6.9154  -6.6478
    -6.5960  -6.3761  -6.2274  -6.1860  -6.0964  -6.0071  -5.7681  -5.4843
    -5.1626  -5.1279  -4.9462  -4.7218  -4.4270  -3.9471  -3.2137  -2.3894
    -1.6210  -1.1074  -1.0210  -0.7751  -0.6108  -0.4794  -0.2223  -0.2088
     0.3682   0.3904   0.4248   0.6107   0.6746   0.7277   0.7714   0.8047
     0.9970   1.0774   1.1983   1.2659   1.3030   1.3192   1.3482   1.4776
     1.5382   1.6202   1.6338   1.6954   1.8487   1.8613   1.8892   1.9348
     2.0521   2.1065   2.1109   2.1570   2.1786   2.2319   2.2835   2.3338
     2.3503   2.3685   2.4489   2.4791   2.4998   2.5168   2.5608   2.6232
     2.6349   2.6622   2.6896   2.7305   2.7629   2.8017   2.8110   2.8511
     2.8784   2.9681   2.9940   3.0414   3.0424   3.1026   3.1284   3.2021
     3.2217   3.2570   3.2628   3.2917   3.3002   3.3399   3.3890   3.4276
     3.4440   3.4547   3.5056   3.5579   3.5680   3.5958   3.6028   3.6650
     3.7117   3.7164   3.7550   3.7685   3.7754   3.8189   3.8649   3.8719
     3.9669   3.9915   4.0265   4.0680   4.0920   4.1268   4.1350   4.1905
     4.2543   4.2702   4.2750   4.3171   4.3476   4.3636   4.3711   4.3768
     4.4500   4.4551   4.4692   4.4863   4.4941   4.5478   4.5922   4.5942
     4.6455   4.6500   4.6776   4.6978   4.7288   4.7438   4.7722   4.8597
     4.8900   4.9194   4.9496   5.0179   5.0195   5.0751   5.0753   5.0956
     5.1527   5.1604   5.1770   5.2055   5.2236   5.2357   5.2868   5.3066
     5.3166   5.3599   5.3852   5.3997   5.4028   5.4595   5.4658   5.4798
     5.4857   5.5421   5.5781   5.6036   5.6117   5.6452   5.6635   5.6742
     5.7011   5.7047   5.7176   5.7797   5.8053   5.8197   5.8701   5.8866
     5.9144   5.9190   5.9401   6.0264   6.0396   6.0462   6.0608   6.0954
     6.1073   6.1099   6.1987   6.2448   6.2914   6.3141   6.3354   6.3396
     6.3705   6.3769   6.3912   6.4081   6.4137   6.4271   6.4769   6.4962
     6.5049   6.5333   6.5382   6.5581   6.5923   6.5997   6.6313   6.6455
     6.6475   6.6766   6.7032   6.7572   6.7678   6.7732   6.7855   6.8206
     6.8599   6.8629   6.8796   6.9008   6.9063   6.9500   6.9836   7.0091
     7.0184   7.0378   7.0542   7.0625   7.0839   7.0932   7.1312   7.1548
     7.1707   7.2060   7.2303   7.2415   7.2517   7.2634   7.2875   7.2887
     7.3259   7.3341   7.3420   7.3716   7.4089   7.4235   7.4415   7.4724
     7.4794   7.4910   7.4989   7.5740   7.5810   7.5945   7.6092   7.6351
     7.6383   7.6519   7.6840   7.7080   7.7182   7.7243   7.7456   7.7653
     7.7779   7.7882   7.8120   7.8330   7.8484   7.8957   7.9133   7.9158
     7.9467   7.9522   7.9962   8.0110   8.0225   8.0303   8.0347   8.0526
     8.0748   8.0814   8.1260   8.1482   8.1502   8.1591   8.1743   8.2133
     8.2411   8.2700   8.2924   8.3439   8.3545   8.3573   8.3698   8.4047
     8.4054   8.4073   8.4357   8.4601   8.4650   8.4910   8.5137   8.5433
     8.5521   8.6156   8.6202   8.6296   8.6447   8.6705   8.6915   8.6994
     8.7367   8.7371   8.7408   8.7775   8.7958   8.8088   8.8272   8.8424
     8.8448   8.8842   8.9111   8.9229   8.9386   8.9499   8.9524   8.9609
     8.9764   9.0324   9.0393   9.0512   9.0920   9.0980   9.1332   9.1850
     9.2037   9.2257   9.2418   9.2527   9.2669   9.2725   9.2754   9.3028
     9.3245   9.3301   9.3589   9.3985   9.4092   9.4139   9.4317   9.4676
     9.4782   9.4857   9.4982   9.5239   9.5964   9.6018   9.6106   9.6188
     9.6494   9.6506   9.6766   9.7050   9.7065   9.7365   9.7543   9.7723
     9.7866   9.8041   9.8096   9.8200   9.8376   9.8490   9.8647   9.8993
     9.9105   9.9466   9.9562   9.9648   9.9787  10.0001  10.0255  10.0387
    10.0617  10.0818  10.1001  10.1010  10.1320  10.1483  10.1612  10.1802
    10.1839  10.1965  10.2263  10.2278  10.2504  10.2525  10.2778  10.3393
    10.3509  10.3627  10.3839  10.3881  10.3972  10.4365  10.4533  10.4783
    10.5027  10.5312  10.5573  10.5773

          k = 0.0000 0.0000 0.0169 (132756 PWs)   bands (ev):

   -21.8699 -21.6246 -21.1907 -20.9596 -20.7050 -20.4763 -20.2781 -19.7352
   -19.6165 -19.5068 -19.1613 -18.9413 -18.5595 -18.4370 -18.3482 -17.8757
   -17.7204 -17.5672 -17.3152 -17.2218 -16.9423 -16.8225 -16.3742 -15.9832
   -15.6087 -15.2308 -15.1135 -14.8369 -14.6870 -14.6689 -14.3829 -14.3270
   -14.0182 -13.6463 -13.3449 -12.9330 -12.7438 -12.6426 -12.5483 -12.2774
   -12.2477 -12.0072 -11.7691 -11.6817 -11.3601 -11.1218 -10.9954 -10.7155
   -10.5503 -10.4746 -10.3179 -10.1566 -10.0868  -9.9311  -9.9244  -9.8538
    -9.7180  -9.6438  -9.5624  -9.4111  -9.2991  -9.2415  -9.1521  -9.1317
    -9.1288  -9.0185  -8.9003  -8.7204  -8.6766  -8.6304  -8.6071  -8.3864
    -8.3336  -8.2963  -8.1125  -8.0834  -7.9573  -7.9180  -7.7867  -7.7538
    -7.5344  -7.3998  -7.3687  -7.2445  -7.2260  -6.9726  -6.9169  -6.6335
    -6.5756  -6.3885  -6.2348  -6.1734  -6.1229  -6.0301  -5.7659  -5.4868
    -5.1926  -5.1148  -4.9159  -4.7191  -4.4127  -3.9655  -3.2005  -2.4054
    -1.6046  -1.1180  -1.0146  -0.8055  -0.6186  -0.4862  -0.2130  -0.2026
     0.3740   0.4256   0.4304   0.6576   0.6605   0.7146   0.7736   0.7765
     1.0031   1.0599   1.2147   1.2887   1.2961   1.3023   1.3510   1.4686
     1.5370   1.6127   1.6434   1.7222   1.8344   1.8676   1.9039   1.9501
     2.0277   2.0737   2.0914   2.1654   2.1674   2.2562   2.2658   2.3319
     2.3549   2.3729   2.4556   2.4714   2.4983   2.5215   2.5567   2.5882
     2.6388   2.6442   2.6734   2.7401   2.7752   2.7881   2.8283   2.8284
     2.8748   2.9524   3.0176   3.0573   3.0585   3.0881   3.1404   3.1637
     3.2420   3.2663   3.2742   3.3068   3.3226   3.3277   3.4092   3.4233
     3.4573   3.4622   3.5103   3.5476   3.5560   3.5775   3.6204   3.6363
     3.7094   3.7431   3.7462   3.7576   3.7584   3.8357   3.8525   3.8738
     3.9604   3.9621   4.0151   4.0705   4.1214   4.1436   4.1567   4.2209
     4.2323   4.2497   4.2705   4.2966   4.3372   4.3735   4.3869   4.3874
     4.4566   4.4658   4.4791   4.4912   4.5154   4.5518   4.5872   4.5918
     4.6514   4.6554   4.6665   4.6919   4.7220   4.7430   4.7772   4.8641
     4.8789   4.9069   4.9945   5.0043   5.0116   5.0703   5.0881   5.1115
     5.1197   5.1428   5.2022   5.2113   5.2188   5.2323   5.2668   5.2955
     5.3233   5.3301   5.3617   5.3826   5.4119   5.4646   5.4843   5.4874
     5.5365   5.5546   5.5937   5.6045   5.6329   5.6341   5.6580   5.6750
     5.6974   5.7011   5.7139   5.7978   5.8034   5.8459   5.8763   5.8985
     5.9009   5.9382   5.9424   6.0150   6.0243   6.0400   6.0447   6.0531
     6.0967   6.1032   6.1951   6.2484   6.2812   6.3002   6.3013   6.3496
     6.3665   6.3752   6.4093   6.4118   6.4376   6.4476   6.4532   6.4910
     6.5154   6.5413   6.5490   6.5536   6.5870   6.6120   6.6163   6.6379
     6.6500   6.6679   6.6910   6.7525   6.7683   6.7718   6.7890   6.8264
     6.8503   6.8673   6.8706   6.8960   6.8983   6.9496   6.9597   6.9953
     7.0165   7.0170   7.0503   7.0546   7.0850   7.1002   7.1471   7.1552
     7.1722   7.1848   7.2191   7.2221   7.2257   7.2622   7.2710   7.2835
     7.3051   7.3450   7.3515   7.3747   7.4097   7.4118   7.4541   7.4568
     7.4652   7.4792   7.5537   7.5765   7.5835   7.6014   7.6170   7.6408
     7.6501   7.6689   7.6915   7.6974   7.7108   7.7427   7.7693   7.7696
     7.7904   7.8066   7.8298   7.8609   7.8818   7.8986   7.9155   7.9378
     7.9503   7.9611   7.9785   7.9913   8.0005   8.0116   8.0365   8.0456
     8.0649   8.0871   8.1162   8.1362   8.1551   8.1555   8.1734   8.2119
     8.2135   8.2736   8.3024   8.3214   8.3526   8.3595   8.3827   8.4041
     8.4126   8.4377   8.4478   8.4479   8.4680   8.4863   8.4957   8.5316
     8.5700   8.6013   8.6363   8.6442   8.6501   8.6607   8.6946   8.6965
     8.7259   8.7562   8.7692   8.7834   8.8018   8.8040   8.8096   8.8205
     8.8486   8.8611   8.9016   8.9328   8.9368   8.9418   8.9595   8.9727
     9.0087   9.0282   9.0595   9.0784   9.1090   9.1265   9.1471   9.1887
     9.2034   9.2133   9.2206   9.2544   9.2753   9.2849   9.2903   9.3196
     9.3256   9.3362   9.3553   9.3735   9.4062   9.4308   9.4347   9.4580
     9.4869   9.4985   9.5014   9.5341   9.5660   9.5876   9.6061   9.6158
     9.6540   9.6649   9.6854   9.6902   9.6984   9.7322   9.7561   9.7774
     9.7895   9.8036   9.8198   9.8367   9.8482   9.8697   9.8852   9.9185
     9.9319   9.9630   9.9725   9.9812  10.0034  10.0086  10.0111  10.0156
    10.0702  10.0864  10.0923  10.1135  10.1292  10.1394  10.1515  10.1630
    10.1786  10.1946  10.2105  10.2201  10.2310  10.2561  10.2925  10.3203
    10.3320  10.3393  10.3533  10.3960  10.4061  10.4434  10.4615  10.4832
    10.5154  10.5389  10.5572  10.5614

          k = 0.0000 0.0000 0.0182 (132768 PWs)   bands (ev):

   -21.8662 -21.6363 -21.1711 -20.9566 -20.7169 -20.4998 -20.2621 -19.7529
   -19.5925 -19.4970 -19.1623 -18.9289 -18.5841 -18.4305 -18.3673 -17.8713
   -17.7406 -17.5711 -17.3031 -17.1818 -16.9505 -16.8077 -16.3812 -15.9923
   -15.6299 -15.2223 -15.0964 -14.8525 -14.7050 -14.6912 -14.3918 -14.3079
   -13.9987 -13.6218 -13.3060 -12.9632 -12.7540 -12.6293 -12.5527 -12.2739
   -12.2336 -12.0275 -11.7791 -11.7078 -11.3914 -11.1210 -11.0000 -10.7212
   -10.5560 -10.4350 -10.2831 -10.1327 -10.0678  -9.9447  -9.9196  -9.8389
    -9.6978  -9.6582  -9.5876  -9.4115  -9.2948  -9.2418  -9.1743  -9.1462
    -9.1067  -9.0205  -8.8951  -8.7444  -8.6908  -8.6430  -8.6194  -8.3857
    -8.3269  -8.3266  -8.0928  -8.0644  -7.9505  -7.8955  -7.7944  -7.7572
    -7.5491  -7.4042  -7.3692  -7.2534  -7.2126  -6.9448  -6.9182  -6.6184
    -6.5557  -6.4019  -6.2428  -6.1888  -6.1322  -6.0416  -5.7640  -5.4901
    -5.2228  -5.1022  -4.8864  -4.7163  -4.3990  -3.9840  -3.1879  -2.4209
    -1.5875  -1.1293  -1.0064  -0.8386  -0.6270  -0.4912  -0.2161  -0.1795
     0.3802   0.4365   0.4609   0.6410   0.6795   0.7000   0.7783   0.7785
     1.0097   1.0427   1.2266   1.2688   1.2915   1.3184   1.3633   1.4632
     1.5320   1.6088   1.6519   1.7507   1.8192   1.8745   1.9149   1.9624
     2.0084   2.0431   2.0685   2.1580   2.1733   2.2450   2.2852   2.3068
     2.3608   2.3755   2.4522   2.4894   2.4952   2.5392   2.5517   2.5536
     2.6269   2.6376   2.6634   2.7434   2.7800   2.7856   2.7913   2.8482
     2.8902   2.9369   3.0250   3.0637   3.0762   3.0868   3.1251   3.1615
     3.2539   3.2659   3.2810   3.3057   3.3516   3.3540   3.4102   3.4270
     3.4620   3.4837   3.5144   3.5285   3.5565   3.5605   3.6075   3.6392
[...]
     2.3453   2.4268   2.4449   2.4550   2.5200   2.5202   2.5390   2.5394
     2.5862   2.6312   2.7031   2.7360   2.7660   2.7891   2.8124   2.8418
     2.8618   2.9405   2.9712   2.9949   3.0220   3.0962   3.1983   3.2557
     3.3010   3.3240   3.3332   3.3786   3.4125   3.4203   3.4235   3.4502
     3.4806   3.5311   3.5370   3.5605   3.5824   3.5979   3.6063   3.6439
     3.6511   3.6616   3.6983   3.7128   3.7283   3.7446   3.7683   3.8619
     3.8634   3.9118   3.9216   3.9747   4.0428   4.0938   4.1276   4.1750
     4.2590   4.2597   4.3237   4.3559   4.4014   4.4643   4.4800   4.5212
     4.5361   4.5519   4.5771   4.6148   4.6373   4.6565   4.6769   4.6794
     4.6949   4.7363   4.7483   4.7635   4.7653   4.7797   4.8062   4.8238
     4.8372   4.8435   4.8850   4.8894   4.9463   4.9753   4.9785   4.9862
     5.0202   5.0282   5.0352   5.1020   5.1583   5.2020   5.2621   5.2777
     5.3037   5.3569   5.3746   5.3893   5.4373   5.4658   5.4797   5.5275
     5.5496   5.5757   5.6042   5.6512   5.6537   5.6765   5.6985   5.7455
     5.7680   5.7978   5.8133   5.8426   5.8676   5.8749   5.9226   5.9350
     5.9502   5.9723   5.9998   6.0428   6.0458   6.0655   6.0806   6.0834
     6.1026   6.1393   6.1596   6.1937   6.2014   6.2102   6.2446   6.2818
     6.2879   6.3182   6.3288   6.3494   6.3843   6.4135   6.4385   6.4505
     6.4525   6.4821   6.5212   6.5357   6.5616   6.5960   6.6090   6.6302
     6.6393   6.6630   6.6708   6.6805   6.7074   6.7254   6.7720   6.8267
     6.8268   6.8553   6.8645   6.8900   6.9278   6.9530   6.9555   6.9603
     6.9889   6.9996   7.0310   7.0451   7.0489   7.0715   7.0943   7.1194
     7.1217   7.1606   7.1899   7.1960   7.2296   7.2352   7.2770   7.3119
     7.3253   7.3449   7.3499   7.3729   7.3731   7.3879   7.4120   7.4346
     7.4462   7.4825   7.4980   7.5245   7.5422   7.5710   7.5813   7.5977
     7.6008   7.6579   7.6612   7.6678   7.6985   7.7364   7.7853   7.7891
     7.8196   7.8252   7.8599   7.8731   7.9222   7.9565   7.9739   8.0038
     8.0146   8.0421   8.0589   8.0915   8.1149   8.1252   8.1385   8.1487
     8.1701   8.1802   8.1942   8.2156   8.2264   8.2425   8.2489   8.2801
     8.2957   8.3237   8.3265   8.3362   8.3623   8.3882   8.3973   8.4271
     8.4342   8.4530   8.4663   8.4763   8.4836   8.4953   8.5078   8.5265
     8.5504   8.5534   8.5566   8.5660   8.5895   8.6242   8.6269   8.6544
     8.6754   8.6898   8.6988   8.7399   8.7515   8.7810   8.8087   8.8234
     8.8518   8.8679   8.8950   8.9141   8.9141   8.9473   8.9641   8.9859
     8.9871   9.0223   9.0398   9.0911   9.1004   9.1260   9.1447   9.1851
     9.1982   9.2125   9.2253   9.2424   9.2655   9.2759   9.2902   9.3318
     9.3549   9.3742   9.3818   9.4323   9.4463   9.4695   9.4990   9.5019
     9.5097   9.5476   9.5707   9.5807   9.5940   9.6200   9.6249   9.6522
     9.6697   9.6839   9.6913   9.7142   9.7292   9.7688   9.7767   9.7903
     9.8055   9.8515   9.8581   9.8953   9.9031   9.9160   9.9303   9.9341
     9.9753   9.9914   9.9985  10.0075  10.0276  10.0318  10.0412  10.0591
    10.0842  10.1041  10.1101  10.1245  10.1315  10.1415  10.1827  10.2036
    10.2107  10.2568  10.2580  10.2821  10.3134  10.3175  10.3387  10.3668
    10.3945  10.3980  10.4164  10.4255  10.4335  10.4468  10.4852  10.4998
    10.5120  10.5405  10.5452  10.5483

          k = 0.0000 0.0000 0.0299 (132850 PWs)   bands (ev):

   -21.8339 -21.7090 -21.0286 -20.9112 -20.8293 -20.6462 -20.1263 -19.9010
   -19.5470 -19.2819 -19.1116 -18.9938 -18.7393 -18.5265 -18.2066 -18.0136
   -17.8188 -17.5682 -17.2269 -17.0312 -16.8416 -16.6849 -16.5222 -16.1662
   -15.5598 -15.2637 -15.0344 -14.9058 -14.8604 -14.6837 -14.5331 -14.2625
   -13.7080 -13.4647 -13.2941 -13.0255 -12.7348 -12.6084 -12.5324 -12.3358
   -12.1752 -12.0901 -12.0334 -11.7064 -11.5085 -11.1513 -10.9808 -10.8747
   -10.4927 -10.1830 -10.1462 -10.0552  -9.9749  -9.8746  -9.8327  -9.7517
    -9.7516  -9.6066  -9.5546  -9.5307  -9.4555  -9.3857  -9.1865  -9.1185
    -9.0163  -8.9661  -8.9570  -8.8144  -8.7547  -8.7342  -8.7100  -8.5416
    -8.4701  -8.1230  -8.0476  -7.9204  -7.8817  -7.8395  -7.8018  -7.7075
    -7.6626  -7.5212  -7.4096  -7.3849  -7.0114  -6.7708  -6.7233  -6.6121
    -6.5423  -6.4414  -6.3981  -6.3394  -6.2585  -5.8385  -5.7504  -5.6035
    -5.3938  -5.0276  -4.7201  -4.6931  -4.2951  -4.1305  -3.1163  -2.5108
    -1.4093  -1.2755  -1.0459  -0.8862  -0.7799  -0.4778  -0.2337   0.1206
     0.3466   0.4521   0.5010   0.5164   0.5854   0.7630   0.8538   0.9087
     0.9706   1.0870   1.1431   1.3014   1.3632   1.4127   1.4470   1.5615
     1.5661   1.5768   1.6708   1.6780   1.7270   1.7634   1.8282   1.9711
     1.9805   2.0337   2.0459   2.1096   2.1257   2.1837   2.2547   2.2806
     2.3347   2.4131   2.4460   2.4561   2.5064   2.5087   2.5385   2.5558
     2.6104   2.6168   2.7133   2.7329   2.7799   2.7817   2.8110   2.8448
     2.8643   2.9261   2.9669   2.9894   3.0059   3.1233   3.2137   3.2411
     3.2911   3.3326   3.3440   3.3890   3.3998   3.4088   3.4112   3.4702
     3.4970   3.5339   3.5495   3.5660   3.5768   3.6002   3.6084   3.6340
     3.6529   3.6683   3.6918   3.7153   3.7157   3.7613   3.7953   3.8238
     3.8377   3.8870   3.9379   3.9459   4.0758   4.0927   4.1103   4.1844
     4.2227   4.2580   4.3090   4.3907   4.4125   4.4574   4.4980   4.5479
     4.5519   4.5670   4.5854   4.6071   4.6357   4.6744   4.6966   4.6975
     4.7079   4.7211   4.7393   4.7485   4.7681   4.7881   4.8068   4.8268
     4.8327   4.8350   4.8670   4.9055   4.9473   4.9502   4.9627   4.9712
     5.0009   5.0095   5.0401   5.1376   5.1509   5.2145   5.2421   5.2517
     5.3033   5.3350   5.3749   5.3945   5.4373   5.4685   5.5160   5.5301
     5.5416   5.5704   5.5935   5.6586   5.6676   5.6808   5.6997   5.7439
     5.7667   5.8132   5.8143   5.8236   5.8641   5.8945   5.9205   5.9217
     5.9382   5.9936   6.0077   6.0439   6.0640   6.0654   6.0794   6.1094
     6.1314   6.1482   6.1507   6.1690   6.1951   6.2052   6.2355   6.2766
     6.3009   6.3240   6.3335   6.3671   6.3729   6.3827   6.4169   6.4507
     6.4788   6.4909   6.4973   6.5458   6.5643   6.5974   6.6027   6.6140
     6.6214   6.6377   6.6599   6.6690   6.7049   6.7295   6.7634   6.7718
     6.8135   6.8509   6.8653   6.8898   6.9411   6.9622   6.9729   6.9784
     6.9999   7.0159   7.0374   7.0411   7.0726   7.0821   7.1180   7.1312
     7.1393   7.1668   7.2004   7.2137   7.2303   7.2484   7.2756   7.2829
     7.3164   7.3175   7.3468   7.3584   7.3615   7.3697   7.3922   7.4223
     7.4363   7.4726   7.5015   7.5162   7.5327   7.5575   7.5761   7.5993
     7.6032   7.6472   7.6670   7.6713   7.6806   7.7378   7.7801   7.7886
     7.8108   7.8388   7.8545   7.8983   7.9442   7.9667   7.9913   8.0136
     8.0290   8.0590   8.0809   8.1008   8.1186   8.1257   8.1536   8.1675
     8.1693   8.1759   8.1781   8.2089   8.2187   8.2283   8.2584   8.2879
     8.2967   8.3048   8.3306   8.3379   8.3676   8.4006   8.4151   8.4186
     8.4381   8.4492   8.4590   8.4662   8.4874   8.5134   8.5180   8.5330
     8.5502   8.5554   8.5600   8.5638   8.6070   8.6210   8.6333   8.6361
     8.6770   8.6771   8.7053   8.7590   8.7645   8.7781   8.7942   8.8222
     8.8422   8.8422   8.8664   8.8897   8.9175   8.9315   8.9586   8.9599
     8.9819   9.0492   9.0601   9.0856   9.1150   9.1297   9.1561   9.1835
     9.1952   9.2000   9.2071   9.2360   9.2586   9.2794   9.3082   9.3250
     9.3370   9.3630   9.3630   9.4226   9.4533   9.4619   9.4990   9.5116
     9.5287   9.5606   9.5733   9.5851   9.5944   9.6210   9.6326   9.6656
     9.6763   9.7037   9.7056   9.7284   9.7374   9.7656   9.7705   9.7945
     9.8028   9.8339   9.8695   9.8695   9.9072   9.9360   9.9388   9.9468
     9.9856   9.9994  10.0029  10.0201  10.0208  10.0375  10.0488  10.0510
    10.0970  10.1079  10.1087  10.1309  10.1352  10.1650  10.1782  10.2039
    10.2290  10.2560  10.2760  10.2795  10.2922  10.2985  10.3281  10.3542
    10.3644  10.3767  10.4112  10.4152  10.4322  10.4695  10.4766  10.4911
    10.4965  10.5138  10.5361  10.5424

          k = 0.0000 0.0000 0.0312 (132834 PWs)   bands (ev):

   -21.8325 -21.7114 -21.0233 -20.9050 -20.8384 -20.6505 -20.1199 -19.9078
   -19.5467 -19.2740 -19.0866 -19.0254 -18.7365 -18.5328 -18.1900 -18.0307
   -17.8186 -17.5679 -17.2234 -17.0348 -16.8286 -16.6729 -16.5373 -16.1746
   -15.5489 -15.2748 -15.0303 -14.9029 -14.8688 -14.6774 -14.5424 -14.2623
   -13.6911 -13.4615 -13.3053 -13.0253 -12.7067 -12.6306 -12.5440 -12.2986
   -12.2158 -12.0911 -12.0246 -11.7135 -11.5054 -11.1550 -10.9737 -10.8856
   -10.4886 -10.1758 -10.1491 -10.0417  -9.9818  -9.8724  -9.8384  -9.7551
    -9.7152  -9.6327  -9.5366  -9.5179  -9.4746  -9.4075  -9.1821  -9.1129
    -9.0123  -8.9702  -8.9620  -8.8066  -8.7590  -8.7349  -8.7160  -8.5497
    -8.4726  -8.1039  -8.0628  -7.9114  -7.8711  -7.8454  -7.8040  -7.7164
    -7.6452  -7.5381  -7.4119  -7.3852  -7.0093  -6.7320  -6.7115  -6.6502
    -6.5518  -6.4384  -6.3838  -6.3522  -6.2660  -5.8245  -5.7485  -5.6168
    -5.3971  -5.0255  -4.7155  -4.6924  -4.2893  -4.1377  -3.1144  -2.5133
    -1.3941  -1.2906  -1.0510  -0.8746  -0.7932  -0.4768  -0.2343   0.1473
     0.3188   0.4587   0.5037   0.5102   0.5795   0.7841   0.8629   0.8981
     0.9501   1.0954   1.1334   1.3519   1.3750   1.4002   1.4324   1.5345
     1.5891   1.5960   1.6624   1.6726   1.7166   1.7419   1.8225   1.9847
     1.9852   2.0165   2.0787   2.1049   2.1244   2.1504   2.2611   2.3117
     2.3273   2.3823   2.4520   2.4678   2.4933   2.4977   2.5382   2.5724
     2.6024   2.6387   2.7053   2.7203   2.7811   2.7954   2.8189   2.8463
     2.8615   2.9175   2.9654   2.9817   2.9949   3.1486   3.2206   3.2329
     3.2746   3.3435   3.3526   3.3882   3.3927   3.4041   3.4062   3.4821
     3.5185   3.5345   3.5594   3.5654   3.5731   3.5965   3.5976   3.6203
     3.6528   3.6732   3.7041   3.7164   3.7250   3.7827   3.7864   3.8143
     3.8291   3.8553   3.9016   3.9802   4.0540   4.1137   4.1214   4.1865
     4.1941   4.2597   4.2863   4.4117   4.4352   4.4598   4.5098   4.5511
     4.5546   4.5817   4.5930   4.6125   4.6260   4.6645   4.6826   4.7138
     4.7142   4.7407   4.7449   4.7529   4.7755   4.7873   4.8118   4.8211
     4.8319   4.8370   4.8579   4.9069   4.9183   4.9326   4.9491   4.9616
     4.9935   4.9971   5.0726   5.1471   5.1758   5.1858   5.2345   5.2539
     5.2976   5.3028   5.3745   5.4080   5.4394   5.4673   5.5051   5.5355
     5.5751   5.5791   5.5895   5.6335   5.6737   5.6780   5.7166   5.7420
     5.7637   5.8092   5.8286   5.8373   5.8435   5.8819   5.9089   5.9253
     5.9514   6.0001   6.0150   6.0545   6.0570   6.0684   6.1030   6.1120
     6.1189   6.1481   6.1623   6.1824   6.1981   6.2088   6.2297   6.2679
     6.2798   6.3179   6.3299   6.3511   6.3675   6.4236   6.4262   6.4393
     6.4571   6.4990   6.5114   6.5605   6.5691   6.5736   6.5801   6.6007
     6.6176   6.6338   6.6537   6.6801   6.7113   6.7165   6.7329   6.7519
     6.8027   6.8491   6.8652   6.8871   6.9516   6.9694   6.9780   6.9940
     6.9981   7.0174   7.0317   7.0538   7.1005   7.1120   7.1311   7.1440
     7.1609   7.1760   7.1949   7.2156   7.2338   7.2528   7.2592   7.2666
     7.3012   7.3120   7.3154   7.3470   7.3697   7.3732   7.3759   7.4128
     7.4423   7.4582   7.4886   7.4987   7.5404   7.5493   7.5828   7.5988
     7.6073   7.6406   7.6643   7.6744   7.6752   7.7373   7.7761   7.7933
     7.8035   7.8250   7.8670   7.8991   7.9744   7.9836   8.0073   8.0107
     8.0514   8.0793   8.0964   8.1090   8.1137   8.1326   8.1436   8.1515
     8.1558   8.1813   8.1899   8.2076   8.2143   8.2367   8.2446   8.2628
     8.2968   8.3014   8.3095   8.3618   8.3944   8.4040   8.4133   8.4251
     8.4299   8.4536   8.4581   8.4716   8.4927   8.5054   8.5265   8.5329
     8.5425   8.5635   8.5705   8.5731   8.6068   8.6167   8.6339   8.6516
     8.6757   8.6793   8.7131   8.7442   8.7622   8.7747   8.7784   8.7972
     8.8296   8.8346   8.8836   8.9028   8.9099   8.9212   8.9349   8.9678
     8.9777   9.0358   9.0762   9.0869   9.1231   9.1373   9.1572   9.1721
     9.1883   9.1970   9.2043   9.2337   9.2572   9.2946   9.2961   9.3321
     9.3428   9.3525   9.3544   9.3894   9.4604   9.4761   9.4844   9.5115
     9.5424   9.5555   9.5738   9.5885   9.6069   9.6178   9.6511   9.6721
     9.6834   9.7184   9.7191   9.7406   9.7420   9.7548   9.7765   9.7951
     9.8199   9.8280   9.8533   9.8589   9.9098   9.9136   9.9229   9.9463
     9.9697   9.9982  10.0084  10.0388  10.0464  10.0604  10.0737  10.0843
    10.0918  10.0997  10.1119  10.1311  10.1631  10.1661  10.1746  10.2254
    10.2350  10.2420  10.2479  10.2700  10.2807  10.2881  10.3298  10.3438
    10.3698  10.3762  10.3861  10.4112  10.4220  10.4358  10.4568  10.4833
    10.5044  10.5197  10.5370  10.5509

          k = 0.0000 0.0000-0.0326 (132814 PWs)   bands (ev):

   -21.8320 -21.7123 -21.0216 -20.9025 -20.8419 -20.6519 -20.1177 -19.9101
   -19.5466 -19.2714 -19.0625 -19.0517 -18.7355 -18.5349 -18.1836 -18.0372
   -17.8186 -17.5678 -17.2221 -17.0360 -16.8242 -16.6678 -16.5433 -16.1774
   -15.5450 -15.2789 -15.0287 -14.9018 -14.8718 -14.6750 -14.5458 -14.2623
   -13.6852 -13.4606 -13.3091 -13.0253 -12.6889 -12.6469 -12.5474 -12.2675
   -12.2481 -12.0913 -12.0215 -11.7162 -11.5042 -11.1563 -10.9708 -10.8896
   -10.4872 -10.1734 -10.1503 -10.0350  -9.9862  -9.8716  -9.8406  -9.7563
    -9.6878  -9.6584  -9.5261  -9.5067  -9.4885  -9.4166  -9.1806  -9.1108
    -9.0104  -8.9754  -8.9607  -8.8037  -8.7605  -8.7351  -8.7183  -8.5524
    -8.4734  -8.0919  -8.0735  -7.9082  -7.8656  -7.8492  -7.8047  -7.7196
    -7.6379  -7.5452  -7.4126  -7.3853  -7.0087  -6.7073  -6.6994  -6.6827
    -6.5553  -6.4371  -6.3744  -6.3611  -6.2686  -5.8195  -5.7475  -5.6218
    -5.3981  -5.0247  -4.7139  -4.6922  -4.2872  -4.1402  -3.1137  -2.5142
    -1.3878  -1.2968  -1.0527  -0.8697  -0.7986  -0.4765  -0.2344   0.1584
     0.3074   0.4615   0.5025   0.5099   0.5773   0.7925   0.8674   0.8931
     0.9419   1.0994   1.1290   1.3847   1.3851   1.3903   1.4125   1.5240
     1.6015   1.6033   1.6546   1.6690   1.7222   1.7270   1.8207   1.9861
     1.9991   2.0015   2.0990   2.1106   2.1225   2.1240   2.2634   2.3238
     2.3371   2.3575   2.4554   2.4776   2.4829   2.4930   2.5380   2.5860
     2.5895   2.6619   2.6815   2.7230   2.7800   2.8031   2.8236   2.8465
     2.8582   2.9152   2.9658   2.9776   2.9910   3.1625   3.2079   3.2519
     3.2563   3.3498   3.3557   3.3829   3.3897   3.4051   3.4058   3.4859
     3.5312   3.5350   3.5625   3.5652   3.5737   3.5830   3.5947   3.6186
     3.6527   3.6726   3.7018   3.7314   3.7457   3.7539   3.7931   3.8146
     3.8283   3.8643   3.8682   4.0074   4.0265   4.1253   4.1441   4.1556
     4.1988   4.2679   4.2693   4.4161   4.4392   4.4787   4.5141   4.5373
     4.5506   4.5826   4.6001   4.6322   4.6378   4.6482   4.6543   4.7193
     4.7275   4.7291   4.7534   4.7694   4.7909   4.8035   4.8036   4.8080
     4.8090   4.8553   4.8705   4.8882   4.8916   4.9302   4.9524   4.9666
     4.9844   4.9918   5.0934   5.1493   5.1621   5.1974   5.2284   5.2681
     5.2686   5.3025   5.3740   5.4174   5.4364   5.4650   5.5037   5.5315
     5.5804   5.5979   5.6037   5.6112   5.6745   5.6793   5.6974   5.7624
     5.7651   5.8100   5.8262   5.8365   5.8476   5.8682   5.9031   5.9298
     5.9589   5.9926   6.0276   6.0518   6.0661   6.0794   6.0861   6.1174
     6.1174   6.1394   6.1652   6.1906   6.1939   6.2451   6.2514   6.2559
     6.2581   6.2692   6.3341   6.3547   6.3915   6.4045   6.4271   6.4568
     6.4748   6.4796   6.5144   6.5475   6.5640   6.5773   6.5792   6.5942
     6.6168   6.6518   6.6640   6.6685   6.6831   6.7249   6.7293   6.7431
     6.7988   6.8485   6.8652   6.8861   6.9553   6.9724   6.9817   6.9890
     7.0100   7.0165   7.0231   7.0550   7.1235   7.1353   7.1385   7.1493
     7.1532   7.1906   7.1982   7.2044   7.2167   7.2356   7.2686   7.2737
     7.2852   7.3093   7.3248   7.3355   7.3584   7.3708   7.3885   7.4015
     7.4516   7.4621   7.4648   7.4972   7.5338   7.5599   7.5814   7.6000
     7.6082   7.6395   7.6579   7.6753   7.6787   7.7354   7.7753   7.8004
     7.8039   7.8093   7.8802   7.8901   7.9779   8.0039   8.0045   8.0297
     8.0444   8.0940   8.1013   8.1065   8.1190   8.1342   8.1360   8.1511
     8.1514   8.1610   8.2086   8.2117   8.2261   8.2271   8.2380   8.2425
     8.2874   8.3073   8.3098   8.3753   8.3965   8.4003   8.4113   8.4249
     8.4323   8.4550   8.4677   8.4802   8.4870   8.5066   8.5208   8.5301
     8.5344   8.5705   8.5814   8.5857   8.5859   8.6240   8.6382   8.6684
     8.6753   8.6763   8.7131   8.7352   8.7499   8.7689   8.7802   8.8042
     8.8051   8.8255   8.8908   8.9012   8.9225   8.9242   8.9698   8.9705
     8.9716   8.9765   9.0827   9.1030   9.1216   9.1525   9.1530   9.1657
     9.1735   9.1959   9.2190   9.2281   9.2551   9.2853   9.3118   9.3270
     9.3425   9.3532   9.3640   9.3685   9.4629   9.4732   9.4835   9.5105
     9.5426   9.5590   9.5762   9.5859   9.6076   9.6228   9.6612   9.6704
     9.6856   9.7138   9.7270   9.7435   9.7515   9.7653   9.7690   9.7990
     9.8139   9.8259   9.8688   9.8702   9.8821   9.8929   9.9170   9.9435
     9.9796   9.9840  10.0039  10.0487  10.0574  10.0726  10.0739  10.0961
    10.1100  10.1192  10.1210  10.1422  10.1586  10.1634  10.1780  10.1830
    10.2114  10.2479  10.2511  10.2758  10.2813  10.3000  10.3211  10.3627
    10.3713  10.3762  10.3766  10.3802  10.4125  10.4213  10.4622  10.4858
    10.4892  10.5388  10.5455  10.5496

     the Fermi energy is    -3.0322 ev

     Writing output data file C_3Z_2A_W7.save/

     init_run     :     18.03s CPU     18.42s WALL (       1 calls)
     electrons    :   9989.25s CPU  10112.52s WALL (       1 calls)

     Called by init_run:
     wfcinit      :      0.00s CPU      0.00s WALL (       1 calls)
     potinit      :      1.30s CPU      1.42s WALL (       1 calls)
     hinit0       :     14.05s CPU     14.14s WALL (       1 calls)

     Called by electrons:
     c_bands      :   9989.24s CPU  10112.43s WALL (       1 calls)
     v_of_rho     :      0.93s CPU      1.00s WALL (       1 calls)
     newd         :      0.82s CPU      0.96s WALL (       1 calls)

     Called by c_bands:
     init_us_2    :      0.40s CPU      0.42s WALL (      26 calls)
     cegterg      :   9765.29s CPU   9879.63s WALL (      95 calls)

     Called by sum_band:

     Called by *egterg:
     h_psi        :   3162.99s CPU   3239.13s WALL (    1686 calls)
     s_psi        :    223.82s CPU    224.04s WALL (    1686 calls)
     g_psi        :     15.52s CPU     15.57s WALL (    1565 calls)
     cdiaghg      :   3163.24s CPU   3166.07s WALL (    1591 calls)

     Called by h_psi:
     h_psi:pot    :   3156.18s CPU   3228.54s WALL (    1686 calls)
     h_psi:calbec :    245.83s CPU    247.70s WALL (    1686 calls)
     vloc_psi     :   2686.67s CPU   2756.91s WALL (    1686 calls)
     add_vuspsi   :    223.66s CPU    223.87s WALL (    1686 calls)

     General routines
     calbec       :    245.82s CPU    247.62s WALL (    1686 calls)
     fft          :      1.07s CPU      1.15s WALL (      14 calls)
     ffts         :      0.02s CPU      0.02s WALL (       1 calls)
     fftw         :   2568.02s CPU   2637.70s WALL (  578526 calls)
     interpolate  :      0.10s CPU      0.11s WALL (       1 calls)
     davcio       :      0.00s CPU      3.59s WALL (      52 calls)

     Parallel routines
     fft_scatt_xy :    171.73s CPU    172.37s WALL (  578541 calls)
     fft_scatt_yz :   1816.05s CPU   1883.08s WALL (  578541 calls)

     PWSCF        :     2h47m CPU       47h 2m WALL

      55h

   This run was terminated on:  22: 6: 6  17May2021            

=------------------------------------------------------------------------------=
   JOB DONE.
=------------------------------------------------------------------------------=
