
     Program PWSCF v.6.3 starts on 19Apr2021 at 23:50: 2 

     This program is part of the open-source Quantum ESPRESSO suite
     for quantum simulation of materials; please cite
         "P. Giannozzi et al., J. Phys.:Condens. Matter 21 395502 (2009);
         "P. Giannozzi et al., J. Phys.:Condens. Matter 29 465901 (2017);
          URL http://www.quantum-espresso.org", 
     in publications or presentations arising from this work. More details at
     http://www.quantum-espresso.org/quote

     Parallel version (MPI), running on    16 processors
     R & G space division:  proc/nbgrp/npool/nimage =      16
     Waiting for input...
     Reading input from standard input
     Message from routine read_cards :
     DEPRECATED: no units specified in CELL_PARAMETERS card

     Current dimensions of program PWSCF are:
     Max number of different atomic species (ntypx) = 10
     Max number of k-points (npk) =  40000
     Max angular momentum in pseudopotentials (lmaxx) =  3

     Atomic positions and unit cell read from directory:
     /home/zfwang/scratch/GNRDATASET/AGNR/F10/F10.save/


     Subspace diagonalization in iterative solution of the eigenvalue problem:
     a serial algorithm will be used


     Parallelization info
     --------------------
     sticks:   dense  smooth     PW     G-vecs:    dense   smooth      PW
     Min        1973     657    185                73897    14225    2128
     Max        1975     659    187                73898    14226    2129
     Sum       31591   10529   2965              1182355   227601   34061



     bravais-lattice index     =            0
     lattice parameter (alat)  =       1.8897  a.u.
     unit-cell volume          =    6658.0148 (a.u.)^3
     number of atoms/cell      =           24
     number of atomic types    =            2
     number of electrons       =       108.00
     number of Kohn-Sham states=          500
     kinetic-energy cutoff     =      40.0000  Ry
     charge density cutoff     =     480.0000  Ry
     Exchange-correlation      = PBE ( 1  4  3  4 0 0)

     celldm(1)=  18.897261  celldm(2)=   2.316000  celldm(3)=   0.426000
     celldm(4)=   0.000000  celldm(5)=   0.000000  celldm(6)=   0.000000

     crystal axes: (cart. coord. in units of alat)
               a(1) = (  10.000000   0.000000   0.000000 )  
               a(2) = (   0.000000  23.160000   0.000000 )  
               a(3) = (   0.000000   0.000000   4.260000 )  

     reciprocal axes: (cart. coord. in units 2 pi/alat)
               b(1) = (  0.100000  0.000000  0.000000 )  
               b(2) = (  0.000000  0.043178  0.000000 )  
               b(3) = (  0.000000  0.000000  0.234742 )  


     PseudoPot. # 1 for C  read from file:
     /home/zfwang/hp_home/MySoftware/qe-6.3/pseudo/C.pbe-n-rrkjus_psl.0.1.UPF
     MD5 check sum: fff530ed632a789b3b184014e67dd7f1
     Pseudo is Ultrasoft + core correction, Zval =  4.0
     Generated using "atomic" code by A. Dal Corso v.5.0.2 svn rev. 9415
     Using radial grid of 1073 points,  4 beta functions with: 
                l(1) =   0
                l(2) =   0
                l(3) =   1
                l(4) =   1
     Q(r) pseudized with 0 coefficients 


     PseudoPot. # 2 for F  read from file:
     /home/zfwang/hp_home/MySoftware/qe-6.3/pseudo/F.pbe-n-rrkjus_psl.0.1.UPF
     MD5 check sum: 147397eca92fbb10e5415488e6f13084
     Pseudo is Ultrasoft + core correction, Zval =  7.0
     Generated using "atomic" code by A. Dal Corso v.5.0.2 svn rev. 9415
     Using radial grid of 1105 points,  4 beta functions with: 
                l(1) =   0
                l(2) =   0
                l(3) =   1
                l(4) =   1
     Q(r) pseudized with 0 coefficients 


     atomic species   valence    mass     pseudopotential
        C              4.00    12.01070     C ( 1.00)
        F              7.00    18.99840     F ( 1.00)

     No symmetry found



   Cartesian axes

     site n.     atom                  positions (alat units)
         1           C   tau(   1) = (   5.0000014   6.0938711   2.8047114  )
         2           C   tau(   2) = (   5.0000044   7.2693225   3.5540511  )
         3           C   tau(   3) = (   5.0000006   6.0938720   1.4552907  )
         4           C   tau(   4) = (   5.0000022   8.4975097   2.8387763  )
         5           C   tau(   5) = (   5.0000008   9.7327438   3.5524720  )
         6           C   tau(   6) = (   5.0000017   7.2693229   0.7059498  )
         7           C   tau(   7) = (   5.0000003   8.4975112   1.4212220  )
         8           C   tau(   8) = (   5.0000001  10.9651718   2.8412412  )
         9           C   tau(   9) = (   4.9999989  12.1949375   3.5487499  )
        10           C   tau(  10) = (   5.0000005   9.7327420   0.7075250  )
        11           C   tau(  11) = (   5.0000020  10.9651740   1.4187564  )
        12           C   tau(  12) = (   4.9999967  13.4273160   2.8374955  )
        13           C   tau(  13) = (   4.9999982  14.6625056   3.5512803  )
        14           C   tau(  14) = (   5.0000017  12.1949379   0.7112489  )
        15           C   tau(  15) = (   4.9999988  13.4273154   1.4225039  )
        16           C   tau(  16) = (   4.9999995  15.8906388   2.8358782  )
        17           C   tau(  17) = (   4.9999986  17.0660801   3.5853496  )
        18           C   tau(  18) = (   4.9999995  14.6625066   0.7087201  )
        19           C   tau(  19) = (   5.0000003  15.8906370   1.4241240  )
        20           C   tau(  20) = (   4.9999987  17.0660818   0.6746513  )
        21           F   tau(  21) = (   4.9999967   4.8315156   3.2316765  )
        22           F   tau(  22) = (   5.0000015   4.8315168   1.0283247  )
        23           F   tau(  23) = (   4.9999981  18.3283854   3.1583233  )
        24           F   tau(  24) = (   4.9999991  18.3283853   1.1016787  )

     number of k points=    26  Marzari-Vanderbilt smearing, width (Ry)=  0.0100
                       cart. coord. in units 2pi/alat
        k(    1) = (   0.0000000   0.0000000   0.0000000), wk =   0.0400000
        k(    2) = (   0.0000000   0.0000000   0.0046948), wk =   0.0800000
        k(    3) = (   0.0000000   0.0000000   0.0093897), wk =   0.0800000
        k(    4) = (   0.0000000   0.0000000   0.0140845), wk =   0.0800000
        k(    5) = (   0.0000000   0.0000000   0.0187793), wk =   0.0800000
        k(    6) = (   0.0000000   0.0000000   0.0234742), wk =   0.0800000
        k(    7) = (   0.0000000   0.0000000   0.0281690), wk =   0.0800000
        k(    8) = (   0.0000000   0.0000000   0.0328638), wk =   0.0800000
        k(    9) = (   0.0000000   0.0000000   0.0375587), wk =   0.0800000
        k(   10) = (   0.0000000   0.0000000   0.0422535), wk =   0.0800000
        k(   11) = (   0.0000000   0.0000000   0.0469484), wk =   0.0800000
        k(   12) = (   0.0000000   0.0000000   0.0516432), wk =   0.0800000
        k(   13) = (   0.0000000   0.0000000   0.0563380), wk =   0.0800000
        k(   14) = (   0.0000000   0.0000000   0.0610329), wk =   0.0800000
        k(   15) = (   0.0000000   0.0000000   0.0657277), wk =   0.0800000
        k(   16) = (   0.0000000   0.0000000   0.0704225), wk =   0.0800000
        k(   17) = (   0.0000000   0.0000000   0.0751174), wk =   0.0800000
        k(   18) = (   0.0000000   0.0000000   0.0798122), wk =   0.0800000
        k(   19) = (   0.0000000   0.0000000   0.0845070), wk =   0.0800000
        k(   20) = (   0.0000000   0.0000000   0.0892019), wk =   0.0800000
        k(   21) = (   0.0000000   0.0000000   0.0938967), wk =   0.0800000
        k(   22) = (   0.0000000   0.0000000   0.0985915), wk =   0.0800000
        k(   23) = (   0.0000000   0.0000000   0.1032864), wk =   0.0800000
        k(   24) = (   0.0000000   0.0000000   0.1079812), wk =   0.0800000
        k(   25) = (   0.0000000   0.0000000   0.1126761), wk =   0.0800000
        k(   26) = (   0.0000000   0.0000000  -0.1173709), wk =   0.0400000

     Dense  grid:  1182355 G-vectors     FFT dimensions: ( 135, 320,  60)

     Smooth grid:   227601 G-vectors     FFT dimensions: (  80, 180,  36)

     Estimated max dynamical RAM per process >     390.23 MB

     Estimated total dynamical RAM >       6.10 GB

     Check: negative/imaginary core charge=   -0.000005    0.000000

     The potential is recalculated from file :
     /home/zfwang/scratch/GNRDATASET/AGNR/F10/F10.save/charge-density.dat


     negative rho (up, down):  1.838E-03 0.000E+00
     Starting wfcs are   96 randomized atomic wfcs +  404 random wfcs

     Band Structure Calculation
     Davidson diagonalization with overlap

     ethr =  9.26E-09,  avg # of iterations = 16.0

     total cpu time spent up to now is     2171.9 secs

     End of band structure calculation

          k = 0.0000 0.0000 0.0000 ( 28407 PWs)   bands (ev):

   -29.8272 -29.8266 -28.2457 -28.2452 -21.6684 -21.3241 -20.5675 -19.4613
   -18.1230 -16.8233 -16.4362 -16.1859 -16.0611 -15.6436 -15.5516 -15.1338
   -15.0831 -14.5876 -13.4202 -13.1133 -12.8838 -12.5876 -12.2426 -12.1665
   -11.3084 -11.1286 -11.1104 -10.5579 -10.5458 -10.3806 -10.0461  -9.5805
    -9.5320  -9.0617  -9.0104  -8.8527  -8.2502  -8.2499  -8.2047  -7.9037
    -7.4375  -7.2934  -6.7126  -6.4717  -6.0434  -5.6536  -5.6459  -5.5518
    -5.3245  -4.3680  -3.8567  -3.8448  -2.9269  -2.5216  -1.6037  -1.5190
    -0.9607  -0.6186   0.0159   0.9275   1.1705   1.5382   1.8913   2.1222
     2.4224   2.5921   2.8049   2.8951   3.0417   3.2470   3.6512   3.6984
     3.7474   3.8948   3.9174   3.9939   4.1700   4.2565   4.7149   4.9962
     5.2400   5.2696   5.6031   5.7239   5.7890   5.9181   5.9241   6.1200
     6.1231   6.1425   6.5551   6.6229   7.0230   7.0556   7.5269   7.6113
     7.7116   7.7118   7.8991   7.9068   8.0273   8.1400   8.1585   8.2568
     8.3407   8.4336   8.5138   8.6103   8.6922   8.7831   8.8283   9.0294
     9.0502   9.1416   9.1480   9.1801   9.2402   9.2856   9.3326   9.4259
     9.5049   9.5648   9.8199   9.8560   9.9804  10.0194  10.0295  10.1052
    10.1778  10.2643  10.2987  10.3026  10.3951  10.4210  10.4738  10.4987
    10.5319  10.5323  10.5703  10.6301  10.7101  10.7825  10.7900  10.9509
    10.9569  10.9641  11.1303  11.3232  11.3442  11.3693  11.3815  11.4637
    11.4964  11.5815  11.7515  11.7698  11.7955  11.8119  11.8187  11.9164
    12.0186  12.1130  12.1165  12.1217  12.1635  12.1846  12.2163  12.4824
    12.5053  12.5535  12.6216  12.6357  12.7995  12.9616  12.9822  12.9857
    13.0626  13.2143  13.2607  13.3923  13.3925  13.3950  13.4483  13.4508
    13.6206  13.8267  13.8908  13.9249  13.9811  14.1336  14.2073  14.2687
    14.4167  14.4544  14.6408  14.7974  14.8536  14.9109  14.9189  14.9198
    15.1221  15.2602  15.2809  15.2912  15.3164  15.3749  15.5310  15.5569
    15.6230  15.7157  15.7445  15.8311  16.0521  16.0853  16.1514  16.1630
    16.2488  16.2703  16.3536  16.3682  16.3830  16.4185  16.4795  16.4809
    16.5324  16.6600  16.6723  16.7075  16.7085  16.7258  16.8157  16.8798
    16.9245  16.9290  16.9800  17.0894  17.1157  17.1265  17.2468  17.2596
    17.2852  17.2982  17.4477  17.5189  17.5847  17.6006  17.7387  17.7424
    17.7729  17.8463  18.0443  18.0563  18.1162  18.3554  18.3733  18.4467
    18.4487  18.4657  18.5137  18.5401  18.5803  18.5809  18.5986  18.7325
    18.7620  18.8421  18.9779  19.1304  19.2307  19.2470  19.2986  19.4491
    19.5246  19.5695  19.5741  19.6611  19.7230  19.7242  19.8907  20.0819
    20.1448  20.2094  20.2947  20.3554  20.3882  20.4121  20.4362  20.5197
    20.5821  20.6088  20.6094  20.6492  20.6641  20.6908  20.8693  20.8931
    20.9278  20.9831  21.0879  21.2978  21.3596  21.3934  21.4421  21.4998
    21.6006  21.6262  21.6501  21.6713  21.7344  21.7612  21.8037  21.8183
    21.8791  21.9016  22.0177  22.1499  22.1576  22.2700  22.2814  22.3040
    22.3666  22.3886  22.5474  22.5804  22.6941  22.7053  22.7477  22.7505
    22.9538  23.0126  23.0956  23.1147  23.2077  23.2567  23.2761  23.2775
    23.3676  23.4123  23.4579  23.5188  23.6910  23.7620  23.8553  23.8848
    24.0278  24.0640  24.0703  24.0713  24.1386  24.2011  24.2132  24.3241
    24.5444  24.6719  24.8777  24.8794  24.9310  24.9414  24.9882  25.0376
    25.0798  25.1366  25.2132  25.2338  25.2489  25.2977  25.4211  25.4259
    25.4560  25.5033  25.5942  25.6219  25.7110  25.7371  25.7555  25.8208
    25.8500  26.0535  26.2537  26.2571  26.2578  26.2898  26.3526  26.4109
    26.4363  26.5196  26.5358  26.6202  26.6559  26.8659  26.9372  27.0001
    27.0132  27.0905  27.2401  27.2639  27.2800  27.3032  27.3035  27.4624
    27.5168  27.5527  27.5674  27.5712  27.6368  27.6690  27.6829  27.7178
    27.7850  27.9739  28.0245  28.0849  28.2559  28.2680  28.3054  28.3215
    28.5042  28.6685  28.8258  28.8844  28.9155  28.9297  28.9697  29.0402
    29.0569  29.1236  29.2052  29.2695  29.2953  29.3551  29.4326  29.5545
    29.6145  29.6769  29.7133  29.7905  29.8142  29.8773  30.1442  30.2031
    30.2549  30.3544  30.4626  30.5018  30.5768  30.5847  30.6413  30.6834
    30.7478  30.7507  30.7806  30.7956  30.7981  30.8261  30.8507  30.9571
    30.9925  31.0417  31.1011  31.1531  31.2020  31.2893  31.2902  31.2914
    31.3478  31.4524  31.5170  31.5364  31.6125  31.6405  31.7760  32.0396
    32.0994  32.1608  32.3203  32.5180  32.5714  32.5802  32.6240  32.8501
    32.8998  32.9453  32.9875  33.0028  33.0070  33.1237  33.1618  33.1795
    33.4472  33.4640  33.5150  33.5524  33.5890  33.6881  33.6952  33.7906
    33.7998  33.8596  33.8773  33.9943

          k = 0.0000 0.0000 0.0047 ( 28377 PWs)   bands (ev):

   -29.8259 -29.8254 -28.2475 -28.2470 -21.6661 -21.3217 -20.5652 -19.4591
   -18.1210 -16.8266 -16.4773 -16.2690 -16.0022 -15.6616 -15.5426 -15.0793
   -15.0680 -14.5877 -13.4462 -13.0916 -12.8749 -12.5855 -12.2459 -12.1568
   -11.3221 -11.1152 -11.1034 -10.5561 -10.5440 -10.3872 -10.0417  -9.5742
    -9.5294  -9.0701  -9.0058  -8.8503  -8.2524  -8.2521  -8.1980  -7.9014
    -7.4555  -7.2835  -6.7104  -6.4792  -6.0484  -5.6730  -5.6359  -5.5522
    -5.3227  -4.3844  -3.8632  -3.8570  -2.9542  -2.5421  -1.5838  -1.4903
    -0.9394  -0.5988   0.0139   0.9307   1.1736   1.5413   1.8859   2.1252
     2.4257   2.5953   2.8074   2.8983   3.0441   3.2502   3.6544   3.7017
     3.7506   3.8925   3.9159   3.9971   4.1725   4.2595   4.7172   4.9981
     5.2431   5.2734   5.6063   5.7199   5.7919   5.9113   5.9268   6.1023
     6.1316   6.1469   6.5646   6.6121   7.0268   7.0593   7.5296   7.6034
     7.6868   7.7118   7.9019   7.9100   8.0291   8.1425   8.1616   8.2338
     8.3450   8.4367   8.5170   8.6161   8.6178   8.7809   8.8201   8.8429
     9.0824   9.1441   9.1502   9.2048   9.2794   9.2811   9.3285   9.3812
     9.5023   9.7026   9.7895   9.8107   9.8853   9.9490  10.1032  10.1514
    10.1718  10.1907  10.2302  10.3020  10.3431  10.3474  10.4475  10.5030
    10.5504  10.5807  10.7407  10.7437  10.7673  10.7817  10.7834  10.9723
    10.9822  10.9897  11.1005  11.2156  11.2165  11.2551  11.3709  11.4998
    11.5346  11.5472  11.6134  11.7094  11.7985  11.8008  11.8924  11.9162
    12.0123  12.0619  12.1430  12.1893  12.2137  12.2340  12.3424  12.3649
    12.5063  12.6413  12.6835  12.7697  12.8080  12.9408  12.9606  12.9789
    13.1045  13.1453  13.2948  13.3106  13.3840  13.4345  13.4850  13.5214
    13.5602  13.7930  13.8929  13.9288  13.9318  14.0953  14.1800  14.4516
    14.4628  14.5625  14.6621  14.7644  14.8433  14.8655  14.9305  14.9403
    15.1056  15.2595  15.2612  15.2726  15.3361  15.3722  15.5307  15.5343
    15.6189  15.6302  15.7299  15.9120  16.0255  16.0378  16.1605  16.1606
    16.1765  16.2512  16.2586  16.3090  16.3495  16.4515  16.4694  16.5103
    16.5562  16.5877  16.6611  16.7609  16.7770  16.8118  16.8370  16.9176
    16.9269  16.9711  17.0492  17.0554  17.1064  17.1437  17.2547  17.2759
    17.2904  17.3404  17.4451  17.5214  17.5933  17.6817  17.6935  17.6990
    17.7761  17.8331  17.9859  18.0227  18.0472  18.2933  18.3523  18.4090
    18.4777  18.5082  18.5131  18.5349  18.5719  18.6867  18.6881  18.7235
    18.8399  18.9342  18.9823  19.1342  19.2108  19.2336  19.2897  19.3253
    19.4594  19.5514  19.5959  19.7511  19.7991  19.8624  19.9259  20.1487
    20.1493  20.1549  20.2765  20.2830  20.3440  20.3839  20.3913  20.4991
    20.5434  20.6244  20.6317  20.6947  20.6956  20.7457  20.8981  20.8998
    20.9476  21.0094  21.0949  21.1629  21.3002  21.3613  21.4451  21.5396
    21.6276  21.6518  21.6637  21.6945  21.7889  21.7905  21.8198  21.8317
    21.8849  21.9116  22.0403  22.1406  22.1550  22.2351  22.3070  22.3116
    22.3239  22.3727  22.5175  22.5366  22.7247  22.7328  22.7685  22.7819
    22.8719  23.0393  23.0656  23.1798  23.1850  23.2658  23.2872  23.2951
    23.3583  23.4349  23.4455  23.5748  23.6595  23.7197  23.8141  23.8639
    23.8894  23.9331  23.9401  24.1307  24.3135  24.3399  24.3419  24.3777
    24.4496  24.8382  24.8433  24.8611  24.8886  24.9011  24.9081  24.9819
    24.9848  25.1105  25.1453  25.2159  25.3005  25.4135  25.4380  25.4547
    25.4592  25.5295  25.5981  25.6795  25.7477  25.7555  25.8161  25.8833
    25.8879  26.0410  26.2410  26.2565  26.2644  26.2926  26.3544  26.3617
    26.4181  26.5214  26.5331  26.5655  26.7111  26.7774  26.8399  26.9293
    26.9385  27.1856  27.2305  27.2880  27.2982  27.3351  27.3383  27.3843
    27.4660  27.5377  27.5489  27.6009  27.6536  27.6909  27.7008  27.7261
    27.8617  27.9650  28.0965  28.1279  28.2436  28.2852  28.3172  28.3613
    28.5223  28.7069  28.7788  28.8889  28.8927  28.8931  28.9406  28.9906
    29.0378  29.0457  29.1064  29.3352  29.3370  29.3690  29.4081  29.5293
    29.6000  29.7353  29.7545  29.7844  29.8094  29.9650  30.2137  30.2796
    30.2960  30.3414  30.4164  30.4535  30.4710  30.5781  30.6219  30.6532
    30.6770  30.6871  30.7625  30.7864  30.7914  30.8329  30.9150  30.9244
    31.0476  31.1102  31.1306  31.1919  31.2451  31.2941  31.3021  31.3979
    31.4027  31.4482  31.4649  31.5435  31.6317  31.6972  31.8979  31.9580
    32.1235  32.1484  32.4024  32.5064  32.5811  32.5844  32.6547  32.8138
    32.8936  32.9164  32.9286  32.9678  32.9701  33.0424  33.1480  33.1656
    33.3363  33.4149  33.4468  33.5291  33.5338  33.5457  33.6507  33.6966
    33.7721  33.7849  33.8415  33.9413

          k = 0.0000 0.0000 0.0094 ( 28361 PWs)   bands (ev):

   -29.8222 -29.8216 -28.2529 -28.2524 -21.6590 -21.3148 -20.5584 -19.4526
   -18.1152 -16.8407 -16.5756 -16.4087 -15.9346 -15.7656 -15.4450 -15.0259
   -14.9570 -14.5843 -13.5110 -13.0387 -12.8506 -12.5798 -12.2534 -12.1288
   -11.3564 -11.0833 -11.0818 -10.5505 -10.5386 -10.4063 -10.0287  -9.5560
    -9.5215  -9.0943  -8.9921  -8.8430  -8.2591  -8.2588  -8.1790  -7.8945
    -7.4990  -7.2639  -6.7039  -6.5012  -6.0633  -5.7059  -5.6313  -5.5538
    -5.3177  -4.4325  -3.9167  -3.8581  -3.0300  -2.5991  -1.5290  -1.4103
    -0.8773  -0.5405   0.0078   0.9403   1.1829   1.5506   1.8696   2.1343
     2.4353   2.6049   2.8150   2.9078   3.0514   3.2599   3.6640   3.7114
     3.7603   3.8772   3.9203   4.0066   4.1800   4.2684   4.7242   5.0037
     5.2523   5.2847   5.6158   5.7084   5.8007   5.8908   5.9344   6.0617
     6.1498   6.1599   6.5804   6.5886   7.0385   7.0704   7.5378   7.5800
     7.6170   7.7116   7.9104   7.9195   8.0322   8.1504   8.1705   8.1708
     8.3576   8.3758   8.4460   8.5266   8.6333   8.7733   8.7955   8.8015
     8.8553   9.1457   9.1517   9.1550   9.2315   9.2589   9.3749   9.4211
     9.6107   9.6738   9.6786   9.7106   9.8434   9.8744  10.0891  10.1216
    10.1304  10.1494  10.2810  10.3022  10.3121  10.3856  10.4561  10.4693
    10.5632  10.7353  10.7549  10.7641  10.7865  10.8301  10.9520  10.9631
    10.9728  11.0263  11.0787  11.0983  11.1056  11.1948  11.2211  11.3833
    11.4034  11.5863  11.6095  11.6606  11.6925  11.7572  11.8015  11.8800
    12.0690  12.1248  12.1527  12.1609  12.2901  12.4528  12.4588  12.5278
    12.6601  12.6701  12.7541  12.7842  12.8737  12.8839  12.9637  12.9738
    13.1282  13.1630  13.2857  13.3172  13.3630  13.4564  13.5414  13.6139
    13.6368  13.6691  13.8305  13.8894  13.8956  14.1155  14.3220  14.5052
    14.6482  14.6711  14.7203  14.7605  14.8091  14.8226  14.9622  14.9863
    15.0646  15.2195  15.2208  15.2545  15.3749  15.4036  15.4922  15.5438
    15.5630  15.6013  15.6233  15.8574  15.8824  16.0432  16.0921  16.0962
    16.1436  16.2197  16.2427  16.2466  16.3144  16.4062  16.4492  16.5255
    16.6319  16.6504  16.6575  16.7028  16.7466  16.8493  16.8734  16.9435
    16.9930  17.0684  17.1140  17.1193  17.2063  17.2570  17.2766  17.3147
    17.3472  17.4484  17.4738  17.4836  17.5052  17.6216  17.6896  17.7642
    17.7862  17.7936  17.8919  17.9278  17.9846  18.2421  18.3114  18.4167
    18.4193  18.5377  18.5421  18.5729  18.5921  18.8454  18.8459  18.8873
    18.8912  18.9714  19.0141  19.0518  19.1675  19.2371  19.3169  19.3416
    19.3490  19.6488  19.6783  19.8229  19.9085  19.9664  20.0425  20.0485
    20.0851  20.2044  20.2340  20.2823  20.2851  20.3716  20.3844  20.4022
    20.5413  20.6450  20.7079  20.7241  20.7455  20.7467  20.9099  20.9598
    21.0055  21.0672  21.0710  21.1164  21.1492  21.3573  21.4070  21.5688
    21.6219  21.6869  21.6950  21.7033  21.7364  21.8522  21.8727  21.8848
    21.9455  21.9805  22.0773  22.1340  22.1704  22.2432  22.2643  22.3251
    22.3294  22.4208  22.4359  22.4698  22.5566  22.7822  22.8235  22.9023
    22.9533  23.0074  23.0600  23.1079  23.1862  23.2912  23.2952  23.3064
    23.3726  23.4181  23.4416  23.5877  23.6457  23.6649  23.6876  23.7650
    23.7670  23.9081  23.9850  24.0807  24.3633  24.4606  24.4784  24.5147
    24.5624  24.6641  24.7793  24.8323  24.8716  24.9142  24.9230  24.9625
    24.9994  25.0153  25.0269  25.1080  25.3391  25.4222  25.4301  25.4807
    25.6105  25.6366  25.7534  25.7809  25.8184  25.8470  25.8521  25.9612
    25.9786  26.0766  26.1743  26.2452  26.2999  26.3031  26.3162  26.3853
    26.4369  26.4517  26.5181  26.5286  26.5398  26.6666  26.7765  26.8229
    26.9364  27.0266  27.1502  27.2412  27.3035  27.3140  27.4074  27.4088
    27.5117  27.5369  27.6059  27.6378  27.6925  27.6979  27.7443  27.7552
    27.9406  28.0692  28.0851  28.1358  28.3131  28.3392  28.3719  28.5527
    28.5704  28.6923  28.7371  28.7476  28.7703  28.8849  28.8883  28.9128
    28.9462  29.0055  29.0279  29.3686  29.3779  29.3997  29.4030  29.4917
    29.5106  29.7901  29.7989  29.8939  29.9453  30.1005  30.2204  30.2423
    30.3017  30.3804  30.4054  30.4085  30.4349  30.4609  30.5507  30.5740
    30.6000  30.6979  30.7418  30.7896  30.8385  30.8498  30.8711  30.9973
    31.0951  31.1719  31.2184  31.2871  31.2890  31.3084  31.3189  31.4614
    31.5055  31.5633  31.6158  31.6456  31.6843  31.7144  31.8458  32.0963
    32.1939  32.2011  32.3525  32.4655  32.5749  32.5950  32.6520  32.6649
    32.8168  32.8421  32.8625  32.8883  32.9505  32.9727  33.0234  33.0341
    33.1369  33.2448  33.2921  33.3190  33.4622  33.5368  33.5629  33.5813
    33.6410  33.7013  33.7421  33.8309

          k = 0.0000 0.0000 0.0141 ( 28365 PWs)   bands (ev):

   -29.8160 -29.8154 -28.2618 -28.2613 -21.6473 -21.3032 -20.5471 -19.4416
   -18.1055 -16.8869 -16.6785 -16.5638 -15.9019 -15.8966 -15.3028 -14.9688
   -14.8083 -14.5657 -13.5966 -12.9698 -12.8187 -12.5707 -12.2575 -12.0852
   -11.4022 -11.0518 -11.0374 -10.5412 -10.5295 -10.4359 -10.0075  -9.5278
    -9.5084  -9.1317  -8.9695  -8.8310  -8.2701  -8.2698  -8.1504  -7.8829
    -7.5560  -7.2469  -6.6931  -6.5370  -6.0880  -5.7498  -5.6343  -5.5571
    -5.3092  -4.5093  -4.0011  -3.8602  -3.1413  -2.6826  -1.4489  -1.2920
    -0.7786  -0.4465  -0.0020   0.9562   1.1982   1.5660   1.8428   2.1493
     2.4514   2.6210   2.8275   2.9237   3.0635   3.2759   3.6801   3.7275
     3.7764   3.8451   3.9345   4.0226   4.1924   4.2832   4.7357   5.0130
     5.2676   5.3035   5.6317   5.6908   5.8148   5.8573   5.9429   6.0101
     6.1795   6.1804   6.5307   6.6174   7.0577   7.0887   7.5128   7.5413
     7.5511   7.7093   7.9234   7.9354   8.0093   8.0957   8.0999   8.1661
     8.1860   8.3774   8.4615   8.5425   8.6232   8.6612   8.7283   8.7549
     8.7577   9.0935   9.1453   9.1529   9.1644   9.2280   9.2993   9.4364
     9.4497   9.4998   9.5940   9.6133   9.7503   9.9614  10.0972  10.1140
    10.2101  10.2206  10.3288  10.3532  10.3757  10.3900  10.3997  10.4389
    10.5943  10.6349  10.6701  10.7275  10.8037  10.8135  10.9098  10.9135
    10.9334  10.9492  11.0801  11.1251  11.1732  11.1837  11.2251  11.3319
    11.4599  11.4838  11.4878  11.5998  11.6285  11.6950  11.8188  11.8695
    11.9127  12.1658  12.2648  12.3059  12.4077  12.5080  12.5832  12.6736
    12.7101  12.7153  12.7300  12.7906  12.9060  12.9459  12.9904  13.0302
    13.1094  13.2084  13.2702  13.3953  13.5125  13.5287  13.6080  13.6848
    13.7079  13.7084  13.7676  13.8955  13.9597  14.1046  14.4374  14.4684
    14.4719  14.7362  14.7614  14.7744  14.9178  14.9624  14.9928  15.0331
    15.0593  15.1590  15.2130  15.2394  15.4177  15.4619  15.4906  15.4943
    15.5525  15.5586  15.5776  15.7451  15.7503  15.8098  16.0455  16.1459
    16.1475  16.1519  16.2343  16.3053  16.3195  16.3270  16.4320  16.4556
    16.5400  16.6527  16.6858  16.7611  16.8152  16.8187  16.9068  16.9514
    16.9874  17.1019  17.1183  17.1247  17.3199  17.3559  17.3718  17.3728
    17.4444  17.4480  17.4672  17.5809  17.6111  17.6495  17.6740  17.6810
    17.7091  17.7976  17.8045  17.9246  18.1674  18.1694  18.2871  18.3448
    18.4907  18.5009  18.5761  18.6985  18.6994  18.7472  18.8580  18.9431
    18.9937  19.0128  19.1092  19.1478  19.1730  19.2308  19.2412  19.4491
    19.5659  19.7028  19.8040  19.8740  19.8926  19.9610  19.9713  20.0503
    20.0911  20.1251  20.2185  20.2564  20.2727  20.4060  20.5090  20.5259
    20.5816  20.5867  20.7137  20.7236  20.7889  20.8433  20.9333  21.0019
    21.0353  21.0799  21.0918  21.1255  21.1468  21.3648  21.3721  21.5411
    21.5691  21.6101  21.6937  21.7446  21.7536  21.8365  21.8742  21.9098
    21.9826  22.0116  22.1342  22.1859  22.1954  22.2168  22.3048  22.3326
    22.3399  22.4193  22.4345  22.4628  22.6353  22.7931  22.8231  22.9819
    22.9979  23.0049  23.0116  23.1131  23.1783  23.1933  23.2237  23.2921
    23.3677  23.4016  23.4388  23.5763  23.5888  23.6197  23.6905  23.7345
    23.7804  23.8992  23.9041  24.3028  24.3054  24.3735  24.4330  24.5826
    24.6211  24.7341  24.7730  24.7933  24.8084  24.8152  24.8625  24.9284
    24.9291  25.0180  25.1149  25.2990  25.3066  25.4696  25.4738  25.5110
    25.6356  25.7242  25.8208  25.8481  25.8666  25.9481  25.9818  26.0261
    26.0521  26.1372  26.1731  26.2177  26.3083  26.3340  26.3410  26.3593
    26.4114  26.4167  26.4892  26.4920  26.5618  26.5815  26.6411  26.7362
    26.9344  26.9456  26.9595  27.1520  27.2435  27.3032  27.4136  27.5194
    27.5227  27.5572  27.6113  27.6915  27.7031  27.7758  27.7974  27.8136
    27.9197  28.0503  28.1830  28.2950  28.3178  28.3384  28.4967  28.5723
    28.5805  28.6629  28.6991  28.7107  28.7534  28.8133  28.8367  28.9050
    28.9434  28.9442  29.0206  29.2424  29.3909  29.4337  29.4499  29.4665
    29.6278  29.8160  29.8619  29.9276  29.9768  30.1376  30.1429  30.1493
    30.1829  30.2371  30.4178  30.4339  30.5007  30.5239  30.5274  30.6138
    30.6464  30.7234  30.7526  30.7996  30.8790  30.8913  30.9705  30.9930
    31.0680  31.2527  31.3258  31.3317  31.3372  31.4103  31.4510  31.4865
    31.5777  31.5917  31.6733  31.7555  31.7667  31.9224  31.9418  31.9953
    32.0160  32.3001  32.3850  32.3872  32.3943  32.4935  32.5536  32.6464
    32.6565  32.7771  32.7890  32.8097  32.8623  32.9251  32.9464  32.9506
    33.0216  33.0434  33.1769  33.2204  33.2982  33.4127  33.4132  33.4845
    33.5122  33.5327  33.5709  33.5953

          k = 0.0000 0.0000 0.0188 ( 28371 PWs)   bands (ev):

   -29.8073 -29.8068 -28.2743 -28.2738 -21.6308 -21.2871 -20.5312 -19.4263
   -18.0921 -16.9969 -16.7366 -16.7264 -16.0447 -15.8904 -15.1464 -14.9165
   -14.6469 -14.5146 -13.6931 -12.8904 -12.7946 -12.5545 -12.2482 -12.0295
   -11.4554 -11.0113 -10.9858 -10.5284 -10.5169 -10.4733  -9.9791  -9.4919
    -9.4900  -9.1788  -8.9385  -8.8141  -8.2854  -8.2851  -8.1156  -7.8668
    -7.6210  -7.2376  -6.6779  -6.5854  -6.1220  -5.8053  -5.6440  -5.5634
    -5.2976  -4.6109  -4.1107  -3.8640  -3.2751  -2.7836  -1.3527  -1.1481
    -0.6490  -0.3211  -0.0146   0.9786   1.2197   1.5875   1.8062   2.1703
     2.4739   2.6434   2.8449   2.9460   3.0803   3.2984   3.7025   3.7502
     3.7989   3.7994   3.9562   4.0449   4.2097   4.3038   4.7516   5.0256
     5.2886   5.3294   5.6535   5.6690   5.8113   5.8323   5.9209   5.9880
     6.2072   6.2212   6.4672   6.6421   7.0845   7.1140   7.3870   7.4879
     7.5676   7.6988   7.8098   7.8931   7.9487   7.9575   8.0934   8.1854
     8.2072   8.4024   8.4143   8.4844   8.5579   8.5642   8.6974   8.6989
     8.7302   9.0457   9.0658   9.0869   9.1754   9.1910   9.2204   9.2263
     9.2925   9.3293   9.4732   9.5284   9.7696  10.0047  10.1165  10.2019
    10.2148  10.2608  10.2969  10.3517  10.3648  10.3661  10.4187  10.4229
    10.5074  10.5983  10.6565  10.6607  10.6642  10.6871  10.8211  10.8238
    10.9421  11.0175  11.1137  11.1336  11.2038  11.2366  11.3183  11.3608
    11.3636  11.4143  11.4295  11.4484  11.6814  11.7383  11.8491  11.8729
    11.9797  12.1842  12.3476  12.3673  12.3707  12.3845  12.5859  12.5865
    12.6756  12.7906  12.8696  12.9257  12.9523  13.0190  13.0964  13.1092
    13.1774  13.2764  13.3666  13.5178  13.6053  13.6237  13.7067  13.7760
    13.7848  13.7903  13.8979  13.9395  14.1068  14.1433  14.2694  14.3063
    14.3973  14.6439  14.7557  14.8560  14.9771  14.9814  15.0161  15.0850
    15.1080  15.1097  15.2610  15.2669  15.4260  15.4451  15.4667  15.4833
    15.4961  15.5787  15.6937  15.7085  15.7593  15.8226  16.0192  16.0698
    16.0977  16.0993  16.1721  16.2024  16.3257  16.3272  16.3677  16.4476
    16.5597  16.6169  16.7064  16.7519  16.8043  16.8357  16.8483  16.9582
    16.9875  17.0315  17.0819  17.1248  17.3033  17.3572  17.3599  17.4128
    17.4559  17.5022  17.6063  17.6440  17.6618  17.6934  17.7022  17.7083
    17.8097  17.8915  17.9593  18.0123  18.1361  18.2198  18.2988  18.3322
    18.5353  18.5727  18.6034  18.6401  18.7939  18.8360  18.8486  18.9363
    19.0470  19.0836  19.1723  19.1961  19.2059  19.2909  19.3014  19.5490
    19.7337  19.7649  19.8108  19.8349  19.8783  19.9436  19.9720  20.0529
    20.0967  20.1719  20.2767  20.2877  20.3041  20.4225  20.4594  20.4737
    20.6479  20.7436  20.8302  20.8349  20.9324  20.9329  20.9676  20.9953
    21.0077  21.0743  21.1687  21.1711  21.1839  21.3388  21.3792  21.4285
    21.5253  21.5518  21.6760  21.6891  21.7900  21.8395  21.8486  21.8973
    21.9390  22.0262  22.1083  22.1663  22.2037  22.2769  22.2899  22.3257
    22.4281  22.4653  22.5080  22.6656  22.7460  22.7693  22.8488  22.9184
    22.9226  22.9938  23.0496  23.0687  23.1387  23.1657  23.2096  23.2727
    23.3694  23.4107  23.4788  23.4869  23.5873  23.5988  23.6313  23.7653
    23.8655  23.8905  23.9665  24.1427  24.2493  24.4559  24.5033  24.5156
    24.5702  24.6484  24.6582  24.7129  24.7768  24.8145  24.8952  24.8992
    25.0695  25.0877  25.2858  25.3415  25.4504  25.5283  25.5324  25.5444
    25.6910  25.6928  25.8355  25.8372  25.8725  25.9185  25.9997  26.1084
    26.1191  26.1597  26.2493  26.2542  26.2786  26.3203  26.3404  26.3474
    26.4023  26.4650  26.4694  26.5035  26.5994  26.6118  26.6853  26.7582
    26.8728  26.9173  26.9532  27.0208  27.2301  27.2501  27.3187  27.4955
    27.5804  27.6050  27.6226  27.6739  27.6785  27.7996  27.8028  27.8637
    27.9246  28.1810  28.2120  28.2204  28.3231  28.3510  28.4602  28.5089
    28.5897  28.6495  28.6738  28.7638  28.7681  28.8183  28.9075  28.9626
    28.9683  28.9996  29.0798  29.2314  29.3929  29.4672  29.4706  29.5062
    29.7028  29.7130  29.8151  29.9277  29.9674  30.0083  30.0967  30.1078
    30.1248  30.1304  30.4305  30.5343  30.5459  30.5655  30.5721  30.6279
    30.6955  30.7343  30.7935  30.9475  30.9555  30.9719  31.0191  31.0955
    31.1721  31.1859  31.3641  31.3783  31.3881  31.4041  31.4660  31.5894
    31.6058  31.6339  31.7075  31.7160  31.8188  31.8840  31.9114  31.9262
    32.1075  32.1895  32.2372  32.2685  32.4113  32.4587  32.4956  32.5365
    32.6184  32.6327  32.7261  32.7588  32.7890  32.7941  32.8169  32.8611
    32.9310  32.9730  32.9971  33.0217  33.2154  33.2369  33.2619  33.2803
    33.3390  33.4214  33.4335  33.5548

          k = 0.0000 0.0000 0.0235 ( 28381 PWs)   bands (ev):

   -29.7962 -29.7957 -28.2901 -28.2896 -21.6097 -21.2663 -20.5108 -19.4066
   -18.0752 -17.1509 -16.8926 -16.7639 -16.1840 -15.9127 -14.9890 -14.8828
   -14.4767 -14.4206 -13.7947 -12.8021 -12.7976 -12.5210 -12.2175 -11.9649
   -11.5142 -10.9653 -10.9286 -10.5148 -10.5119 -10.5009  -9.9448  -9.4664
    -9.4508  -9.2320  -8.8998  -8.7924  -8.3049  -8.3046  -8.0780  -7.8461
    -7.6916  -7.2385  -6.6585  -6.6450  -6.1649  -5.8727  -5.6592  -5.5733
    -5.2829  -4.7326  -4.2396  -3.8708  -3.4214  -2.8956  -1.2465  -0.9883
    -0.4943  -0.1692  -0.0287   1.0073   1.2473   1.6152   1.7603   2.1971
     2.5029   2.6723   2.8671   2.9746   3.1018   3.3272   3.7313   3.7417
     3.7793   3.8278   3.9845   4.0734   4.2316   4.3299   4.7717   5.0413
     5.3146   5.3623   5.6425   5.6833   5.7542   5.8299   5.8850   6.0073
     6.2387   6.2750   6.3955   6.6540   7.1186   7.1460   7.2517   7.4206
     7.5376   7.5725   7.6569   7.7539   7.9682   7.9859   8.1074   8.2089
     8.2342   8.2472   8.3475   8.4280   8.5117   8.5889   8.6307   8.6761
     8.7451   8.9091   8.9220   8.9335   8.9841   9.0279   9.1496   9.2059
     9.2373   9.2502   9.4647   9.4652   9.8355   9.8800  10.0566  10.0984
    10.1463  10.1464  10.2617  10.2717  10.3117  10.3799  10.4226  10.4284
    10.4433  10.4683  10.5733  10.6143  10.6764  10.8169  10.8190  10.8644
    10.9174  11.0649  11.1061  11.1517  11.1822  11.2248  11.2257  11.3082
    11.3131  11.4427  11.4720  11.6044  11.6305  11.7344  11.8781  11.9792
    12.0630  12.1428  12.2205  12.2677  12.3647  12.4287  12.4909  12.5905
    12.7317  12.8497  12.8760  12.9238  13.0595  13.1269  13.2854  13.2910
    13.3260  13.4156  13.4566  13.5930  13.6548  13.6911  13.8088  13.8341
    13.8445  14.0561  14.0574  14.0641  14.0922  14.1808  14.1964  14.2745
    14.3800  14.4834  14.6522  14.8045  14.8682  14.9310  15.0585  15.1234
    15.1538  15.1549  15.2112  15.2185  15.2403  15.5377  15.5806  15.6032
    15.6343  15.6793  15.7202  15.7732  15.8827  15.9419  15.9663  15.9745
    16.0234  16.0450  16.1552  16.1834  16.2569  16.3012  16.3669  16.4854
    16.5424  16.5862  16.6502  16.7008  16.7176  16.7591  16.7704  16.8463
    16.9426  17.0884  17.0955  17.2058  17.2115  17.3029  17.3286  17.4433
    17.4801  17.5132  17.5839  17.6414  17.6664  17.7950  17.8768  17.9148
    17.9277  17.9738  18.1184  18.1593  18.1652  18.2463  18.3013  18.4802
    18.5931  18.5986  18.6360  18.7723  18.8023  18.8443  18.9481  18.9807
    19.1470  19.1707  19.1743  19.1924  19.1992  19.2985  19.3775  19.5698
    19.7110  19.8500  19.8638  19.8668  19.8684  19.9404  19.9595  20.0764
    20.1764  20.2819  20.3532  20.3696  20.3760  20.4192  20.5048  20.5362
    20.7396  20.7706  20.9003  20.9546  20.9843  20.9981  21.0329  21.0347
    21.1138  21.1490  21.1894  21.1923  21.2511  21.2966  21.3078  21.4643
    21.4971  21.5007  21.6328  21.6373  21.7660  21.7886  21.8649  21.8901
    21.8970  21.9201  22.0878  22.1680  22.2374  22.2942  22.3306  22.3855
    22.5235  22.5451  22.5568  22.6163  22.7798  22.7911  22.8209  22.8619
    22.9458  22.9983  23.0648  23.1279  23.1472  23.1931  23.2453  23.2488
    23.3754  23.4020  23.4406  23.5207  23.5715  23.6596  23.6804  23.7524
    23.8123  23.8719  24.0076  24.2071  24.2078  24.2634  24.2704  24.5167
    24.5351  24.5751  24.7301  24.7486  24.8204  24.8823  24.9107  24.9992
    25.0521  25.1464  25.3196  25.3731  25.5421  25.5556  25.5999  25.6227
    25.6623  25.7306  25.8308  25.8388  25.8533  25.9496  26.0393  26.0402
    26.0860  26.1933  26.1949  26.2004  26.3084  26.3350  26.3467  26.3976
    26.4254  26.4986  26.5949  26.6322  26.6944  26.6990  26.7366  26.7427
    26.9147  26.9964  26.9990  27.1090  27.1403  27.1776  27.2542  27.4606
    27.5000  27.5486  27.5572  27.7131  27.7346  27.8218  27.8313  27.8367
    27.9644  28.1323  28.1394  28.1884  28.2279  28.4269  28.4378  28.4520
    28.5568  28.6216  28.7408  28.7509  28.8047  28.9592  28.9677  28.9919
    29.0037  29.2058  29.2309  29.3084  29.4255  29.4674  29.5093  29.5693
    29.5734  29.6332  29.6720  29.9275  29.9314  29.9490  30.0052  30.0948
    30.1740  30.2089  30.3302  30.4602  30.5881  30.6063  30.6297  30.7091
    30.7165  30.7619  30.8078  30.8273  30.9964  31.0128  31.1151  31.1730
    31.2260  31.2580  31.3188  31.4048  31.4207  31.4589  31.4738  31.5800
    31.5814  31.6185  31.6894  31.7572  31.7597  31.8591  31.8642  31.9208
    32.0031  32.1225  32.1363  32.1724  32.2282  32.3424  32.4170  32.4928
    32.5345  32.5774  32.6143  32.6453  32.6639  32.7037  32.7764  32.7915
    32.8151  32.8550  32.8931  32.9986  33.0827  33.1115  33.1243  33.1828
    33.2583  33.3173  33.3282  33.4317

          k = 0.0000 0.0000 0.0282 ( 28418 PWs)   bands (ev):

   -29.7827 -29.7822 -28.3092 -28.3088 -21.5839 -21.2409 -20.4860 -19.3827
   -18.0551 -17.3204 -17.0598 -16.7912 -16.3102 -15.9593 -14.8641 -14.8382
   -14.3014 -14.2912 -13.8940 -12.8346 -12.7053 -12.4659 -12.1639 -11.8943
   -11.5775 -10.9188 -10.8666 -10.5552 -10.4920 -10.4814  -9.9070  -9.4376
    -9.4060  -9.2872  -8.8547  -8.7660  -8.3285  -8.3282  -8.0405  -7.8208
    -7.7659  -7.2506  -6.7145  -6.6349  -6.2161  -5.9524  -5.6793  -5.5878
    -5.2653  -4.8702  -4.3828  -3.8837  -3.5711  -3.0146  -1.1342  -0.8194
    -0.3199  -0.0488   0.0113   1.0423   1.2811   1.6489   1.7061   2.2296
     2.5382   2.7076   2.8939   3.0094   3.1278   3.3624   3.6733   3.7665
     3.8148   3.8632   4.0193   4.1083   4.2580   4.3615   4.7957   5.0591
     5.3440   5.4018   5.6158   5.6885   5.7182   5.7709   5.9057   6.0373
     6.2697   6.3262   6.3402   6.6420   7.1160   7.1598   7.1838   7.2791
     7.3408   7.4469   7.6083   7.6979   7.9701   8.0202   8.0700   8.1329
     8.1769   8.2545   8.2665   8.4399   8.5411   8.5450   8.5785   8.6273
     8.6981   8.7189   8.7367   8.7540   8.8036   8.8809   9.0001   9.2339
     9.2838   9.2846   9.4102   9.4673   9.7405   9.7978   9.8269   9.8827
     9.9917  10.0682  10.1982  10.2131  10.2927  10.3349  10.3427  10.4054
    10.4123  10.4683  10.4760  10.5420  10.6940  10.8368  10.8914  10.9615
    10.9840  11.0171  11.1288  11.1783  11.1799  11.2234  11.2401  11.3051
    11.3368  11.4937  11.5394  11.6100  11.6204  11.7995  11.8716  11.9178
    11.9234  12.0540  12.2468  12.2581  12.3053  12.4404  12.5597  12.7574
    12.7820  12.8298  12.8929  12.9415  13.1130  13.3603  13.4062  13.4113
    13.4451  13.5376  13.5593  13.6345  13.6411  13.8274  13.8319  13.9276
    13.9706  13.9715  14.0056  14.0347  14.2408  14.3557  14.3683  14.3787
    14.4348  14.5441  14.5765  14.6980  14.7132  14.8532  14.8908  15.0136
    15.1362  15.1658  15.2321  15.2557  15.4207  15.6047  15.6623  15.6896
    15.7268  15.7539  15.7736  15.8210  15.8577  15.9194  15.9527  15.9813
    16.0360  16.1510  16.1532  16.2419  16.3153  16.3263  16.4061  16.4708
    16.4874  16.4993  16.5318  16.5592  16.6691  16.6740  16.7604  16.7937
    16.8802  17.1357  17.1413  17.1524  17.1740  17.3007  17.3734  17.3783
    17.4593  17.5135  17.6306  17.6388  17.8073  17.8295  17.8667  17.8930
    18.0455  18.1489  18.1931  18.2555  18.3427  18.4274  18.4967  18.5514
    18.5978  18.6957  18.7545  18.8257  18.8920  18.9024  18.9805  18.9844
    19.1154  19.1702  19.2255  19.2578  19.3322  19.3948  19.4599  19.4932
    19.7330  19.7423  19.7961  19.9100  19.9511  20.0482  20.0686  20.0725
    20.2627  20.3371  20.3788  20.4689  20.4716  20.4882  20.7183  20.7411
    20.8028  20.8386  20.8793  20.9702  21.0169  21.0385  21.0395  21.0472
    21.1155  21.1796  21.1840  21.2167  21.2755  21.3032  21.3930  21.5362
    21.5825  21.5853  21.6007  21.6110  21.6530  21.7797  21.8043  21.8260
    21.8672  21.9451  22.1693  22.1699  22.2715  22.3004  22.3318  22.3654
    22.4374  22.4758  22.4926  22.7988  22.8359  22.8637  22.8655  22.8730
    22.8830  22.9245  22.9500  23.1300  23.1542  23.2840  23.3700  23.3823
    23.4274  23.4497  23.5105  23.5143  23.5577  23.5976  23.7603  23.7863
    23.8083  23.8101  23.9781  24.0255  24.1580  24.1668  24.4407  24.4770
    24.4826  24.6149  24.6806  24.6949  24.8989  24.9376  24.9571  25.0422
    25.0423  25.1842  25.3487  25.4284  25.5141  25.5302  25.5849  25.6350
    25.6461  25.6581  25.7439  25.8938  25.9369  26.0032  26.0094  26.1241
    26.1288  26.1994  26.2682  26.3011  26.3036  26.3077  26.3752  26.4055
    26.5293  26.5359  26.6366  26.6429  26.7383  26.7574  26.8194  26.8350
    26.9673  27.0369  27.1110  27.1153  27.1787  27.2080  27.3803  27.4022
    27.4539  27.4726  27.5486  27.6222  27.7696  27.8068  27.8623  27.8807
    28.0203  28.0860  28.0958  28.1377  28.1413  28.2439  28.4438  28.4782
    28.5380  28.5973  28.6085  28.9459  28.9723  28.9901  29.0027  29.1180
    29.1421  29.1815  29.3204  29.3317  29.3854  29.4758  29.5007  29.6167
    29.6248  29.6292  29.7652  29.8722  29.9067  29.9154  29.9560  30.0673
    30.0810  30.1766  30.2996  30.3449  30.5226  30.5529  30.6348  30.6856
    30.7087  30.7437  30.7948  30.8107  30.9780  31.0594  31.0901  31.1829
    31.2382  31.2940  31.3852  31.4543  31.4612  31.4720  31.4893  31.5299
    31.5778  31.6493  31.6513  31.6532  31.6638  31.7247  31.8074  31.8084
    31.9615  31.9869  32.0385  32.0984  32.1043  32.3488  32.3681  32.3798
    32.3896  32.5037  32.5441  32.5448  32.5592  32.5790  32.5959  32.6384
    32.7416  32.7426  32.8231  32.8826  32.8907  32.8939  32.9948  33.0621
    33.0829  33.1385  33.1396  33.2156

          k = 0.0000 0.0000 0.0329 ( 28406 PWs)   bands (ev):

   -29.7669 -29.7663 -28.3315 -28.3310 -21.5534 -21.2109 -20.4566 -19.3544
   -18.0327 -17.4948 -17.2260 -16.8386 -16.4102 -16.0260 -14.8499 -14.7000
   -14.1473 -14.1402 -13.9600 -12.8971 -12.6011 -12.3953 -12.0909 -11.8197
   -11.6436 -10.8816 -10.8002 -10.5843 -10.4687 -10.4585  -9.8698  -9.4035
    -9.3588  -9.3396  -8.8050  -8.7348  -8.3558  -8.3554  -8.0057  -7.8426
    -7.7909  -7.2743  -6.7925  -6.6071  -6.2749  -6.0444  -5.7031  -5.6074
    -5.2454  -5.0199  -4.5356  -3.9145  -3.7088  -3.1379  -1.0183  -0.6478
    -0.1300  -0.0583   0.2027   1.0838   1.3208   1.6447   1.6886   2.2678
     2.5799   2.7493   2.9253   3.0505   3.1583   3.4039   3.5954   3.8080
     3.8568   3.9050   4.0606   4.1493   4.2885   4.3983   4.8232   5.0778
     5.3718   5.4478   5.5894   5.6198   5.7024   5.7595   5.9422   6.0733
     6.2382   6.3261   6.4145   6.5934   6.9536   7.0822   7.2079   7.2137
     7.2310   7.2626   7.5295   7.7088   7.8317   7.9763   8.0599   8.0806
     8.2018   8.2888   8.2992   8.3820   8.3862   8.4446   8.4515   8.5399
     8.5501   8.5921   8.6181   8.6661   8.7319   8.8531   8.8864   9.2657
     9.2811   9.3265   9.3534   9.4687   9.5529   9.5928   9.5992   9.7404
     9.8261   9.9560  10.0166  10.1827  10.2490  10.3107  10.3474  10.3786
    10.3865  10.4706  10.4918  10.5142  10.5498  10.6870  10.8791  11.0136
    11.0557  11.1314  11.1608  11.2280  11.2563  11.2567  11.3105  11.3245
    11.4031  11.4816  11.5032  11.5613  11.7194  11.7208  11.7770  11.8623
    11.9111  11.9560  12.1898  12.2898  12.3194  12.5764  12.7048  12.7527
    12.7528  12.9048  12.9892  13.0868  13.1691  13.2802  13.4108  13.4783
    13.6528  13.6648  13.6660  13.7304  13.7441  13.7601  13.8048  13.8330
    13.8902  14.0209  14.0335  14.1792  14.3193  14.4260  14.5223  14.5325
    14.5338  14.5905  14.6261  14.6682  14.7366  14.7816  14.8016  15.0834
    15.1443  15.2060  15.2510  15.2518  15.5150  15.6073  15.6266  15.7251
    15.7323  15.7513  15.7738  15.7913  15.9775  15.9816  15.9874  16.0066
    16.1189  16.1452  16.1775  16.2808  16.3370  16.3635  16.3842  16.4024
    16.4133  16.5073  16.5207  16.5438  16.6797  16.7099  16.7690  16.8055
    16.8910  17.0296  17.1707  17.1746  17.2287  17.3121  17.3325  17.3374
    17.4445  17.5352  17.5921  17.6873  17.7429  17.8184  17.9792  17.9911
    18.0897  18.2886  18.3096  18.4409  18.4571  18.4936  18.5118  18.5679
    18.7564  18.8069  18.8427  18.8796  18.9066  19.0011  19.0196  19.1168
    19.1330  19.2356  19.2964  19.3204  19.4104  19.4957  19.5880  19.6033
    19.6185  19.8151  19.8407  19.9352  19.9466  20.0070  20.1866  20.2030
    20.2487  20.3387  20.4809  20.5072  20.5714  20.6963  20.8062  20.8193
    20.8419  20.8743  20.9257  21.0104  21.0351  21.0366  21.1296  21.1328
    21.1540  21.1580  21.1960  21.2414  21.2492  21.3118  21.4773  21.4947
    21.5039  21.6166  21.6183  21.7074  21.7318  21.7623  21.7692  21.8812
    22.0059  22.0252  22.0642  22.2048  22.2393  22.2865  22.3456  22.3980
    22.4124  22.4269  22.4361  22.6911  22.7624  22.7892  22.8581  22.9817
    23.0018  23.0021  23.0129  23.1558  23.1647  23.2930  23.3692  23.3965
    23.4118  23.4801  23.5767  23.5899  23.5927  23.6421  23.6686  23.7456
    23.8395  23.8527  23.9934  24.0961  24.1522  24.3114  24.3618  24.3931
    24.5857  24.5894  24.7309  24.7491  24.7922  24.8376  24.9924  25.0276
    25.0450  25.1765  25.4023  25.4315  25.5198  25.5658  25.5791  25.5808
    25.6630  25.6723  25.6945  25.8291  25.8920  26.0467  26.0467  26.2425
    26.2701  26.2754  26.2783  26.3148  26.3458  26.3933  26.4332  26.5166
    26.5614  26.5806  26.6424  26.6577  26.7549  26.7587  26.8097  26.9196
    26.9901  27.0896  27.1457  27.1599  27.2612  27.3038  27.3698  27.4485
    27.5175  27.5576  27.5749  27.6361  27.7552  27.8570  27.8838  27.9451
    28.0431  28.0725  28.0935  28.0979  28.1003  28.1880  28.3394  28.3635
    28.4303  28.6334  28.7154  28.9295  28.9659  29.0437  29.0582  29.1036
    29.1225  29.2399  29.2666  29.2708  29.4302  29.5482  29.5788  29.6388
    29.6623  29.6971  29.7300  29.8139  29.8811  29.9246  29.9530  29.9983
    30.0869  30.1105  30.1670  30.2948  30.3911  30.5013  30.6353  30.6456
    30.6857  30.7291  30.8235  30.8656  30.8657  31.0025  31.1125  31.1352
    31.1454  31.1978  31.2721  31.2849  31.3151  31.3647  31.5140  31.5149
    31.5200  31.6056  31.6158  31.6437  31.7065  31.7119  31.7666  31.8054
    31.9192  31.9528  32.0352  32.0592  32.0622  32.1047  32.1879  32.2639
    32.2650  32.2775  32.2826  32.3467  32.3502  32.3610  32.4528  32.5012
    32.5095  32.5977  32.6521  32.6932  32.7744  32.8624  32.8935  32.9009
    32.9291  32.9788  32.9831  33.0105

          k = 0.0000 0.0000 0.0376 ( 28414 PWs)   bands (ev):

   -29.7487 -29.7481 -28.3568 -28.3563 -21.5182 -21.1764 -20.4227 -19.3220
   -18.0094 -17.6703 -17.3884 -16.9192 -16.4729 -16.1090 -14.8337 -14.5826
   -14.1427 -13.9778 -13.8561 -12.9752 -12.4916 -12.3145 -12.0038 -11.7486
   -11.7042 -10.8705 -10.7302 -10.5850 -10.4420 -10.4324  -9.8401  -9.3817
    -9.3642  -9.3099  -8.7531  -8.6989  -8.3869  -8.3861  -7.9756  -7.9203
    -7.7564  -7.3095  -6.8779  -6.5751  -6.3404  -6.1489  -5.7300  -5.6325
    -5.2239  -5.1785  -4.6941  -3.9963  -3.7993  -3.2636  -0.9002  -0.4825
    -0.0600   0.0715   0.4120   1.1316   1.3666   1.5773   1.7342   2.3115
     2.6279   2.7973   2.9610   3.0977   3.1931   3.4518   3.5091   3.8558
     3.9052   3.9532   4.1082   4.1963   4.3228   4.4399   4.8539   5.0955
     5.3804   5.5002   5.5658   5.5670   5.6354   5.8069   5.9851   6.1136
     6.1747   6.3683   6.4539   6.5392   6.7382   6.9877   7.0015   7.1327
     7.2624   7.2894   7.3969   7.6238   7.7439   7.8827   8.1010   8.1072
     8.1312   8.1718   8.2371   8.2389   8.3295   8.3340   8.3380   8.3810
     8.4267   8.5752   8.5792   8.6313   8.7038   8.7900   8.8964   9.1573
     9.2936   9.2945   9.3340   9.3397   9.3749   9.4682   9.4711   9.5080
     9.7044   9.8638   9.8952  10.1485  10.1806  10.1874  10.2581  10.3023
    10.4233  10.4806  10.5152  10.5421  10.5514  10.5858  10.8962  10.9696
    11.0598  11.1394  11.1599  11.1921  11.2846  11.2945  11.3475  11.3925
    11.4231  11.5017  11.5074  11.5459  11.6129  11.6796  11.8184  11.8219
    11.9886  12.0025  12.2206  12.3452  12.3601  12.5457  12.7258  12.7262
    12.8511  12.8764  13.1270  13.1878  13.2063  13.3296  13.3745  13.5083
    13.6202  13.6525  13.6570  13.6824  13.7091  13.8352  13.9110  13.9377
    14.0370  14.0376  14.0607  14.1905  14.3600  14.3626  14.4968  14.5301
    14.5660  14.6548  14.6591  14.8419  14.8790  15.0165  15.0512  15.1386
    15.1485  15.2266  15.2858  15.3472  15.4787  15.5345  15.6151  15.6692
    15.6890  15.7903  15.8127  15.8532  15.8727  15.9506  16.1020  16.1056
    16.1352  16.1732  16.2168  16.2266  16.2670  16.2803  16.3735  16.3831
    16.4087  16.5160  16.6101  16.6377  16.7640  16.8073  16.8726  16.8831
    16.9798  16.9971  17.2105  17.2127  17.2689  17.2902  17.3045  17.3919
    17.4620  17.4775  17.5549  17.6699  17.8500  17.8579  18.0244  18.0676
    18.0971  18.2790  18.4175  18.4753  18.5012  18.5136  18.5159  18.7055
    18.7246  18.7691  18.9719  18.9827  19.0022  19.1276  19.1508  19.2030
    19.2465  19.3658  19.3949  19.4614  19.5232  19.5540  19.6828  19.7060
    19.7874  19.8992  19.9225  19.9665  19.9779  20.0514  20.1221  20.2518
    20.3411  20.3608  20.5355  20.5388  20.6346  20.6562  20.7657  20.8337
    20.8901  20.9528  20.9698  21.0407  21.0833  21.1142  21.1459  21.1547
    21.1590  21.2766  21.2909  21.3133  21.3484  21.3766  21.4084  21.4884
    21.4934  21.6115  21.6841  21.6993  21.7212  21.8503  21.8619  21.9155
    21.9541  22.1289  22.2031  22.2351  22.2475  22.2629  22.2808  22.3349
    22.4905  22.4967  22.5156  22.5928  22.6034  22.7941  22.7974  23.0347
    23.0754  23.0984  23.1217  23.1560  23.1695  23.1949  23.3210  23.3480
    23.4088  23.4661  23.5184  23.5250  23.6510  23.6877  23.7459  23.8128
    23.8784  24.0713  24.1794  24.2694  24.2701  24.2810  24.2902  24.3864
    24.5326  24.5935  24.6463  24.6948  24.7794  24.9078  24.9542  24.9996
    25.1035  25.2110  25.2372  25.3124  25.4090  25.6027  25.6750  25.6796
    25.7021  25.7478  25.8196  25.8565  25.8656  26.0356  26.0596  26.2408
    26.2657  26.2937  26.3231  26.3380  26.3556  26.4207  26.4997  26.5980
    26.6285  26.6590  26.7063  26.7078  26.7637  26.8198  26.8522  26.9311
    27.0214  27.1230  27.2078  27.2157  27.3136  27.3265  27.3982  27.4910
    27.5268  27.6113  27.7810  27.7983  27.8073  27.8407  27.8881  27.9734
    28.0602  28.0770  28.1177  28.1457  28.1571  28.2404  28.2899  28.3493
    28.3676  28.5376  28.7841  28.8171  28.8196  28.8550  28.9607  29.0149
    29.0528  29.1766  29.2468  29.3432  29.4135  29.5269  29.5482  29.6693
    29.6718  29.6988  29.8139  29.8157  29.8405  29.9050  29.9754  29.9924
    30.1280  30.1318  30.1784  30.2182  30.3446  30.4495  30.4910  30.5372
    30.6176  30.6718  30.7640  30.7900  30.8737  30.9309  30.9394  31.0109
    31.0658  31.1146  31.2113  31.2318  31.2580  31.3296  31.4119  31.4258
    31.4443  31.5292  31.5299  31.5532  31.5673  31.6084  31.6419  31.6706
    31.7259  31.7610  31.8339  31.8749  31.9049  31.9485  32.0416  32.0496
    32.0813  32.1161  32.1564  32.2481  32.3116  32.3160  32.3710  32.3818
    32.3822  32.4097  32.6402  32.6507  32.7014  32.7051  32.7805  32.7993
    32.8382  32.8505  32.8883  32.9407

          k = 0.0000 0.0000 0.0423 ( 28406 PWs)   bands (ev):

   -29.7283 -29.7277 -28.3849 -28.3844 -21.4783 -21.1372 -20.3844 -19.2854
   -17.9894 -17.8448 -17.5424 -17.0309 -16.5012 -16.2046 -14.8126 -14.5083
   -14.1871 -13.8110 -13.6597 -13.0617 -12.3812 -12.2254 -11.9078 -11.7832
   -11.6539 -10.8948 -10.6572 -10.5472 -10.4123 -10.4032  -9.8284  -9.4034
    -9.3197  -9.2594  -8.7022  -8.6587  -8.4214  -8.4197  -7.9969  -7.9519
    -7.7173  -7.3557  -6.9697  -6.5391  -6.4120  -6.2655  -5.7597  -5.6629
    -5.3432  -5.2034  -4.8534  -4.1330  -3.8374  -3.3907  -0.7810  -0.3448
    -0.0311   0.2817   0.6343   1.1857   1.4184   1.5055   1.7856   2.3604
     2.6821   2.8518   3.0006   3.1504   3.2321   3.4161   3.5059   3.9098
     3.9601   4.0077   4.1621   4.2490   4.3602   4.4860   4.8870   5.1091
     5.3361   5.5485   5.5588   5.5646   5.5719   5.8603   6.0317   6.1193
     6.1549   6.3219   6.4131   6.5258   6.6312   6.7743   6.9224   7.0170
     7.2371   7.3229   7.3449   7.4314   7.7235   7.8223   7.8872   7.9043
     8.0196   8.1397   8.1666   8.2014   8.2211   8.2391   8.3257   8.3544
     8.4184   8.4467   8.5482   8.6558   8.7187   8.7484   8.9059   8.9450
     9.0888   9.1263   9.2307   9.2449   9.2791   9.4128   9.4290   9.5311
     9.5349   9.7657   9.8225   9.9581  10.0694  10.1743  10.1786  10.3097
    10.3503  10.4731  10.5684  10.5802  10.5926  10.6253  10.7707  10.9752
    10.9883  11.0908  11.1646  11.1823  11.2631  11.3050  11.3155  11.3316
    11.4084  11.4404  11.4590  11.4661  11.6438  11.9104  11.9300  11.9389
    12.0415  12.0563  12.3270  12.3745  12.4112  12.4857  12.6883  12.6886
    12.7278  12.8394  13.1188  13.2005  13.3622  13.3729  13.4318  13.5121
    13.5390  13.5698  13.5833  13.6417  13.7879  13.8612  13.9656  14.0118
    14.0226  14.1745  14.2120  14.2538  14.3202  14.4048  14.4374  14.5508
    14.5845  14.6105  14.9153  14.9776  14.9886  15.1125  15.1849  15.2883
    15.2968  15.3380  15.3456  15.3700  15.4158  15.5899  15.6632  15.6673
    15.7040  15.7608  15.7885  15.8327  15.8732  15.9382  16.0286  16.0496
    16.1442  16.1489  16.1755  16.2673  16.2947  16.3112  16.3774  16.4955
    16.5164  16.5423  16.6840  16.7176  16.7212  16.8895  16.9075  16.9309
    17.1149  17.1341  17.2548  17.2718  17.2839  17.2922  17.3512  17.4908
    17.5135  17.5688  17.6402  17.7187  17.9028  17.9301  18.0115  18.0121
    18.0680  18.2677  18.4049  18.4587  18.4714  18.5024  18.5328  18.7371
    18.7817  18.9161  18.9807  19.0008  19.1453  19.2043  19.2386  19.3487
    19.4025  19.4039  19.5668  19.7080  19.7148  19.7749  19.8190  19.8562
    19.8597  19.8873  19.9081  20.0213  20.0862  20.1275  20.2232  20.2914
    20.3285  20.4148  20.4318  20.5261  20.6826  20.7104  20.7867  20.8614
    20.8645  20.9415  21.0176  21.0236  21.1063  21.1432  21.1652  21.1751
    21.1759  21.2301  21.3707  21.3893  21.3910  21.5298  21.5418  21.5511
    21.5523  21.5865  21.6885  21.7813  21.8556  21.8586  21.8804  21.9802
    22.0185  22.1167  22.1252  22.1915  22.2148  22.2946  22.3954  22.4293
    22.4370  22.4996  22.5795  22.5882  22.8136  22.8150  22.8749  22.9299
    23.0360  23.0378  23.0433  23.0777  23.2153  23.2257  23.2842  23.2915
    23.4626  23.5256  23.5699  23.5953  23.7313  23.7988  23.8649  23.8677
    23.9358  24.0764  24.1830  24.1831  24.3148  24.3359  24.3931  24.5346
    24.5787  24.6043  24.6274  24.7266  24.7811  24.8223  24.8803  25.0521
    25.0748  25.1359  25.2895  25.3570  25.3645  25.5959  25.6666  25.7301
    25.7579  25.7615  25.8142  25.9428  25.9790  26.0275  26.1320  26.1326
    26.2813  26.2971  26.3153  26.3522  26.4172  26.5444  26.5663  26.6020
    26.6410  26.6674  26.7275  26.7346  26.8120  26.8902  26.8990  26.9049
    27.1853  27.1968  27.2425  27.2630  27.3443  27.4470  27.4751  27.5024
    27.6520  27.7112  27.7859  27.8060  27.8144  27.8587  27.9833  28.0333
    28.0375  28.0631  28.1725  28.2482  28.2715  28.2721  28.3542  28.3612
    28.3900  28.4379  28.5610  28.6306  28.6575  28.7592  28.7970  28.8758
    29.1106  29.1229  29.1856  29.2749  29.3099  29.4421  29.5301  29.5812
    29.6225  29.7587  29.7781  29.7960  29.8146  29.9294  29.9626  30.0775
    30.1074  30.1117  30.1687  30.2142  30.3131  30.3295  30.3639  30.4835
    30.5134  30.5310  30.6788  30.7449  30.8294  30.8551  30.8933  30.9629
    30.9686  30.9843  31.0821  31.0882  31.1068  31.1463  31.1817  31.1864
    31.3217  31.3235  31.3323  31.3383  31.4068  31.4697  31.5120  31.5461
    31.6135  31.6663  31.7216  31.7369  31.7457  31.8057  31.8382  31.8457
    31.9461  31.9871  32.0540  32.1861  32.2036  32.2721  32.2782  32.3212
    32.4435  32.4717  32.5646  32.6040  32.6307  32.6337  32.6718  32.7508
    32.7951  32.8101  32.8269  32.8625

          k = 0.0000 0.0000 0.0469 ( 28428 PWs)   bands (ev):

   -29.7057 -29.7052 -28.4156 -28.4151 -21.4338 -21.0935 -20.3417 -19.2448
   -18.0174 -17.9853 -17.6748 -17.1615 -16.5078 -16.3097 -14.7862 -14.5144
   -14.1668 -13.6461 -13.4462 -13.1500 -12.2797 -12.1287 -11.8372 -11.8071
   -11.5701 -10.9444 -10.5815 -10.4808 -10.3796 -10.3711  -9.8438  -9.3960
    -9.2699  -9.2075  -8.6571  -8.6150  -8.4590  -8.4553  -8.0696  -7.9359
    -7.6737  -7.4119  -7.0672  -6.4992  -6.4887  -6.3940  -5.7920  -5.6986
    -5.5120  -5.1952  -5.0006  -4.2889  -3.8578  -3.5180  -0.6614  -0.2700
     0.0631   0.4973   0.8671   1.2461   1.4313   1.4761   1.8427   2.4143
     2.7425   2.9126   3.0440   3.2047   3.2751   3.3213   3.5663   3.9700
     4.0214   4.0686   4.2223   4.3071   4.3999   4.5358   4.9213   5.1157
     5.2483   5.5129   5.5412   5.6046   5.6235   5.9185   6.0624   6.0759
     6.1346   6.1932   6.3951   6.4331   6.5802   6.7182   6.8499   6.8894
     7.0674   7.2835   7.3879   7.4047   7.5603   7.6447   7.6472   7.8111
     7.8696   8.0522   8.0689   8.1032   8.1578   8.2255   8.2990   8.3701
     8.4659   8.4707   8.4793   8.5702   8.7102   8.7534   8.8008   8.8377
     8.8444   8.9010   8.9959   9.2177   9.2418   9.3559   9.4405   9.4880
     9.5774   9.6377   9.7246   9.7580   9.9801  10.1048  10.1573  10.2628
    10.4033  10.5126  10.5886  10.5914  10.6200  10.6278  10.6757  10.8107
    11.0093  11.0250  11.0314  11.1700  11.2211  11.2220  11.3108  11.3120
    11.3495  11.4680  11.5147  11.5334  11.6649  12.0062  12.0719  12.0736
    12.1168  12.1874  12.3635  12.4186  12.4420  12.4638  12.5762  12.6000
    12.6415  12.7552  13.1284  13.1303  13.1758  13.3573  13.4239  13.4762
    13.5457  13.5746  13.7081  13.7614  13.8472  13.8563  13.8735  13.9252
    14.0472  14.3180  14.3183  14.3819  14.4298  14.4444  14.5423  14.5579
    14.6445  14.6758  14.8349  14.9567  15.0925  15.1380  15.1992  15.3122
    15.3429  15.4309  15.4790  15.4973  15.6051  15.6386  15.6788  15.6885
    15.7607  15.7675  15.7802  15.9038  15.9518  15.9656  16.0630  16.0731
    16.0912  16.1075  16.1376  16.2130  16.3786  16.3963  16.4068  16.5296
    16.6427  16.6494  16.6891  16.7561  16.8631  16.8937  16.9177  17.0462
    17.0582  17.1447  17.2944  17.3396  17.4038  17.4680  17.4926  17.5734
    17.6163  17.6699  17.8484  17.8505  17.9098  17.9495  17.9861  18.0083
    18.0487  18.2648  18.3121  18.4273  18.4306  18.4496  18.6262  18.8678
    18.8793  18.8893  18.8919  19.0650  19.2419  19.3164  19.4179  19.4223
    19.4934  19.5442  19.8018  19.8105  19.8248  19.8633  19.8710  19.8849
    19.9966  20.0238  20.0403  20.1019  20.1297  20.2060  20.2529  20.3259
    20.4233  20.4670  20.4824  20.6576  20.6666  20.7155  20.7503  20.8596
    20.9052  20.9113  20.9378  21.0167  21.1326  21.1874  21.2040  21.2331
    21.2586  21.2829  21.3759  21.4557  21.4558  21.5077  21.5552  21.5709
    21.5753  21.6126  21.7904  21.8444  21.9205  21.9422  21.9511  22.0856
    22.1026  22.1105  22.1600  22.1872  22.2306  22.2840  22.2963  22.4409
    22.4760  22.6015  22.6088  22.7011  22.7240  22.7411  23.0034  23.0104
    23.0160  23.0216  23.0889  23.0948  23.2956  23.3082  23.3112  23.3850
    23.5181  23.5325  23.6223  23.7109  23.7891  23.8103  23.8597  23.8768
    24.0277  24.0410  24.0695  24.2640  24.3092  24.3788  24.3903  24.4879
    24.6263  24.6432  24.6764  24.7460  24.8068  24.9029  24.9538  25.0913
    25.1019  25.1312  25.3088  25.3984  25.4244  25.5769  25.5963  25.7775
    25.7904  25.8328  25.8385  25.9788  25.9911  25.9988  26.0826  26.2271
    26.2537  26.3269  26.3714  26.4612  26.4775  26.5502  26.5937  26.6832
    26.6880  26.7066  26.7240  26.7594  26.7967  26.8733  26.9618  27.0613
    27.1417  27.1630  27.1788  27.3511  27.5483  27.6119  27.6265  27.6498
    27.7007  27.7338  27.7426  27.7839  27.8402  27.8827  27.8894  27.9861
    28.0278  28.0507  28.0556  28.1506  28.2266  28.2888  28.3048  28.3514
    28.4764  28.5564  28.5895  28.5937  28.6257  28.6503  28.8273  28.8663
    28.9557  28.9559  29.1685  29.1954  29.3155  29.3506  29.3520  29.3895
    29.4393  29.7418  29.8064  29.8263  29.8644  29.8841  29.9096  29.9112
    30.0111  30.0801  30.1685  30.1739  30.1866  30.2134  30.2960  30.3688
    30.3791  30.4319  30.5101  30.5128  30.6458  30.7029  30.7222  30.7484
    30.8057  30.8356  30.9226  30.9733  30.9806  31.0103  31.1037  31.1243
    31.1423  31.1427  31.1872  31.2597  31.3328  31.3992  31.4406  31.5007
    31.5801  31.5820  31.5904  31.6019  31.6545  31.6717  31.7399  31.7683
    31.7881  31.9230  31.9609  32.0528  32.1126  32.1421  32.2391  32.2663
    32.3218  32.3580  32.4141  32.4534  32.5262  32.5297  32.5849  32.6710
    32.6716  32.7037  32.7426  32.8060

          k = 0.0000 0.0000 0.0516 ( 28432 PWs)   bands (ev):

   -29.6811 -29.6805 -28.4487 -28.4482 -21.3847 -21.0453 -20.2945 -19.2004
   -18.1872 -18.0309 -17.7517 -17.3013 -16.5032 -16.4217 -14.7547 -14.5821
   -14.0904 -13.4982 -13.2250 -13.2246 -12.2105 -12.0248 -11.8593 -11.7047
   -11.4817 -11.0068 -10.5036 -10.3976 -10.3441 -10.3362  -9.8857  -9.3612
    -9.2150  -9.1542  -8.6241  -8.5726  -8.4994  -8.4876  -8.1336  -7.9284
    -7.6255  -7.4766  -7.1696  -6.5698  -6.5336  -6.4555  -5.8267  -5.7389
    -5.6831  -5.2569  -5.0769  -4.4493  -3.8744  -3.6447  -0.5419  -0.2502
     0.2150   0.7137   1.1084   1.3127   1.3590   1.5396   1.9055   2.4731
     2.8088   2.9798   3.0907   3.1920   3.2944   3.3220   3.6329   4.0363
     4.0892   4.1356   4.2888   4.3695   4.4409   4.5885   4.9545   5.1131
     5.1425   5.4592   5.5467   5.6633   5.6943   5.8907   5.9748   6.0506
     6.1035   6.2002   6.2916   6.3571   6.5581   6.6689   6.7515   6.8850
     6.9008   7.1943   7.3628   7.3850   7.3910   7.4469   7.4941   7.6071
     7.8849   7.8991   7.9327   7.9517   8.1043   8.2765   8.3228   8.3765
     8.4083   8.4705   8.4750   8.5265   8.5318   8.6066   8.6645   8.6921
     8.7739   8.8186   8.8613   9.1838   9.2109   9.2368   9.4722   9.4887
     9.5073   9.5506   9.6206   9.6883   9.9139  10.0339  10.0951  10.3121
    10.3497  10.4502  10.5646  10.6003  10.6086  10.6583  10.6928  10.7363
    10.8581  10.9540  10.9959  11.0871  11.1492  11.2102  11.2922  11.2989
    11.4492  11.4880  11.5855  11.6554  11.6971  12.0409  12.0788  12.1544
    12.1833  12.3023  12.3655  12.4076  12.4450  12.4478  12.4568  12.5260
    12.6539  12.7490  12.9856  13.0098  13.1542  13.2423  13.4080  13.4286
    13.5533  13.6023  13.6046  13.7574  13.8022  13.8365  14.0689  14.0719
    14.1233  14.3442  14.3600  14.3982  14.4821  14.5337  14.5590  14.7002
    14.7196  14.7555  14.8830  14.9776  15.0029  15.0794  15.1820  15.2750
    15.3817  15.4512  15.5451  15.5768  15.5848  15.6224  15.6731  15.8254
    15.8772  15.8779  15.9347  15.9940  16.1042  16.1066  16.1084  16.1128
    16.1176  16.1226  16.1311  16.2947  16.4053  16.4491  16.4658  16.5441
    16.7334  16.7454  16.7619  16.7933  16.9206  16.9966  16.9982  17.0829
    17.1769  17.2036  17.3083  17.3460  17.5155  17.5480  17.5494  17.6464
    17.7936  17.8202  17.8572  17.8981  17.9611  17.9728  18.0318  18.1028
    18.1505  18.3542  18.3593  18.3821  18.4606  18.4748  18.7177  18.7449
    18.8015  19.0243  19.0279  19.1172  19.2949  19.3242  19.5351  19.5704
    19.6155  19.6452  19.7625  19.8149  19.8305  19.8339  19.8752  19.9599
    20.0162  20.0903  20.1339  20.2311  20.3630  20.3894  20.4427  20.4535
    20.4799  20.5326  20.5710  20.6059  20.7131  20.7799  20.7800  20.7996
    20.9122  20.9189  21.0378  21.0712  21.1441  21.2558  21.2732  21.2854
    21.3466  21.3871  21.4007  21.4325  21.5016  21.5493  21.5506  21.5592
    21.5839  21.7083  21.7490  21.7923  21.8697  21.9390  22.0182  22.0403
    22.1146  22.1877  22.2056  22.3103  22.3223  22.3811  22.4262  22.4289
    22.4522  22.5092  22.5103  22.7872  22.8328  22.8339  23.0047  23.0379
    23.0946  23.1002  23.2852  23.3098  23.3113  23.3500  23.4501  23.5101
    23.5300  23.5852  23.6880  23.7088  23.7506  23.8402  23.8422  23.8525
    23.9524  24.0597  24.2022  24.2350  24.3682  24.3941  24.4052  24.5369
    24.5502  24.5765  24.6230  24.7423  24.7792  25.0315  25.1031  25.1693
    25.2935  25.2940  25.3681  25.3711  25.3816  25.5990  25.6055  25.7071
    25.8423  25.8548  25.9101  25.9878  26.0548  26.1084  26.1126  26.2142
    26.2741  26.3777  26.4206  26.4506  26.5025  26.5459  26.6166  26.7006
    26.7384  26.7655  26.8075  26.8147  26.8606  26.9306  27.0043  27.0626
    27.0923  27.1870  27.2302  27.2353  27.3081  27.5910  27.6085  27.6604
    27.6807  27.7579  27.8215  27.8887  27.9124  27.9180  27.9221  27.9771
    28.0561  28.0603  28.0832  28.1121  28.1883  28.1908  28.2260  28.2871
    28.3589  28.3792  28.5837  28.6294  28.7073  28.7512  28.7743  28.8456
    28.8476  28.9765  29.0565  29.1872  29.2980  29.3029  29.3638  29.3973
    29.4014  29.6244  29.6705  29.7024  29.7045  29.7379  29.7523  29.7604
    29.8678  29.9201  29.9204  29.9406  30.0177  30.1761  30.1833  30.1936
    30.2153  30.2662  30.3936  30.4145  30.4244  30.4845  30.5243  30.6294
    30.6504  30.6761  30.8081  30.8778  30.9046  30.9809  31.0069  31.0388
    31.0676  31.1498  31.1802  31.1971  31.2377  31.2881  31.2893  31.4487
    31.4684  31.5400  31.5404  31.6026  31.6641  31.7049  31.7275  31.7532
    31.8089  31.8333  31.8572  31.8596  31.9409  32.0080  32.0526  32.0714
    32.0862  32.1425  32.1711  32.2730  32.3890  32.4117  32.5525  32.5705
    32.5972  32.6482  32.6493  32.7254

          k = 0.0000 0.0000 0.0563 ( 28410 PWs)   bands (ev):

   -29.6544 -29.6538 -28.4839 -28.4834 -21.3308 -20.9925 -20.2430 -19.1526
   -18.3535 -18.1402 -17.7588 -17.4447 -16.5383 -16.4937 -14.7193 -14.6690
   -13.9959 -13.4392 -13.2139 -12.9984 -12.2039 -11.9149 -11.8197 -11.6029
   -11.3891 -11.0744 -10.4239 -10.3060 -10.3038 -10.2988  -9.9458  -9.3082
    -9.1551  -9.0995  -8.6122  -8.5640  -8.5423  -8.4837  -8.1821  -7.9297
    -7.5727  -7.5479  -7.2765  -6.6835  -6.6546  -6.4082  -5.8635  -5.8549
    -5.7830  -5.3999  -5.0700  -4.6101  -3.8911  -3.7699  -0.4231  -0.2511
     0.3903   0.9176   1.3018   1.3566   1.3857   1.6088   1.9736   2.5363
     2.8808   3.0533   3.0893   3.1407   3.3594   3.3725   3.7056   4.1085
     4.1633   4.2086   4.3616   4.4342   4.4817   4.6421   4.9827   5.0297
     5.1018   5.4102   5.5629   5.6763   5.7325   5.7712   5.9844   6.0326
     6.0745   6.1078   6.2443   6.3974   6.5094   6.5911   6.6043   6.7600
     7.0072   7.1304   7.1565   7.1594   7.1617   7.3491   7.5390   7.5643
     7.7083   7.7353   7.7714   7.9910   8.0520   8.1978   8.2382   8.2857
     8.3718   8.3772   8.3928   8.4325   8.5023   8.5205   8.5531   8.6057
     8.6122   8.8875   8.9288   9.0076   9.2047   9.2217   9.2826   9.2994
     9.5429   9.6143   9.6340   9.6599   9.8817   9.9747  10.0615  10.1336
    10.3344  10.3607  10.4588  10.5582  10.6676  10.6964  10.7367  10.7631
    10.8004  10.8193  10.9928  11.0941  11.1094  11.2324  11.2477  11.2729
    11.4983  11.5511  11.6482  11.6568  11.8882  12.0305  12.0452  12.1009
    12.1778  12.2552  12.2912  12.3401  12.3472  12.3940  12.5669  12.6173
    12.6281  12.8264  12.8724  12.9029  13.1055  13.1757  13.3112  13.4504
    13.5707  13.5750  13.5782  13.6736  13.7710  13.7984  14.1387  14.2347
    14.3267  14.3320  14.3476  14.4246  14.4602  14.5860  14.6017  14.6308
    14.6746  14.8264  14.9465  15.0506  15.0543  15.1118  15.2008  15.3566
    15.3681  15.4573  15.4759  15.5587  15.5763  15.6239  15.6753  15.8660
    15.9564  16.0066  16.0233  16.0270  16.0780  16.1200  16.1841  16.1873
    16.2845  16.3004  16.3254  16.3684  16.4790  16.5844  16.6400  16.6497
    16.7470  16.8548  16.8648  16.9424  16.9653  17.0697  17.1100  17.1562
    17.2422  17.2771  17.3755  17.3774  17.5411  17.6105  17.6829  17.6923
    17.7616  17.8199  17.8220  17.9936  18.0008  18.0250  18.1499  18.3026
    18.3174  18.3209  18.4985  18.5141  18.5903  18.6175  18.7304  18.7823
    18.7837  19.1550  19.1555  19.1584  19.3169  19.3486  19.5553  19.5942
    19.6118  19.6753  19.7176  19.7687  19.8096  19.8350  19.8698  19.8906
    20.1187  20.1890  20.2474  20.3251  20.3709  20.4432  20.5262  20.5385
    20.5797  20.5904  20.7295  20.7467  20.7834  20.7860  20.8788  20.9094
    20.9626  21.0764  21.1243  21.1556  21.2365  21.2843  21.3200  21.3644
    21.3780  21.3795  21.4600  21.4763  21.5549  21.5625  21.6101  21.6132
    21.6448  21.7669  21.7798  21.8167  21.8752  21.8932  21.8968  21.9509
    22.0726  22.1453  22.1680  22.2602  22.3000  22.3260  22.5526  22.5658
    22.5968  22.6442  22.7097  22.8995  22.9498  22.9901  22.9992  23.1320
    23.1629  23.2146  23.2287  23.4005  23.4125  23.4181  23.5465  23.5674
    23.6368  23.6385  23.6749  23.6906  23.7776  23.8483  23.9175  24.0087
    24.0187  24.0595  24.2145  24.2787  24.2790  24.4034  24.4163  24.4726
    24.5078  24.5313  24.6752  24.8649  24.9727  25.0218  25.1143  25.1339
    25.1787  25.2560  25.5379  25.5553  25.5762  25.6668  25.6987  25.7781
    25.8418  25.8843  25.9753  25.9773  26.0313  26.1437  26.2510  26.2538
    26.2774  26.4247  26.4467  26.4953  26.5469  26.5626  26.6677  26.6852
    26.7514  26.7802  26.7867  26.8053  26.8183  26.8860  26.9577  26.9900
    27.0365  27.0424  27.2710  27.3550  27.3583  27.3734  27.5967  27.6118
    27.6140  27.7347  27.8469  27.8772  27.8787  27.9411  27.9579  27.9662
    27.9857  28.0340  28.0345  28.0993  28.1980  28.2329  28.2439  28.2639
    28.3806  28.3886  28.4520  28.4608  28.5305  28.7325  28.8000  28.8632
    28.8975  28.9335  29.0019  29.2113  29.2456  29.2474  29.2676  29.2961
    29.3365  29.4031  29.5219  29.5256  29.5314  29.5536  29.5784  29.6153
    29.6490  29.7042  29.8082  30.0150  30.0291  30.0489  30.0547  30.0704
    30.1246  30.1263  30.1983  30.2177  30.3092  30.3292  30.3430  30.4207
    30.5555  30.5989  30.6192  30.8039  30.8175  30.8770  30.9203  30.9838
    31.0085  31.0887  31.1180  31.1420  31.1829  31.2207  31.2870  31.3980
    31.4048  31.4286  31.4388  31.5204  31.5431  31.6171  31.6326  31.6674
    31.7164  31.7529  31.7806  31.8838  31.9043  31.9107  31.9590  32.0282
    32.0296  32.1169  32.1415  32.1454  32.3171  32.3790  32.4344  32.4769
    32.4911  32.5499  32.6074  32.7888

          k = 0.0000 0.0000 0.0610 ( 28428 PWs)   bands (ev):

   -29.6259 -29.6253 -28.5211 -28.5206 -21.2724 -20.9352 -20.1872 -19.1021
   -18.5151 -18.2782 -17.7311 -17.5889 -16.6576 -16.4832 -14.7577 -14.6811
   -13.8980 -13.4986 -13.0868 -12.7690 -12.2491 -11.8022 -11.7302 -11.5041
   -11.2920 -11.1410 -10.3439 -10.2657 -10.2592 -10.2028 -10.0149  -9.2460
    -9.0901  -9.0435  -8.6293  -8.5993  -8.5871  -8.4333  -8.2096  -7.9400
    -7.6234  -7.5154  -7.3873  -6.8428  -6.7424  -6.3581  -6.0259  -5.9025
    -5.8300  -5.5605  -5.0435  -4.7692  -3.9095  -3.8928  -0.3056  -0.2572
     0.5737   1.0450   1.3239   1.4647   1.6102   1.6835   2.0469   2.6034
     2.9581   2.9769   3.1332   3.1936   3.4263   3.4372   3.7842   4.1864
     4.2437   4.2871   4.4406   4.4948   4.5203   4.6926   4.9198   4.9992
     5.0845   5.3477   5.4963   5.5775   5.8097   5.8541   5.8884   5.9469
     6.0052   6.1533   6.2771   6.3652   6.4485   6.4638   6.5400   6.7267
     6.8980   6.9329   6.9558   7.1017   7.1403   7.1512   7.4529   7.5556
     7.5972   7.6442   7.6742   7.9271   8.0151   8.0341   8.0867   8.0960
     8.1865   8.2563   8.3049   8.3165   8.4496   8.4928   8.5946   8.6786
     8.6804   8.8214   8.9610   9.0022   9.0838   9.1069   9.1609   9.1733
     9.6001   9.6046   9.6771   9.6862   9.8947   9.9143   9.9473  10.0464
    10.1512  10.2832  10.2919  10.6114  10.7035  10.7254  10.7385  10.7476
    10.8379  10.8920  11.0042  11.0691  11.0758  11.2058  11.2347  11.2830
    11.4916  11.6561  11.6579  11.7313  11.9285  11.9614  11.9674  12.0431
    12.0480  12.1705  12.2644  12.3312  12.3442  12.3904  12.4659  12.6251
    12.6988  12.7389  12.9235  12.9652  12.9672  13.1188  13.3571  13.4552
    13.4704  13.5601  13.6237  13.6251  13.7315  13.8434  14.1585  14.2806
    14.2820  14.2839  14.2897  14.4053  14.4668  14.5808  14.6049  14.6336
    14.7889  14.8239  14.9217  15.0422  15.0810  15.1747  15.3665  15.3853
    15.4353  15.5003  15.5016  15.5879  15.6417  15.6674  15.7015  15.8301
    15.9391  15.9825  16.0211  16.0337  16.0616  16.1813  16.2664  16.2671
    16.2679  16.4768  16.5844  16.6227  16.6281  16.7169  16.7692  16.8181
    16.8814  16.9627  17.0179  17.0328  17.1176  17.1319  17.1574  17.2000
    17.3117  17.3149  17.5261  17.5620  17.5727  17.6353  17.6675  17.7137
    17.7255  17.8184  17.8520  18.0648  18.0913  18.1695  18.3209  18.3538
    18.3684  18.4889  18.5160  18.5471  18.6857  18.8097  18.8701  18.9107
    19.0885  19.2427  19.2678  19.2762  19.3040  19.3705  19.4223  19.5317
    19.6297  19.6421  19.7050  19.7144  19.7385  19.9008  19.9138  19.9249
    20.0110  20.2321  20.2935  20.3017  20.3387  20.4597  20.4787  20.6095
    20.6113  20.7699  20.7875  20.7968  20.8408  20.9100  21.1295  21.1415
    21.1520  21.1828  21.1881  21.2517  21.2700  21.2788  21.3626  21.3679
    21.4408  21.4977  21.5127  21.5174  21.6057  21.6212  21.6702  21.7023
    21.7385  21.7392  21.8412  21.8754  21.8983  21.9058  21.9099  21.9544
    21.9594  22.0860  22.1273  22.3027  22.3425  22.3618  22.6361  22.6787
    22.6928  22.7245  22.9160  22.9278  22.9493  23.0727  23.0910  23.0988
    23.1683  23.3616  23.3985  23.4252  23.4696  23.5292  23.5708  23.6054
    23.6600  23.7184  23.7374  23.7727  23.8240  23.8487  23.9815  24.0354
    24.1771  24.2432  24.2651  24.2804  24.2995  24.3699  24.3739  24.4760
    24.5292  24.5946  24.8559  24.9136  24.9710  24.9785  25.0567  25.1483
    25.2061  25.3885  25.4649  25.5673  25.5960  25.8208  25.8706  25.8949
    25.9082  25.9085  25.9657  26.0777  26.0981  26.1270  26.2189  26.2598
    26.3255  26.3502  26.3910  26.5259  26.5417  26.5561  26.5601  26.6700
    26.7612  26.7826  26.7868  26.7946  26.8221  26.9059  26.9511  26.9934
    27.0542  27.1030  27.1398  27.2797  27.3909  27.4452  27.4495  27.5427
    27.5580  27.6861  27.6934  27.8127  27.8349  27.8761  27.9120  27.9171
    27.9743  27.9750  28.0089  28.0883  28.1200  28.1711  28.2652  28.2829
    28.2915  28.3973  28.4561  28.4732  28.6224  28.6600  28.7499  28.7593
    28.7702  28.7954  28.8419  28.9093  28.9431  28.9457  29.0340  29.1363
    29.1782  29.2087  29.4080  29.4506  29.5742  29.6001  29.6141  29.6316
    29.7168  29.7442  29.7951  29.8514  29.8734  29.9336  29.9759  29.9861
    30.0710  30.1287  30.1399  30.1641  30.1946  30.2348  30.2921  30.3831
    30.4412  30.5497  30.5619  30.5623  30.6022  30.6676  30.7754  30.8050
    30.8515  30.9865  30.9965  31.0113  31.0844  31.1088  31.1852  31.3055
    31.3377  31.3537  31.4174  31.4620  31.4664  31.5096  31.5119  31.6443
    31.6462  31.7714  31.8320  31.9069  31.9535  31.9944  32.0054  32.0253
    32.0497  32.1494  32.1517  32.2032  32.2159  32.2942  32.3471  32.3654
    32.4305  32.5022  32.5378  32.5679

          k = 0.0000 0.0000 0.0657 ( 28448 PWs)   bands (ev):

   -29.5957 -29.5951 -28.5599 -28.5594 -21.2094 -20.8734 -20.1271 -19.0517
   -18.6696 -18.4239 -17.7322 -17.6899 -16.7778 -16.4745 -14.8413 -14.6422
   -13.8013 -13.5832 -12.9356 -12.5388 -12.3154 -11.6930 -11.6215 -11.4150
   -11.1929 -11.1902 -10.2709 -10.2235 -10.2176 -10.0970 -10.0805  -9.1813
    -9.0206  -8.9869  -8.6749  -8.6441  -8.6332  -8.3704  -8.2197  -7.9589
    -7.6997  -7.5014  -7.4536  -7.0102  -6.8328  -6.3104  -6.1900  -5.9431
    -5.8789  -5.7236  -5.0128  -4.9258  -4.0123  -3.9302  -0.2629  -0.1904
     0.7595   1.0309   1.4912   1.5499   1.7636   1.8676   2.1251   2.6741
     2.8618   3.0398   3.2193   3.2496   3.4832   3.5223   3.8682   4.2695
     4.3303   4.3698   4.5257   4.5299   4.5544   4.7295   4.8361   4.9952
     5.0640   5.2126   5.4310   5.5457   5.7893   5.8727   5.8940   5.9429
     5.9731   6.1360   6.2367   6.2850   6.4069   6.4399   6.5406   6.6635
     6.7002   6.7083   6.8399   6.9275   7.0529   7.2603   7.2623   7.3726
     7.4661   7.7206   7.7482   7.7906   7.8008   7.8645   7.8690   7.9574
     8.1016   8.1338   8.1585   8.1804   8.5320   8.5614   8.6270   8.6780
     8.7592   8.7619   8.8879   8.9153   9.0515   9.0529   9.0666   9.1130
     9.5860   9.6650   9.6770   9.7195   9.7409   9.9383   9.9464   9.9650
    10.0226  10.0977  10.1752  10.6640  10.6861  10.7639  10.7826  10.8315
    10.9132  10.9743  10.9810  10.9880  11.0357  11.2156  11.2182  11.3546
    11.4628  11.6735  11.7423  11.7595  11.7885  11.8256  11.8667  11.9339
    12.0205  12.0402  12.2677  12.3485  12.3671  12.4102  12.4268  12.6178
    12.6227  12.7298  12.8315  12.9511  13.0387  13.1743  13.3591  13.4175
    13.4791  13.4793  13.6289  13.6945  13.7503  13.9017  14.0693  14.1559
    14.1827  14.1880  14.2817  14.3440  14.4803  14.5563  14.6039  14.6403
    14.6579  14.9535  14.9844  15.0313  15.1533  15.2757  15.3828  15.4516
    15.4555  15.4631  15.6297  15.6686  15.6792  15.7251  15.7910  15.8635
    15.9338  15.9624  15.9993  16.0920  16.0953  16.1351  16.3552  16.3596
    16.4240  16.6629  16.6660  16.6697  16.7952  16.7981  16.9012  17.0098
    17.0197  17.0465  17.0541  17.0742  17.2161  17.3171  17.3267  17.3682
    17.4873  17.5093  17.5688  17.6234  17.6312  17.6478  17.6487  17.7500
    17.7524  17.8501  18.0246  18.2053  18.2076  18.2622  18.2726  18.5089
    18.5470  18.5679  18.5717  18.6044  18.7899  18.7955  19.0977  19.1640
    19.2592  19.2881  19.3562  19.3594  19.4045  19.4064  19.4612  19.4659
    19.5830  19.6690  19.7129  19.7593  19.7829  19.8679  19.9025  19.9280
    19.9620  20.1702  20.2305  20.2466  20.3829  20.3877  20.5006  20.5847
    20.5963  20.8166  20.8362  20.9197  20.9203  20.9725  21.0912  21.2396
    21.2500  21.2700  21.2837  21.3249  21.3314  21.4220  21.4969  21.5264
    21.5312  21.5334  21.5654  21.5918  21.6080  21.6703  21.7273  21.7374
    21.7643  21.8123  21.8295  21.9181  21.9997  22.0045  22.0720  22.0767
    22.0959  22.0972  22.3198  22.3637  22.3999  22.4149  22.6153  22.7302
    22.7473  22.7889  22.8917  22.9125  22.9555  23.0293  23.0938  23.1783
    23.1862  23.3955  23.3979  23.4781  23.5068  23.6533  23.7172  23.7447
    23.7880  23.7902  23.8439  23.8863  23.8947  23.9118  23.9641  24.1359
    24.1395  24.1423  24.2724  24.3735  24.4419  24.5333  24.5655  24.6240
    24.6990  24.7234  24.7434  24.8311  24.9198  25.0470  25.1219  25.1958
    25.2970  25.3291  25.5624  25.5628  25.6118  25.6515  25.7111  25.8211
    25.8705  25.8739  26.0988  26.1031  26.1258  26.1901  26.2004  26.2097
    26.3200  26.3431  26.4296  26.5298  26.5473  26.6062  26.6486  26.6774
    26.7218  26.7289  26.8082  26.8111  26.8727  26.9554  26.9589  27.0652
    27.0707  27.0953  27.1981  27.2206  27.2544  27.3143  27.3974  27.4596
    27.5103  27.5513  27.5936  27.6781  27.7170  27.7809  27.8533  27.8958
    27.9070  27.9610  27.9938  28.0747  28.0828  28.1621  28.1744  28.2465
    28.2562  28.2599  28.2811  28.3565  28.3593  28.4098  28.5349  28.5387
    28.6570  28.6570  28.7386  28.8014  28.8647  28.9464  29.0046  29.0056
    29.2179  29.2514  29.2871  29.3257  29.3660  29.4881  29.5486  29.5501
    29.5913  29.6571  29.7654  29.8159  29.8627  29.9416  29.9536  30.1048
    30.1232  30.1432  30.1464  30.1745  30.2649  30.2669  30.2761  30.2799
    30.3522  30.3579  30.4141  30.4674  30.5157  30.6059  30.6330  30.6725
    30.6737  30.7595  30.8031  30.8469  30.9753  31.0692  31.1861  31.2447
    31.2556  31.3420  31.3584  31.3880  31.3895  31.4874  31.4951  31.6258
    31.6679  31.7709  31.7876  31.8344  31.8581  31.9357  31.9977  32.0421
[...]
    10.6091  10.6512  10.7761  10.7857  11.0018  11.0195  11.0281  11.2092
    11.2727  11.4903  11.5487  11.6137  11.6629  11.7299  11.7504  11.8599
    11.8969  11.9449  11.9617  12.2105  12.2534  12.3289  12.4048  12.5501
    12.6206  12.6760  12.7770  12.7862  13.0303  13.0713  13.2128  13.2956
    13.3779  13.4109  13.4884  13.5428  13.5553  13.5598  13.6597  13.7598
    14.1084  14.1522  14.2083  14.2555  14.2622  14.4580  14.5826  14.6353
    14.7084  14.7810  14.8398  15.0153  15.0586  15.1582  15.2782  15.3635
    15.4379  15.4422  15.6124  15.6413  15.7498  15.9723  16.0646  16.0735
    16.0785  16.0872  16.1449  16.3120  16.3428  16.5681  16.6572  16.7513
    16.8772  16.9509  17.0319  17.0637  17.1769  17.1894  17.1968  17.3703
    17.3751  17.6029  17.6340  17.8453  17.9059  17.9121  18.0449  18.0884
    18.1433  18.1475  18.1728  18.2706  18.3138  18.3357  18.3428  18.5181
    18.5358  18.6409  18.8273  18.8902  18.9256  19.1003  19.1613  19.1732
    19.2827  19.2921  19.3130  19.4832  19.5759  19.6308  19.6593  19.6926
    19.8149  19.8425  19.8997  19.9463  19.9678  19.9819  20.0313  20.0992
    20.1714  20.3098  20.3840  20.4078  20.4275  20.5327  20.5516  20.6816
    20.7075  20.7584  20.7917  20.7991  20.8050  20.8987  20.9285  20.9679
    21.0114  21.0801  21.0915  21.2057  21.2070  21.2653  21.3568  21.3786
    21.4630  21.5366  21.5601  21.6070  21.6426  21.6595  21.6741  21.7945
    21.8155  21.8185  21.8448  21.9094  21.9579  21.9933  22.0861  22.1968
    22.2569  22.3083  22.3772  22.4144  22.4368  22.4992  22.5266  22.6133
    22.6463  22.6534  22.7076  22.7370  22.7718  22.8666  22.9400  22.9461
    23.0740  23.1399  23.2014  23.2121  23.2424  23.2490  23.3572  23.4068
    23.4215  23.4241  23.5020  23.5585  23.5751  23.6517  23.7247  23.8052
    23.8090  23.9425  23.9429  23.9804  24.0810  24.2239  24.3346  24.3414
    24.3423  24.4321  24.5037  24.5225  24.5740  24.6243  24.6766  24.6964
    24.7380  24.7951  24.8257  24.8369  24.9330  25.0004  25.0025  25.0327
    25.1121  25.1560  25.2082  25.2464  25.3284  25.3453  25.4766  25.5222
    25.5299  25.5730  25.6134  25.6419  25.6714  25.7990  25.8183  25.8658
    25.8856  25.9032  25.9255  25.9563  25.9791  26.0481  26.0713  26.1702
    26.3363  26.3682  26.5020  26.5366  26.6203  26.6789  26.8798  26.8954
    26.9162  27.0111  27.0729  27.1206  27.2148  27.2262  27.2368  27.2887
    27.3489  27.3710  27.5555  27.5848  27.5933  27.6642  27.6723  27.7313
    27.8088  27.8805  27.9282  27.9559  28.0046  28.0098  28.0715  28.0816
    28.1024  28.1652  28.1981  28.2601  28.3012  28.3116  28.3138  28.4362
    28.4556  28.4817  28.4917  28.5292  28.5335  28.6208  28.6515  28.7095
    28.7124  28.8260  28.8410  28.8480  28.8538  28.9497  29.0087  29.0375
    29.0927  29.1050  29.2516  29.3061  29.3249  29.3323  29.3906  29.5644
    29.5826  29.6195  29.7396  29.7994  29.8128  29.8254  29.8292  29.9404
    29.9731  29.9929  30.0994  30.1788  30.1863  30.2040  30.2704  30.2873
    30.3540  30.4026  30.4523  30.4804  30.4933  30.6395  30.6476  30.6954
    30.7214  30.8253  30.9253  31.0419  31.0550  31.0667  31.0894  31.2070
    31.2867  31.2948  31.3352  31.4410  31.4479  31.4984  31.6066  31.6435
    31.6488  31.7083  31.7682  31.8315  31.8918  31.8929  31.9335  32.2068
    32.2348  32.2611  32.2686  32.2843

          k = 0.0000 0.0000 0.1080 ( 28470 PWs)   bands (ev):

   -29.3026 -29.3020 -28.9059 -28.9055 -20.4385 -20.1346 -19.9603 -19.6915
   -19.3479 -18.9470 -18.2876 -17.8963 -17.0436 -16.7559 -14.9912 -14.7590
   -13.7243 -13.4764 -12.5376 -12.2219 -11.5800 -11.1161 -11.0572 -11.0147
   -10.3845 -10.1061 -10.0507  -9.8608  -9.8598  -9.6699  -9.2676  -9.2267
    -9.0372  -9.0361  -9.0286  -8.8665  -8.6640  -8.5854  -8.3598  -8.1579
    -8.1363  -7.7977  -7.6288  -7.6182  -7.5499  -7.0825  -6.6782  -6.2460
    -6.2452  -6.2364  -5.5751  -5.2255  -4.4112  -4.2406  -0.0917   0.1157
     1.1223   1.5740   2.5192   2.5614   2.5894   2.9140   3.1707   3.2309
     3.4678   3.5125   3.6849   3.9190   3.9665   4.1759   4.2487   4.2692
     4.3606   4.5395   4.5754   4.5922   4.8171   4.9400   4.9567   5.0737
     5.1470   5.1975   5.3108   5.3630   5.4054   5.4661   5.5196   5.5650
     5.5827   5.6252   5.7234   5.7666   5.7775   5.9554   6.0558   6.1182
     6.1987   6.2182   6.2526   6.2853   6.3575   6.4060   6.5326   6.6311
     6.9150   6.9367   7.0119   7.1117   7.2679   7.2871   7.3363   7.5428
     7.5480   7.6315   7.7403   7.8036   7.9357   7.9948   8.1898   8.4113
     8.5640   8.5916   8.8056   8.8268   9.1913   9.2502   9.4084   9.4511
     9.5621   9.6333   9.7160   9.7380   9.8324   9.8482   9.8940  10.0674
    10.1042  10.1414  10.2772  10.2778  10.2973  10.3557  10.3816  10.4834
    10.6205  10.6311  10.6960  10.7939  10.9864  11.0798  11.1054  11.1489
    11.2213  11.4136  11.6363  11.6633  11.6844  11.7339  11.8733  11.8837
    11.9026  11.9744  11.9977  12.1934  12.2875  12.3185  12.3829  12.4923
    12.4964  12.6176  12.6304  12.8902  12.9832  13.0253  13.1734  13.4004
    13.4239  13.4473  13.4735  13.4801  13.5599  13.5654  13.5881  13.7598
    14.0297  14.1976  14.2142  14.2646  14.3447  14.4034  14.5378  14.6041
    14.6599  14.8156  14.9412  15.0570  15.1250  15.2205  15.2534  15.3167
    15.4332  15.4848  15.5902  15.6630  15.7553  15.8964  15.9349  15.9417
    15.9466  16.0776  16.3033  16.3390  16.4367  16.4657  16.6648  16.7443
    16.9661  16.9695  16.9946  17.0217  17.1820  17.1828  17.2066  17.4217
    17.4492  17.5569  17.6733  17.7495  17.8390  18.0369  18.0423  18.0709
    18.1082  18.1260  18.1268  18.2642  18.2918  18.3815  18.4829  18.6226
    18.7456  18.8078  18.8288  18.9152  19.0076  19.0510  19.1865  19.2130
    19.3730  19.3899  19.4562  19.5543  19.5787  19.7335  19.8190  19.8270
    19.8784  19.9131  19.9638  19.9859  20.0086  20.0728  20.0901  20.1658
    20.2295  20.2698  20.3462  20.4522  20.4960  20.5877  20.6907  20.7401
    20.7484  20.8183  20.8593  20.9247  20.9974  21.0081  21.0390  21.1104
    21.1127  21.2253  21.2339  21.2447  21.2961  21.2994  21.3556  21.4509
    21.4639  21.5070  21.5089  21.6049  21.6262  21.6304  21.6386  21.6560
    21.7726  21.8840  21.9040  21.9112  21.9600  21.9936  22.1358  22.1458
    22.1469  22.2258  22.3869  22.3950  22.4636  22.5370  22.5563  22.5820
    22.6954  22.7995  22.8139  22.8416  22.8824  22.9025  22.9172  22.9637
    22.9679  23.1452  23.1817  23.2455  23.2851  23.3075  23.3188  23.3409
    23.3944  23.4041  23.4886  23.5484  23.5492  23.5942  23.6258  23.6306
    23.7152  23.7261  23.8412  23.8481  23.9649  23.9815  24.0610  24.3435
    24.3870  24.4156  24.4490  24.4632  24.5831  24.6035  24.6112  24.6619
    24.7450  24.8272  24.8349  24.9326  24.9462  25.0149  25.0194  25.0942
    25.1410  25.2515  25.2652  25.3036  25.3357  25.3538  25.3538  25.4108
    25.4667  25.4771  25.5438  25.5954  25.6049  25.7130  25.7766  25.7876
    25.8754  25.9061  26.0171  26.0573  26.1165  26.1635  26.2468  26.3211
    26.3728  26.4689  26.4711  26.5096  26.6207  26.6539  26.6744  26.8010
    26.8086  26.8509  27.1002  27.1199  27.1885  27.2762  27.3196  27.4276
    27.4310  27.4678  27.5205  27.5366  27.6691  27.6911  27.7819  27.8108
    27.8173  27.8365  27.8602  27.9008  27.9154  28.0283  28.0335  28.0654
    28.1168  28.1619  28.2279  28.2332  28.2616  28.2901  28.3911  28.4018
    28.4902  28.4964  28.5138  28.5286  28.6436  28.6608  28.6789  28.6936
    28.7621  28.8180  28.8265  28.8391  28.8540  28.9026  29.0702  29.1428
    29.1700  29.1873  29.1924  29.2727  29.3033  29.4000  29.4351  29.4895
    29.5165  29.5805  29.6165  29.6955  29.7153  29.7229  29.7776  29.7834
    29.7870  29.8290  29.8778  30.0551  30.0743  30.1603  30.2365  30.2909
    30.3152  30.3355  30.3698  30.4760  30.5622  30.5821  30.6790  30.6890
    30.7110  30.7443  30.7556  30.8691  30.9405  31.0163  31.0687  31.1536
    31.1738  31.2428  31.2547  31.4406  31.5272  31.5357  31.5819  31.6695
    31.7250  31.7304  31.7578  31.8467  31.9887  32.0233  32.0441  32.1746
    32.2218  32.2830  32.3141  32.3476

          k = 0.0000 0.0000 0.1127 ( 28450 PWs)   bands (ev):

   -29.2854 -29.2848 -28.9247 -28.9243 -20.3315 -20.1209 -19.9912 -19.7948
   -19.2597 -19.0552 -18.1960 -17.9991 -16.9711 -16.8257 -14.9416 -14.8231
   -13.6622 -13.5342 -12.4652 -12.3025 -11.4648 -11.2304 -11.0246 -11.0048
   -10.2283 -10.0630  -9.9359  -9.8443  -9.8436  -9.7541  -9.2472  -9.2377
    -9.0541  -9.0535  -9.0097  -8.9137  -8.7208  -8.6764  -8.3134  -8.2055
    -8.0141  -7.7651  -7.7561  -7.6764  -7.4456  -7.2068  -6.5767  -6.3582
    -6.2550  -6.2503  -5.4925  -5.3154  -4.3716  -4.2848  -0.0444   0.0609
     1.2346   1.4643   2.6045   2.6391   2.7204   2.9873   3.0373   3.1630
     3.4514   3.4998   3.8773   3.8869   3.9282   4.2876   4.3214   4.3974
     4.4077   4.5048   4.5336   4.6505   4.7210   4.8367   5.0303   5.0638
     5.0874   5.0998   5.1224   5.4000   5.4241   5.5255   5.5433   5.5996
     5.6343   5.7274   5.7952   5.8617   5.8671   5.8726   5.8933   5.9603
     6.0360   6.1622   6.1688   6.1899   6.3157   6.4668   6.4890   6.6739
     6.7965   6.9811   7.0814   7.1586   7.3155   7.3279   7.3882   7.4496
     7.4696   7.6675   7.7479   7.8223   7.8716   7.9785   8.0426   8.2675
     8.5016   8.5138   8.9454   8.9697   9.2629   9.2966   9.3724   9.3984
     9.6958   9.7167   9.7269   9.7825   9.8589   9.9059   9.9809  10.0031
    10.0672  10.1403  10.1661  10.2099  10.2132  10.2822  10.2989  10.4234
    10.4849  10.6829  10.7382  10.8036  10.9867  11.0425  11.0698  11.2605
    11.3051  11.3072  11.5526  11.5982  11.7197  11.7928  11.9386  11.9432
    12.0233  12.0297  12.1399  12.1436  12.2243  12.2309  12.3314  12.4032
    12.4556  12.5638  12.6029  12.8461  13.0236  13.0619  13.2026  13.3306
    13.3416  13.5025  13.5065  13.5238  13.5593  13.5637  13.5699  13.7976
    13.9431  14.1359  14.2173  14.2519  14.4644  14.4747  14.4790  14.5185
    14.6923  14.7539  15.0606  15.1415  15.1493  15.2035  15.2067  15.4202
    15.4375  15.4491  15.6165  15.6394  15.7654  15.8143  15.8374  15.8699
    15.8796  16.0408  16.3257  16.3626  16.4955  16.5259  16.6827  16.7504
    16.8345  16.9589  17.0277  17.0571  17.1538  17.1643  17.3013  17.4285
    17.5243  17.5482  17.6363  17.6660  17.8700  18.0141  18.0371  18.0631
    18.0955  18.0959  18.1360  18.1701  18.3382  18.4839  18.6004  18.6035
    18.7158  18.7212  18.8502  18.9301  19.2045  19.2493  19.2643  19.2815
    19.4149  19.5335  19.6094  19.6217  19.6708  19.7327  19.7739  19.8653
    19.8676  19.9396  19.9597  19.9813  20.0777  20.1449  20.1648  20.1948
    20.2790  20.2862  20.3063  20.4213  20.5404  20.6880  20.7262  20.7921
    20.8246  20.8791  20.8920  20.9543  20.9663  21.0374  21.0580  21.0964
    21.1299  21.1551  21.2126  21.2851  21.3774  21.4243  21.4522  21.4773
    21.4790  21.4896  21.5737  21.6580  21.6779  21.7009  21.7152  21.7642
    21.8710  21.8762  21.8775  21.8970  21.9007  22.0576  22.1765  22.1943
    22.2448  22.2889  22.2931  22.3586  22.4879  22.4952  22.5185  22.6156
    22.6251  22.7375  22.7807  22.8063  22.8321  22.8897  22.9019  22.9269
    22.9389  22.9921  23.1275  23.1780  23.2940  23.3211  23.3465  23.3477
    23.3757  23.4472  23.4511  23.4834  23.4846  23.5218  23.6376  23.6381
    23.6745  23.8280  23.8286  23.8773  24.0120  24.0394  24.1164  24.1395
    24.2898  24.3854  24.4501  24.4718  24.5781  24.5827  24.6012  24.6072
    24.6449  24.6615  24.6966  24.7983  24.9088  24.9320  24.9506  25.0256
    25.0415  25.1140  25.1180  25.1797  25.3084  25.3956  25.3959  25.4667
    25.5592  25.5681  25.6189  25.6882  25.6891  25.8252  25.8453  25.9585
    25.9909  26.0864  26.1653  26.1736  26.2019  26.2787  26.3045  26.3515
    26.4246  26.5024  26.5628  26.5646  26.5899  26.6524  26.6747  26.6827
    26.6843  26.7164  26.9349  26.9677  26.9902  27.1539  27.1890  27.3485
    27.3805  27.4748  27.4821  27.4885  27.6412  27.6986  27.7008  27.7094
    27.7842  27.9014  27.9184  27.9442  28.0510  28.0786  28.0989  28.1088
    28.1497  28.2574  28.2663  28.2952  28.3441  28.3713  28.4000  28.4124
    28.4250  28.5733  28.6065  28.6143  28.6359  28.6411  28.6921  28.7254
    28.7278  28.8060  28.9655  28.9895  29.0650  29.0823  29.1358  29.1617
    29.1630  29.1737  29.2108  29.2730  29.2966  29.3073  29.3895  29.4149
    29.4964  29.5106  29.5109  29.5150  29.5600  29.6060  29.6464  29.6885
    29.6931  29.7100  29.8142  29.8967  29.9537  30.0056  30.0349  30.1945
    30.1990  30.2134  30.3176  30.3894  30.4027  30.5679  30.7460  30.7553
    30.8233  30.8734  30.8956  30.9146  30.9879  31.0498  31.0950  31.1082
    31.1412  31.1661  31.3496  31.5046  31.5623  31.6053  31.6443  31.6656
    31.7582  31.7596  31.7685  31.9177  31.9284  32.0309  32.0318  32.0487
    32.1361  32.1529  32.1748  32.1941

          k = 0.0000 0.0000-0.1174 ( 28452 PWs)   bands (ev):

   -29.2792 -29.2786 -28.9314 -28.9310 -20.2222 -20.2221 -19.9000 -19.8998
   -19.1603 -19.1602 -18.0994 -18.0994 -16.8980 -16.8978 -14.8848 -14.8847
   -13.5977 -13.5975 -12.3854 -12.3853 -11.3473 -11.3472 -11.0081 -11.0074
   -10.1108 -10.1106  -9.8386  -9.8380  -9.8372  -9.8361  -9.2523  -9.2515
    -9.0599  -9.0596  -8.9538  -8.9534  -8.7309  -8.7309  -8.2586  -8.2584
    -7.8872  -7.8871  -7.7251  -7.7250  -7.3285  -7.3285  -6.4694  -6.4692
    -6.2567  -6.2564  -5.4053  -5.4051  -4.3290  -4.3287   0.0067   0.0069
     1.3496   1.3497   2.6474   2.6477   2.8815   2.8816   3.0696   3.0698
     3.4744   3.4744   3.8939   3.8940   4.0867   4.0867   4.4380   4.4381
     4.5075   4.5075   4.5266   4.5266   4.8660   4.8662   4.9085   4.9086
     5.0714   5.0718   5.2407   5.2407   5.4979   5.4980   5.6491   5.6491
     5.7291   5.7291   5.7860   5.7860   5.8786   5.8786   5.9351   5.9351
     6.0284   6.0284   6.0997   6.0999   6.4033   6.4035   6.5881   6.5881
     6.8568   6.8569   7.2299   7.2299   7.3139   7.3139   7.3353   7.3354
     7.5953   7.5953   7.7943   7.7943   7.8983   7.8984   8.1208   8.1209
     8.4837   8.4837   9.0615   9.0616   9.1722   9.1722   9.5180   9.5180
     9.6007   9.6007   9.8325   9.8325   9.9331   9.9332  10.0167  10.0168
    10.0426  10.0426  10.1508  10.1508  10.2048  10.2051  10.3432  10.3433
    10.5482  10.5484  10.8450  10.8450  10.9445  10.9445  11.1856  11.1856
    11.3659  11.3659  11.4958  11.4958  11.7764  11.7767  12.0103  12.0104
    12.0693  12.0693  12.1668  12.1668  12.1769  12.1769  12.2881  12.2881
    12.4925  12.4926  12.7159  12.7160  13.1111  13.1112  13.2032  13.2032
    13.3997  13.3999  13.5447  13.5447  13.5604  13.5604  13.6954  13.6954
    14.0217  14.0218  14.2311  14.2311  14.4696  14.4696  14.5473  14.5475
    14.6806  14.6807  15.1481  15.1483  15.1693  15.1693  15.2795  15.2795
    15.5267  15.5268  15.5996  15.5996  15.7284  15.7284  15.8333  15.8334
    15.9696  15.9698  16.3250  16.3250  16.6076  16.6079  16.6636  16.6637
    16.8603  16.8603  17.0847  17.0848  17.1378  17.1379  17.3837  17.3837
    17.5714  17.5715  17.6000  17.6000  17.9529  17.9529  18.0261  18.0261
    18.1074  18.1077  18.1293  18.1293  18.4484  18.4484  18.6097  18.6097
    18.7205  18.7205  18.8323  18.8323  19.2814  19.2814  19.3586  19.3587
    19.6169  19.6170  19.6831  19.6831  19.6912  19.6912  19.7336  19.7336
    19.9543  19.9543  20.0076  20.0077  20.0171  20.0171  20.0778  20.0778
    20.3027  20.3028  20.4668  20.4669  20.6065  20.6066  20.8146  20.8146
    20.9001  20.9001  21.0019  21.0021  21.0089  21.0091  21.0935  21.0936
    21.1197  21.1198  21.1518  21.1520  21.2289  21.2290  21.4528  21.4528
    21.5531  21.5531  21.6683  21.6683  21.7956  21.7957  21.8152  21.8153
    21.8733  21.8734  21.9057  21.9057  22.1114  22.1115  22.2511  22.2512
    22.3120  22.3121  22.3693  22.3694  22.3814  22.3815  22.3977  22.3978
    22.6007  22.6007  22.6940  22.6941  22.8356  22.8357  23.0082  23.0082
    23.0679  23.0679  23.1442  23.1442  23.1827  23.1827  23.2716  23.2717
    23.4009  23.4009  23.4690  23.4691  23.4754  23.4756  23.6308  23.6310
    23.8066  23.8066  23.9444  23.9444  24.1135  24.1135  24.1911  24.1911
    24.3616  24.3616  24.4207  24.4207  24.4818  24.4818  24.5692  24.5692
    24.6211  24.6211  24.7135  24.7136  24.7814  24.7814  24.8407  24.8407
    25.0644  25.0644  25.0723  25.0724  25.4078  25.4078  25.5054  25.5055
    25.6430  25.6430  25.7023  25.7023  25.8976  25.8976  25.9456  25.9456
    25.9950  25.9950  26.2645  26.2645  26.2689  26.2690  26.3511  26.3512
    26.3976  26.3977  26.5471  26.5471  26.6845  26.6846  26.6971  26.6971
    26.8001  26.8002  26.8190  26.8190  26.9492  26.9492  27.2000  27.2000
    27.2876  27.2877  27.5052  27.5053  27.6147  27.6147  27.6801  27.6801
    27.7875  27.7875  27.9712  27.9712  28.1607  28.1608  28.1886  28.1887
    28.2561  28.2561  28.3437  28.3438  28.3835  28.3835  28.4674  28.4674
    28.5181  28.5181  28.5785  28.5785  28.6072  28.6073  28.7688  28.7688
    28.8504  28.8505  28.9659  28.9659  28.9768  28.9769  29.0608  29.0608
    29.2159  29.2160  29.2798  29.2798  29.3827  29.3827  29.4143  29.4144
    29.4852  29.4852  29.5028  29.5028  29.6037  29.6037  29.6110  29.6110
    29.6551  29.6551  29.7402  29.7403  29.8120  29.8121  30.0890  30.0890
    30.2176  30.2176  30.3168  30.3168  30.3405  30.3406  30.7893  30.7894
    30.8922  30.8922  31.0061  31.0062  31.0112  31.0112  31.0564  31.0565
    31.3916  31.3916  31.4659  31.4659  31.5344  31.5345  31.6823  31.6823
    31.7479  31.7480  31.7942  31.7943  31.9458  31.9458  31.9813  31.9813
    32.0633  32.0633  32.0737  32.0737

     the Fermi energy is    -2.4362 ev

     Writing output data file F10.save/

     init_run     :      5.10s CPU      5.22s WALL (       1 calls)
     electrons    :   2139.53s CPU   2166.00s WALL (       1 calls)

     Called by init_run:
     wfcinit      :      0.00s CPU      0.00s WALL (       1 calls)
     potinit      :      0.29s CPU      0.32s WALL (       1 calls)
     hinit0       :      4.26s CPU      4.29s WALL (       1 calls)

     Called by electrons:
     c_bands      :   2139.53s CPU   2165.98s WALL (       1 calls)
     v_of_rho     :      0.23s CPU      0.25s WALL (       1 calls)
     newd         :      0.15s CPU      0.19s WALL (       1 calls)

     Called by c_bands:
     init_us_2    :      0.00s CPU      0.09s WALL (      26 calls)
     cegterg      :   2104.91s CPU   2129.47s WALL (      26 calls)

     Called by sum_band:

     Called by *egterg:
     h_psi        :    192.02s CPU    196.55s WALL (     468 calls)
     s_psi        :     12.46s CPU     12.51s WALL (     468 calls)
     g_psi        :      1.77s CPU      1.78s WALL (     416 calls)
     cdiaghg      :   1548.02s CPU   1556.01s WALL (     442 calls)

     Called by h_psi:
     h_psi:pot    :    190.17s CPU    193.92s WALL (     468 calls)
     h_psi:calbec :     13.41s CPU     13.84s WALL (     468 calls)
     vloc_psi     :    164.47s CPU    167.73s WALL (     468 calls)
     add_vuspsi   :     12.28s CPU     12.34s WALL (     468 calls)

     General routines
     calbec       :     13.41s CPU     13.84s WALL (     468 calls)
     fft          :      0.23s CPU      0.25s WALL (      14 calls)
     ffts         :      0.00s CPU      0.00s WALL (       1 calls)
     fftw         :    148.74s CPU    151.70s WALL (  283626 calls)
     interpolate  :      0.01s CPU      0.01s WALL (       1 calls)
     davcio       :      0.00s CPU      0.67s WALL (      52 calls)

     Parallel routines
     fft_scatt_xy :     24.52s CPU     24.96s WALL (  283641 calls)
     fft_scatt_yz :     41.04s CPU     42.22s WALL (  283641 calls)

     PWSCF        : 35m50.70s CPU    38m25.15s WALL


   This run was terminated on:   0:28:27  20Apr2021            

=------------------------------------------------------------------------------=
   JOB DONE.
=------------------------------------------------------------------------------=
