
     Program PWSCF v.6.3 starts on 20Apr2021 at  0:46:52 

     This program is part of the open-source Quantum ESPRESSO suite
     for quantum simulation of materials; please cite
         "P. Giannozzi et al., J. Phys.:Condens. Matter 21 395502 (2009);
         "P. Giannozzi et al., J. Phys.:Condens. Matter 29 465901 (2017);
          URL http://www.quantum-espresso.org", 
     in publications or presentations arising from this work. More details at
     http://www.quantum-espresso.org/quote

     Parallel version (MPI), running on    16 processors
     R & G space division:  proc/nbgrp/npool/nimage =      16
     Waiting for input...
     Reading input from standard input
     Message from routine read_cards :
     DEPRECATED: no units specified in CELL_PARAMETERS card

     Current dimensions of program PWSCF are:
     Max number of different atomic species (ntypx) = 10
     Max number of k-points (npk) =  40000
     Max angular momentum in pseudopotentials (lmaxx) =  3

     Atomic positions and unit cell read from directory:
     /home/zfwang/scratch/GNRDATASET/AGNR/F11/F11.save/


     Subspace diagonalization in iterative solution of the eigenvalue problem:
     a serial algorithm will be used


     Parallelization info
     --------------------
     sticks:   dense  smooth     PW     G-vecs:    dense   smooth      PW
     Min        2078     692    195                77809    14976    2240
     Max        2080     694    197                77810    14977    2241
     Sum       33255   11089   3135              1244955   239621   35851



     bravais-lattice index     =            0
     lattice parameter (alat)  =       1.8897  a.u.
     unit-cell volume          =    7011.6140 (a.u.)^3
     number of atoms/cell      =           26
     number of atomic types    =            2
     number of electrons       =       116.00
     number of Kohn-Sham states=          500
     kinetic-energy cutoff     =      40.0000  Ry
     charge density cutoff     =     480.0000  Ry
     Exchange-correlation      = PBE ( 1  4  3  4 0 0)

     celldm(1)=  18.897261  celldm(2)=   2.439000  celldm(3)=   0.426000
     celldm(4)=   0.000000  celldm(5)=   0.000000  celldm(6)=   0.000000

     crystal axes: (cart. coord. in units of alat)
               a(1) = (  10.000000   0.000000   0.000000 )  
               a(2) = (   0.000000  24.390000   0.000000 )  
               a(3) = (   0.000000   0.000000   4.260000 )  

     reciprocal axes: (cart. coord. in units 2 pi/alat)
               b(1) = (  0.100000  0.000000  0.000000 )  
               b(2) = (  0.000000  0.041000  0.000000 )  
               b(3) = (  0.000000  0.000000  0.234742 )  


     PseudoPot. # 1 for C  read from file:
     /home/zfwang/hp_home/MySoftware/qe-6.3/pseudo/C.pbe-n-rrkjus_psl.0.1.UPF
     MD5 check sum: fff530ed632a789b3b184014e67dd7f1
     Pseudo is Ultrasoft + core correction, Zval =  4.0
     Generated using "atomic" code by A. Dal Corso v.5.0.2 svn rev. 9415
     Using radial grid of 1073 points,  4 beta functions with: 
                l(1) =   0
                l(2) =   0
                l(3) =   1
                l(4) =   1
     Q(r) pseudized with 0 coefficients 


     PseudoPot. # 2 for F  read from file:
     /home/zfwang/hp_home/MySoftware/qe-6.3/pseudo/F.pbe-n-rrkjus_psl.0.1.UPF
     MD5 check sum: 147397eca92fbb10e5415488e6f13084
     Pseudo is Ultrasoft + core correction, Zval =  7.0
     Generated using "atomic" code by A. Dal Corso v.5.0.2 svn rev. 9415
     Using radial grid of 1105 points,  4 beta functions with: 
                l(1) =   0
                l(2) =   0
                l(3) =   1
                l(4) =   1
     Q(r) pseudized with 0 coefficients 


     atomic species   valence    mass     pseudopotential
        C              4.00    12.01070     C ( 1.00)
        F              7.00    18.99840     F ( 1.00)

     No symmetry found



   Cartesian axes

     site n.     atom                  positions (alat units)
         1           C   tau(   1) = (   5.0000025   6.0933681   2.8054489  )
         2           C   tau(   2) = (   4.9999997   7.2675933   3.5538643  )
         3           C   tau(   3) = (   5.0000045   6.0933668   1.4545477  )
         4           C   tau(   4) = (   4.9999982   8.4969475   2.8385602  )
         5           C   tau(   5) = (   4.9999979   9.7320592   3.5510430  )
         6           C   tau(   6) = (   5.0000008   7.2675930   0.7061325  )
         7           C   tau(   7) = (   4.9999986   8.4969476   1.4214381  )
         8           C   tau(   8) = (   4.9999985  10.9621349   2.8407692  )
         9           C   tau(   9) = (   4.9999985  12.1948776   3.5503719  )
        10           C   tau(  10) = (   4.9999987   9.7320581   0.7089566  )
        11           C   tau(  11) = (   4.9999997  10.9621360   1.4192320  )
        12           C   tau(  12) = (   4.9999983  13.4276675   2.8407574  )
        13           C   tau(  13) = (   4.9999985  14.6577992   3.5511131  )
        14           C   tau(  14) = (   4.9999992  12.1948769   0.7096315  )
        15           C   tau(  15) = (   4.9999989  13.4276681   1.4192474  )
        16           C   tau(  16) = (   4.9999995  15.8930300   2.8384187  )
        17           C   tau(  17) = (   5.0000021  17.1225118   3.5540025  )
        18           C   tau(  18) = (   4.9999993  14.6577993   0.7088912  )
        19           C   tau(  19) = (   5.0000000  15.8930323   1.4215836  )
        20           C   tau(  20) = (   5.0000054  18.2967921   2.8052516  )
        21           C   tau(  21) = (   4.9999994  17.1225108   0.7059961  )
        22           C   tau(  22) = (   4.9999956  18.2967952   1.4547462  )
        23           F   tau(  23) = (   4.9999999   4.8305731   3.2313906  )
        24           F   tau(  24) = (   5.0000064   4.8305713   1.0286085  )
        25           F   tau(  25) = (   5.0000195  19.5596379   3.2314033  )
        26           F   tau(  26) = (   4.9999813  19.5596408   1.0285963  )

     number of k points=    26  Marzari-Vanderbilt smearing, width (Ry)=  0.0100
                       cart. coord. in units 2pi/alat
        k(    1) = (   0.0000000   0.0000000   0.0000000), wk =   0.0400000
        k(    2) = (   0.0000000   0.0000000   0.0046948), wk =   0.0800000
        k(    3) = (   0.0000000   0.0000000   0.0093897), wk =   0.0800000
        k(    4) = (   0.0000000   0.0000000   0.0140845), wk =   0.0800000
        k(    5) = (   0.0000000   0.0000000   0.0187793), wk =   0.0800000
        k(    6) = (   0.0000000   0.0000000   0.0234742), wk =   0.0800000
        k(    7) = (   0.0000000   0.0000000   0.0281690), wk =   0.0800000
        k(    8) = (   0.0000000   0.0000000   0.0328638), wk =   0.0800000
        k(    9) = (   0.0000000   0.0000000   0.0375587), wk =   0.0800000
        k(   10) = (   0.0000000   0.0000000   0.0422535), wk =   0.0800000
        k(   11) = (   0.0000000   0.0000000   0.0469484), wk =   0.0800000
        k(   12) = (   0.0000000   0.0000000   0.0516432), wk =   0.0800000
        k(   13) = (   0.0000000   0.0000000   0.0563380), wk =   0.0800000
        k(   14) = (   0.0000000   0.0000000   0.0610329), wk =   0.0800000
        k(   15) = (   0.0000000   0.0000000   0.0657277), wk =   0.0800000
        k(   16) = (   0.0000000   0.0000000   0.0704225), wk =   0.0800000
        k(   17) = (   0.0000000   0.0000000   0.0751174), wk =   0.0800000
        k(   18) = (   0.0000000   0.0000000   0.0798122), wk =   0.0800000
        k(   19) = (   0.0000000   0.0000000   0.0845070), wk =   0.0800000
        k(   20) = (   0.0000000   0.0000000   0.0892019), wk =   0.0800000
        k(   21) = (   0.0000000   0.0000000   0.0938967), wk =   0.0800000
        k(   22) = (   0.0000000   0.0000000   0.0985915), wk =   0.0800000
        k(   23) = (   0.0000000   0.0000000   0.1032864), wk =   0.0800000
        k(   24) = (   0.0000000   0.0000000   0.1079812), wk =   0.0800000
        k(   25) = (   0.0000000   0.0000000   0.1126761), wk =   0.0800000
        k(   26) = (   0.0000000   0.0000000  -0.1173709), wk =   0.0400000

     Dense  grid:  1244955 G-vectors     FFT dimensions: ( 135, 324,  60)

     Smooth grid:   239621 G-vectors     FFT dimensions: (  80, 192,  36)

     Estimated max dynamical RAM per process >     401.35 MB

     Estimated total dynamical RAM >       6.27 GB

     Check: negative/imaginary core charge=   -0.000005    0.000000

     The potential is recalculated from file :
     /home/zfwang/scratch/GNRDATASET/AGNR/F11/F11.save/charge-density.dat


     negative rho (up, down):  1.861E-03 0.000E+00
     Starting wfcs are  104 randomized atomic wfcs +  396 random wfcs

     Band Structure Calculation
     Davidson diagonalization with overlap
     c_bands:  1 eigenvalues not converged
     c_bands:  1 eigenvalues not converged
     c_bands:  3 eigenvalues not converged
     c_bands:  1 eigenvalues not converged

     ethr =  8.62E-09,  avg # of iterations = 47.8

     total cpu time spent up to now is     2857.9 secs

     End of band structure calculation

          k = 0.0000 0.0000 0.0000 ( 29879 PWs)   bands (ev):

   -29.7453 -29.7428 -28.1643 -28.1616 -21.5819 -21.3058 -20.6814 -19.7691
   -18.6081 -17.3455 -16.3447 -16.3230 -16.1486 -15.7814 -15.6252 -15.4012
   -14.9919 -14.9143 -14.8422 -13.8258 -13.0367 -12.7619 -12.7165 -12.4999
   -12.2298 -11.7143 -11.2745 -11.1081 -10.8865 -10.4712 -10.4645 -10.1951
    -9.9106  -9.8549  -9.4902  -9.0712  -8.9191  -8.7483  -8.5551  -8.1701
    -8.1678  -8.0992  -7.8248  -7.0795  -7.0668  -7.0174  -6.2287  -5.8633
    -5.8595  -5.5654  -5.4827  -5.4531  -4.5259  -4.2993  -3.8701  -3.1980
    -3.0973  -2.0392  -2.0118  -1.2477  -0.7812  -0.6206  -0.4932   0.9906
     1.0115   1.2283   1.5514   2.0952   2.4157   2.6725   2.7826   2.7941
     2.9378   3.1183   3.2696   3.5447   3.5868   3.7976   3.8491   3.9748
     4.1493   4.2686   4.6655   4.7416   4.8587   5.0803   5.1036   5.2959
     5.5127   5.7581   5.8291   5.9576   6.1368   6.2848   6.2988   6.4423
     6.7157   6.7320   6.8443   7.1956   7.2777   7.4941   7.5645   7.5913
     7.6591   7.9319   7.9903   8.2048   8.2413   8.2940   8.4102   8.5473
     8.5583   8.5762   8.6321   8.6539   8.8855   8.9928   9.0074   9.1164
     9.1374   9.1454   9.1639   9.2347   9.4371   9.4543   9.5146   9.5922
     9.6663   9.6810   9.7251   9.8015   9.8555   9.9833  10.0127  10.1159
    10.1524  10.1728  10.1966  10.2271  10.2822  10.4009  10.4907  10.4910
    10.5004  10.5059  10.5378  10.7074  10.7566  10.7879  10.8338  10.9554
    10.9991  11.0114  11.1404  11.1720  11.1876  11.3898  11.4220  11.4309
    11.4775  11.6255  11.6497  11.6504  11.6588  11.8085  11.8360  11.9001
    11.9512  11.9653  12.0033  12.0111  12.0449  12.1165  12.1597  12.3048
    12.3194  12.3213  12.4600  12.4916  12.4963  12.5764  12.5982  12.6159
    12.7593  13.0655  13.2380  13.2567  13.2620  13.2624  13.2786  13.3109
    13.4444  13.6086  13.7061  13.7448  13.7505  13.7582  13.8666  13.9363
    14.0565  14.0609  14.1549  14.2464  14.3964  14.6012  14.6280  14.7652
    14.8208  14.9148  14.9501  14.9629  14.9775  15.1401  15.3616  15.3650
    15.4167  15.4317  15.4820  15.5966  15.6993  15.7133  15.7856  15.7889
    15.9150  15.9893  16.0053  16.0064  16.1056  16.1228  16.1636  16.1844
    16.1937  16.3218  16.3275  16.4899  16.5440  16.5484  16.5488  16.7031
    16.7131  16.8638  16.9624  17.0197  17.0298  17.0340  17.1129  17.1136
    17.1149  17.1295  17.2321  17.2557  17.3008  17.3015  17.4077  17.4098
    17.5397  17.5411  17.5609  17.6126  17.6685  17.7113  17.8379  17.8763
    17.8913  17.9867  18.0443  18.1046  18.2028  18.2086  18.3233  18.3554
    18.4271  18.4356  18.5377  18.5445  18.5637  18.5703  18.6896  18.7070
    18.9307  19.0418  19.1271  19.1301  19.2719  19.2869  19.4220  19.4381
    19.4576  19.4619  19.6406  19.6587  19.7400  19.9109  19.9769  19.9948
    20.0904  20.1109  20.1553  20.1658  20.2635  20.3140  20.4329  20.5259
    20.5259  20.5854  20.6449  20.6471  20.6578  20.7476  20.8283  20.8660
    20.9934  21.0553  21.0809  21.2177  21.3613  21.3979  21.4340  21.4948
    21.5673  21.5711  21.5998  21.6796  21.7015  21.7187  21.7567  21.9091
    21.9218  21.9466  21.9485  21.9622  21.9661  21.9944  22.0577  22.1838
    22.1942  22.2329  22.2660  22.2987  22.4464  22.4839  22.5086  22.5337
    22.5604  22.5624  22.5658  22.7775  22.8101  22.8990  23.0636  23.0979
    23.4132  23.4857  23.4920  23.5250  23.6002  23.6254  23.6524  23.7219
    23.7984  23.8058  23.8374  23.8710  23.8834  23.9230  23.9294  24.0036
    24.0524  24.1926  24.3942  24.5430  24.5458  24.5527  24.5620  24.6297
    24.7067  24.7562  24.7821  24.8220  24.9082  24.9579  25.1599  25.1935
    25.1944  25.2109  25.2830  25.3648  25.3672  25.4040  25.6082  25.6347
    25.6782  25.7214  25.8154  25.8173  25.8700  25.9485  25.9995  26.0110
    26.0216  26.1280  26.1785  26.2690  26.3207  26.4786  26.5255  26.6465
    26.7644  26.7813  26.8027  26.8298  26.9722  26.9817  27.0223  27.0643
    27.1262  27.1944  27.2144  27.2704  27.3105  27.3896  27.4077  27.4476
    27.5467  27.6092  27.6136  27.6788  27.7741  27.7796  27.8956  27.9041
    27.9394  27.9527  28.0971  28.1753  28.3208  28.3607  28.3896  28.4378
    28.6726  28.8147  28.8577  28.9164  28.9250  28.9393  29.0161  29.0258
    29.0523  29.0656  29.1738  29.2124  29.3006  29.3164  29.4430  29.5591
    29.5993  29.6441  29.6513  29.6731  29.6926  29.6971  29.6978  29.7487
    29.8966  29.9287  30.0124  30.0719  30.1220  30.1459  30.1879  30.2361
    30.3311  30.4384  30.4710  30.5985  30.6083  30.7785  30.7838  30.8691
    30.8786  31.0923  31.2086  31.2223  31.2323  31.3320  31.3595  31.5551
    31.5584  31.5997  31.6282  31.6539  31.9379  32.0149  32.0288  32.0312
    32.0410  32.1629  32.2278  32.2586

          k = 0.0000 0.0000 0.0047 ( 29883 PWs)   bands (ev):

   -29.7440 -29.7416 -28.1661 -28.1634 -21.5796 -21.3035 -20.6792 -19.7669
   -18.6059 -17.3441 -16.4195 -16.2918 -16.2066 -15.7438 -15.6642 -15.3612
   -14.9695 -14.9471 -14.7722 -13.8441 -13.0229 -12.7828 -12.7082 -12.4823
   -12.2195 -11.7250 -11.2679 -11.0982 -10.8919 -10.4693 -10.4626 -10.1945
    -9.9146  -9.8470  -9.4876  -9.0692  -8.9166  -8.7407  -8.5645  -8.1723
    -8.1700  -8.0968  -7.8186  -7.0954  -7.0773  -6.9982  -6.2365  -5.8644
    -5.8613  -5.5697  -5.4878  -5.4538  -4.5248  -4.3155  -3.8878  -3.2024
    -3.1192  -2.1887  -1.8625  -1.2229  -0.7604  -0.6192  -0.4735   0.9863
     1.0147   1.2314   1.5545   2.0982   2.4190   2.6757   2.7764   2.7965
     2.9410   3.1207   3.2729   3.5479   3.5901   3.8008   3.8522   3.9780
     4.1518   4.2716   4.6578   4.7440   4.8613   5.0836   5.1080   5.2990
     5.5150   5.7607   5.8221   5.9603   6.1251   6.2970   6.3044   6.4350
     6.7195   6.7357   6.8299   7.1986   7.2615   7.4970   7.5666   7.5991
     7.6624   7.9239   7.9935   8.2080   8.2234   8.2988   8.3922   8.5419
     8.5526   8.5793   8.6313   8.6562   8.7761   8.8855   8.9846   9.1023
     9.1194   9.1671   9.2145   9.2178   9.3875   9.5179   9.5774   9.6360
     9.6713   9.6740   9.7018   9.7495   9.8929   9.9874  10.0079  10.0140
    10.1471  10.1526  10.1891  10.1992  10.2585  10.2703  10.4054  10.4594
    10.4812  10.6632  10.7552  10.7969  10.8137  10.8175  10.8517  10.9626
    10.9908  11.0260  11.0274  11.1126  11.1899  11.3270  11.3672  11.4320
    11.4326  11.4848  11.6133  11.6580  11.6815  11.7011  11.8998  11.9276
    11.9458  11.9814  12.0401  12.0463  12.1098  12.1334  12.1950  12.2105
    12.2536  12.3324  12.5094  12.5386  12.5396  12.5683  12.6056  12.8242
    12.8401  13.0484  13.1087  13.1620  13.1913  13.3070  13.3974  13.4127
    13.4169  13.4857  13.5723  13.7575  13.7680  13.9019  13.9059  13.9685
    14.0879  14.0960  14.2057  14.2444  14.4686  14.6033  14.6117  14.7629
    14.8083  14.8806  14.9394  14.9498  14.9630  15.1595  15.3021  15.3657
    15.4117  15.4254  15.4536  15.6040  15.7091  15.7191  15.7454  15.8262
    15.8326  15.9239  15.9573  16.0948  16.0983  16.1260  16.1568  16.1936
    16.2905  16.3464  16.3679  16.3708  16.4802  16.5882  16.5903  16.7830
    16.8423  16.8812  16.8921  16.9960  16.9979  17.0270  17.0596  17.1220
    17.1346  17.1552  17.1732  17.2173  17.2954  17.3191  17.4038  17.4631
    17.5171  17.5521  17.5562  17.6082  17.6198  17.6829  17.7722  17.8895
    18.0126  18.0220  18.0223  18.1494  18.1900  18.2681  18.3042  18.3937
    18.3946  18.3994  18.4140  18.5404  18.5819  18.5920  18.6827  18.8510
    18.9935  19.1113  19.1391  19.1626  19.2974  19.3217  19.4339  19.4548
    19.4748  19.5193  19.5860  19.6540  19.6579  19.8096  19.8939  20.0091
    20.0886  20.1391  20.1647  20.1960  20.3543  20.3663  20.3781  20.4011
    20.4361  20.5635  20.6544  20.7279  20.8076  20.8284  20.8455  20.9136
    20.9919  21.0661  21.0885  21.2369  21.3275  21.3729  21.4098  21.4301
    21.5098  21.5689  21.5958  21.6395  21.6942  21.7118  21.7529  21.8700
    21.8923  21.9077  21.9249  21.9914  22.0358  22.0931  22.1217  22.1906
    22.2158  22.2205  22.3010  22.3279  22.4476  22.4811  22.5048  22.5377
    22.5488  22.6051  22.6120  22.7832  22.8621  22.9078  23.0832  23.0865
    23.2672  23.3579  23.4178  23.5446  23.5642  23.5907  23.6294  23.7089
    23.7942  23.8025  23.8222  23.8961  23.9203  23.9277  23.9625  24.1127
    24.1583  24.2844  24.4047  24.4280  24.4559  24.4843  24.5340  24.5999
    24.7531  24.7551  24.8884  24.9098  24.9359  24.9757  25.1248  25.1668
    25.1677  25.2122  25.3267  25.3424  25.3564  25.4046  25.5735  25.5871
    25.6884  25.7809  25.7960  25.8203  25.8946  25.9597  26.0351  26.0557
    26.0634  26.0957  26.1803  26.2496  26.3233  26.4827  26.5291  26.6663
    26.6840  26.6954  26.7172  26.9115  26.9494  27.0328  27.0453  27.0852
    27.1221  27.1403  27.1917  27.2507  27.3331  27.4137  27.4142  27.4442
    27.4763  27.6455  27.6755  27.7077  27.7497  27.8133  27.8475  27.8747
    27.9432  28.0970  28.0992  28.3083  28.3232  28.3695  28.3999  28.4447
    28.6710  28.8065  28.8511  28.8635  28.8639  28.8919  28.9863  29.0075
    29.0359  29.0555  29.1593  29.1860  29.3004  29.3132  29.4000  29.4667
    29.5339  29.5342  29.5415  29.6259  29.6735  29.7089  29.7234  29.8376
    29.9648  29.9736  30.0663  30.0957  30.1525  30.2428  30.2468  30.3554
    30.4364  30.4598  30.5212  30.5894  30.6312  30.6995  30.8980  30.9053
    30.9064  30.9607  31.2388  31.2843  31.3001  31.3286  31.3754  31.4912
    31.5450  31.5610  31.5789  31.6175  31.8932  31.9480  32.0084  32.0503
    32.1095  32.1838  32.2279  32.3106

          k = 0.0000 0.0000 0.0094 ( 29875 PWs)   bands (ev):

   -29.7403 -29.7378 -28.1715 -28.1688 -21.5725 -21.2965 -20.6723 -19.7602
   -18.5996 -17.3400 -16.5440 -16.3345 -16.2857 -15.7555 -15.6842 -15.2561
   -15.0240 -14.8361 -14.6659 -13.8951 -12.9846 -12.8409 -12.6760 -12.4415
   -12.1896 -11.7553 -11.2491 -11.0700 -10.9070 -10.4637 -10.4572 -10.1939
    -9.9250  -9.8240  -9.4796  -9.0634  -8.9092  -8.7185  -8.5914  -8.1791
    -8.1767  -8.0897  -7.8015  -7.1471  -7.0705  -6.9744  -6.2595  -5.8787
    -5.8553  -5.5835  -5.5020  -5.4556  -4.5218  -4.3632  -3.9394  -3.2225
    -3.1744  -2.3509  -1.7005  -1.1523  -0.6998  -0.6148  -0.4152   0.9735
     1.0242   1.2407   1.5637   2.1074   2.4288   2.6853   2.7580   2.8038
     2.9506   3.1280   3.2826   3.5576   3.5998   3.8104   3.8614   3.9877
     4.1592   4.2807   4.6350   4.7511   4.8692   5.0936   5.1210   5.3085
     5.5216   5.7683   5.8025   5.9684   6.0973   6.3186   6.3278   6.4133
     6.7309   6.7468   6.7906   7.2077   7.2137   7.5057   7.5744   7.6175
     7.6723   7.9001   8.0030   8.1629   8.2174   8.3128   8.3414   8.4873
     8.5147   8.5681   8.5887   8.5978   8.6626   8.8844   8.9603   8.9696
     9.0996   9.1285   9.1610   9.1768   9.4799   9.5478   9.5489   9.5632
     9.6413   9.7358   9.7503   9.7884   9.8548   9.8885   9.9251   9.9695
    10.0230  10.1212  10.1237  10.1509  10.2080  10.4113  10.4286  10.4919
    10.6209  10.6652  10.7782  10.8029  10.8508  10.8901  10.9128  10.9307
    11.0115  11.0260  11.0835  11.1133  11.1319  11.2114  11.2550  11.2672
    11.3818  11.4213  11.4837  11.6610  11.6761  11.6915  11.7973  11.8713
    11.9542  11.9972  12.0398  12.0429  12.0711  12.1592  12.2412  12.2838
    12.3474  12.4537  12.5529  12.6178  12.6307  12.6679  12.6999  12.8673
    12.9658  13.0666  13.0874  13.1477  13.1630  13.3048  13.3347  13.3679
    13.4542  13.5069  13.6124  13.7787  13.8090  13.9103  13.9275  13.9388
    14.1977  14.2080  14.2469  14.4751  14.5241  14.5903  14.5903  14.7542
    14.8426  14.8594  14.8727  14.8916  14.9587  15.1609  15.2010  15.3440
    15.3652  15.4314  15.4654  15.5205  15.5806  15.7191  15.7472  15.8566
    15.9020  15.9079  15.9223  16.0313  16.0467  16.0942  16.1421  16.2235
    16.2325  16.3713  16.4282  16.4897  16.5960  16.6321  16.6565  16.7571
    16.8324  16.8715  16.9177  16.9289  16.9549  17.0195  17.0415  17.0638
    17.1156  17.1327  17.2511  17.2719  17.2828  17.3624  17.3708  17.4250
    17.4800  17.5013  17.5136  17.5818  17.6344  17.6540  17.9345  17.9684
    18.0026  18.0039  18.0796  18.0926  18.1455  18.1920  18.2638  18.3938
    18.4158  18.4378  18.4819  18.5811  18.6206  18.6832  18.7851  18.9905
    19.1127  19.1334  19.2356  19.2418  19.3917  19.3946  19.4094  19.4861
    19.5133  19.5174  19.5573  19.6404  19.6797  19.7010  19.7950  19.8250
    20.1675  20.1821  20.1994  20.2023  20.2081  20.2390  20.4456  20.5110
    20.5184  20.6293  20.6814  20.7355  20.8538  20.8877  20.9447  21.0271
    21.0595  21.0970  21.1091  21.1944  21.2164  21.3060  21.3141  21.4311
    21.5122  21.5339  21.5581  21.6195  21.6772  21.7131  21.7472  21.7837
    21.8164  21.8427  21.9842  22.0440  22.1285  22.1804  22.1833  22.2436
    22.2635  22.2719  22.3515  22.4420  22.4518  22.4725  22.4793  22.4900
    22.6019  22.7083  22.7111  22.8079  22.9021  22.9238  23.0503  23.1148
    23.1415  23.1619  23.3560  23.4252  23.4327  23.5749  23.5813  23.5948
    23.7625  23.7823  23.8216  23.8499  24.0057  24.0190  24.1493  24.1837
    24.2393  24.3200  24.3567  24.3813  24.4015  24.4359  24.5574  24.5694
    24.7462  24.8557  24.9168  24.9278  24.9995  25.0865  25.1049  25.1051
    25.1647  25.2233  25.3108  25.3472  25.3592  25.3986  25.4837  25.7029
    25.7647  25.7662  25.7726  25.8390  25.8489  25.9268  26.0326  26.0476
    26.0896  26.1682  26.2919  26.3250  26.3519  26.4980  26.5277  26.5447
    26.5609  26.5959  26.6572  26.8667  26.9548  27.0097  27.0250  27.1086
    27.1445  27.1659  27.1696  27.1926  27.3524  27.3838  27.4558  27.4967
    27.4971  27.5677  27.6846  27.7698  27.8275  27.9095  27.9393  27.9468
    27.9754  28.0751  28.2852  28.3304  28.3824  28.3980  28.4446  28.5497
    28.6611  28.7360  28.7555  28.8025  28.8068  28.8690  28.8799  28.8932
    28.9339  29.0046  29.1550  29.1631  29.2145  29.2158  29.2975  29.3180
    29.3995  29.4305  29.4703  29.5232  29.7083  29.7552  29.8125  29.8910
    30.0113  30.0727  30.1585  30.2655  30.2774  30.3274  30.3971  30.4198
    30.5392  30.6170  30.6270  30.7005  30.7706  30.7837  30.8138  30.9676
    30.9924  30.9936  31.2523  31.2642  31.2642  31.3402  31.3854  31.4237
    31.4478  31.5616  31.6020  31.6410  31.8568  31.8837  31.9082  32.0028
    32.0680  32.2282  32.3347  32.3757

          k = 0.0000 0.0000 0.0141 ( 29857 PWs)   bands (ev):

   -29.7341 -29.7316 -28.1805 -28.1777 -21.5608 -21.2849 -20.6609 -19.7491
   -18.5890 -17.3337 -16.6957 -16.4872 -16.3086 -15.8593 -15.6632 -15.1122
   -15.0366 -14.6913 -14.5473 -13.9703 -12.9284 -12.9205 -12.6213 -12.3915
   -12.1426 -11.8006 -11.2217 -11.0267 -10.9287 -10.4546 -10.4481 -10.1962
    -9.9376  -9.7872  -9.4662  -9.0544  -8.8968  -8.6835  -8.6321  -8.1901
    -8.1878  -8.0779  -7.7766  -7.2079  -7.0592  -6.9599  -6.2967  -5.9024
    -5.8453  -5.6099  -5.5220  -5.4595  -4.5169  -4.4394  -4.0210  -3.3004
    -3.2124  -2.5129  -1.5389  -1.0448  -0.6067  -0.6030  -0.3215   0.9527
     1.0402   1.2562   1.5790   2.1226   2.4452   2.7008   2.7281   2.8160
     2.9665   3.1400   3.2987   3.5736   3.6162   3.8265   3.8767   4.0038
     4.1715   4.2958   4.5983   4.7627   4.8823   5.1101   5.1417   5.3242
     5.5319   5.7730   5.7803   5.9815   6.0638   6.3383   6.3683   6.3776
     6.7360   6.7496   6.7651   7.1369   7.2229   7.5202   7.5887   7.6357
     7.6886   7.8608   8.0188   8.0517   8.2150   8.2329   8.2492   8.3351
     8.4834   8.4947   8.5932   8.6044   8.6722   8.8796   8.8962   8.9202
     8.9668   9.0234   9.1430   9.1925   9.4113   9.4808   9.5315   9.5460
     9.5673   9.5991   9.6127   9.6642   9.7915   9.7959  10.0329  10.0434
    10.0538  10.1305  10.1395  10.2226  10.3529  10.3790  10.4281  10.5130
    10.5824  10.6859  10.7429  10.7435  10.7770  10.8279  10.8569  10.8944
    10.9405  11.0026  11.1298  11.1380  11.1826  11.1963  11.2138  11.2975
    11.3764  11.4395  11.4754  11.5140  11.6378  11.6500  11.6802  11.8663
    11.8836  11.9382  12.0101  12.0236  12.1105  12.2158  12.3244  12.4023
    12.4474  12.5390  12.5526  12.6356  12.6615  12.7252  12.8258  12.8997
    12.9839  13.0826  13.1612  13.2004  13.3202  13.3435  13.3935  13.4649
    13.4709  13.6387  13.7194  13.8115  13.8208  13.8433  13.8619  13.9866
    14.0610  14.3270  14.4193  14.5215  14.6211  14.6815  14.7152  14.7524
    14.7721  14.8015  14.8231  14.9332  14.9367  15.1180  15.1822  15.2762
    15.3615  15.4107  15.4355  15.5001  15.5556  15.7039  15.7052  15.7538
    15.8122  15.8668  15.9490  16.0419  16.0634  16.1066  16.1993  16.2526
    16.2648  16.3552  16.4168  16.5045  16.6097  16.6351  16.6535  16.6757
    16.7949  16.8245  16.9264  16.9351  16.9950  17.0408  17.0541  17.0829
    17.1097  17.1428  17.2107  17.2185  17.2977  17.3577  17.3936  17.4725
    17.4825  17.5359  17.5917  17.6022  17.6450  17.6583  17.8555  17.9725
    17.9955  18.0150  18.0857  18.0951  18.1474  18.1728  18.2794  18.3079
    18.4703  18.5891  18.6483  18.6538  18.7097  18.8221  18.9924  18.9960
    19.1759  19.2195  19.2282  19.3025  19.3418  19.3723  19.4402  19.4756
    19.5264  19.5646  19.6298  19.6978  19.7152  19.7766  19.7879  19.7975
    20.0500  20.0576  20.2557  20.2654  20.2662  20.2711  20.4612  20.6366
    20.6688  20.6751  20.7081  20.7306  20.8534  20.8888  20.9314  20.9542
    21.0629  21.1294  21.1324  21.1464  21.2171  21.2321  21.3432  21.4671
    21.5103  21.5138  21.5875  21.6184  21.6711  21.6763  21.7415  21.7625
    21.7871  21.8524  22.0778  22.0781  22.1975  22.2151  22.2267  22.3081
    22.3208  22.3620  22.3881  22.4008  22.4511  22.4651  22.4858  22.5814
    22.6851  22.7361  22.7857  22.8186  22.8590  22.8739  23.0059  23.0661
    23.1453  23.1981  23.2435  23.3482  23.4334  23.5259  23.5598  23.6095
    23.7388  23.7441  23.7509  23.8315  23.8425  24.0161  24.1178  24.1829
    24.2532  24.2823  24.2908  24.4813  24.4914  24.5106  24.5855  24.6042
    24.7223  24.9532  24.9753  24.9853  25.0521  25.0599  25.0827  25.0875
    25.1639  25.2460  25.3030  25.3576  25.4028  25.4275  25.5589  25.6899
    25.7223  25.7224  25.7569  25.8915  25.9654  26.0068  26.0112  26.0213
    26.0440  26.1537  26.3142  26.3832  26.4206  26.4494  26.4633  26.5086
    26.5756  26.6313  26.6676  26.6959  26.8726  26.9291  26.9445  27.0808
    27.1594  27.1724  27.1923  27.2700  27.4116  27.4247  27.5056  27.5153
    27.5481  27.5697  27.6891  27.8344  27.9593  27.9734  27.9826  28.0426
    28.0631  28.1970  28.3420  28.3567  28.3924  28.4236  28.4408  28.5745
    28.6330  28.6588  28.6800  28.6931  28.6986  28.7210  28.7873  28.9080
    28.9662  28.9672  28.9773  29.0623  29.1054  29.2300  29.2515  29.2555
    29.2878  29.3303  29.3432  29.5743  29.7712  29.8516  29.8656  29.9169
    30.1460  30.1527  30.1739  30.3188  30.3331  30.4365  30.4742  30.6578
    30.6610  30.6967  30.7810  30.8942  30.8980  30.9028  30.9176  31.0389
    31.0418  31.1126  31.1545  31.1793  31.2365  31.3093  31.3562  31.4995
    31.5706  31.5958  31.5999  31.6080  31.7527  31.8145  31.8598  32.0216
    32.0855  32.0939  32.1094  32.1153

          k = 0.0000 0.0000 0.0188 ( 29891 PWs)   bands (ev):

   -29.7254 -29.7229 -28.1929 -28.1902 -21.5443 -21.2687 -20.6449 -19.7334
   -18.5742 -17.3262 -16.8624 -16.6480 -16.3655 -15.9477 -15.7000 -15.0016
   -14.9494 -14.5288 -14.4166 -14.0609 -13.0126 -12.8604 -12.5476 -12.3376
   -12.0834 -11.8546 -11.1930 -10.9718 -10.9503 -10.4418 -10.4355 -10.2065
    -9.9459  -9.7386  -9.4475  -9.0431  -8.8795  -8.6820  -8.6383  -8.2054
    -8.2031  -8.0614  -7.7480  -7.2755  -7.0434  -6.9570  -6.3469  -5.9352
    -5.8315  -5.6526  -5.5440  -5.4667  -4.5403  -4.5107  -4.1270  -3.4228
    -3.2370  -2.6743  -1.3780  -0.9112  -0.5934  -0.4753  -0.1961   0.9242
     1.0625   1.2779   1.6005   2.1438   2.4682   2.6850   2.7246   2.8328
     2.9889   3.1568   3.3212   3.5962   3.6390   3.8489   3.8979   4.0263
     4.1886   4.3168   4.5492   4.7787   4.9006   5.1332   5.1694   5.3461
     5.5449   5.7362   5.7952   5.9993   6.0312   6.3285   6.3557   6.4166
     6.6785   6.7756   6.7906   7.0358   7.2438   7.5403   7.6071   7.6323
     7.7113   7.8066   7.8884   7.9810   8.0410   8.0830   8.2545   8.3595
     8.3637   8.4931   8.6254   8.6262   8.6839   8.7344   8.8576   8.8581
     8.8732   8.9670   9.1574   9.2113   9.2456   9.2801   9.2821   9.4457
     9.4524   9.5281   9.5404   9.6458   9.7748   9.8130  10.0118  10.0447
    10.1039  10.2171  10.2427  10.3159  10.3492  10.3511  10.3963  10.4481
    10.4942  10.6125  10.6203  10.6406  10.7079  10.7912  10.8155  10.8845
    10.9098  11.0391  11.1411  11.1659  11.2109  11.2171  11.2485  11.3226
    11.3371  11.3483  11.4337  11.5220  11.5898  11.6538  11.7137  11.8738
    11.9042  11.9080  11.9699  12.0259  12.1921  12.2596  12.2746  12.4270
    12.4447  12.4880  12.5290  12.5729  12.6733  12.8559  12.9439  12.9796
    13.1370  13.1441  13.2755  13.2873  13.5060  13.5200  13.5374  13.5975
    13.6477  13.7069  13.7647  13.7696  13.7917  13.8189  13.8932  13.9133
    14.1616  14.2478  14.4452  14.5000  14.5217  14.7662  14.7706  14.8038
    14.8141  14.8603  14.8804  14.8819  15.0423  15.0545  15.2204  15.2973
    15.3429  15.3587  15.4229  15.4903  15.5921  15.6506  15.6971  15.7174
    15.7938  15.8142  15.9347  16.0816  16.1043  16.1326  16.1364  16.2687
    16.2885  16.3827  16.4027  16.4148  16.4791  16.4989  16.5812  16.6949
    16.7828  16.8107  16.8324  16.8469  16.9452  17.0114  17.0925  17.1376
    17.1868  17.2060  17.2983  17.3790  17.3818  17.3828  17.4267  17.4326
    17.4903  17.5202  17.5555  17.6376  17.6733  17.7508  17.8570  17.9308
    17.9513  18.0162  18.0762  18.1050  18.2013  18.2369  18.3782  18.4641
    18.5412  18.6004  18.7240  18.7559  18.8268  18.9432  18.9898  19.1137
    19.1229  19.1678  19.2751  19.3763  19.3808  19.4115  19.4153  19.5053
    19.5681  19.5790  19.5838  19.6557  19.8843  19.8880  19.9251  19.9360
    20.0740  20.1382  20.3066  20.3133  20.3218  20.3555  20.4816  20.6029
    20.6154  20.6970  20.8010  20.8023  20.8064  20.8156  20.9287  20.9424
    21.0379  21.0640  21.0991  21.1457  21.1564  21.3006  21.3394  21.4981
    21.5050  21.5483  21.5835  21.6168  21.7291  21.7313  21.7735  21.8115
    21.8138  21.8906  22.0713  22.1882  22.2404  22.2830  22.2981  22.3137
    22.3320  22.3807  22.3821  22.4365  22.4368  22.4802  22.5207  22.5275
    22.6562  22.7356  22.7460  22.8469  22.9222  22.9507  22.9845  22.9905
    23.0254  23.3091  23.3138  23.4686  23.4813  23.5005  23.6034  23.6317
    23.6477  23.6500  23.6869  23.7199  23.8455  23.9166  23.9823  24.1658
    24.1891  24.2472  24.2646  24.3947  24.4886  24.5349  24.5708  24.7932
    24.8238  24.9132  24.9428  25.0490  25.0977  25.1040  25.1420  25.1875
    25.2693  25.2997  25.3071  25.3450  25.3921  25.4067  25.5733  25.6746
    25.6818  25.8307  25.8708  25.8798  25.9050  25.9440  26.0416  26.0541
    26.1723  26.1799  26.2994  26.3055  26.3134  26.4393  26.4434  26.4922
    26.5934  26.5944  26.6321  26.7264  26.9065  26.9338  26.9903  26.9971
    27.1306  27.1988  27.2647  27.3530  27.3745  27.4787  27.5264  27.5741
    27.5888  27.7116  27.7504  27.8845  27.9871  27.9912  28.0084  28.1155
    28.2111  28.2375  28.3426  28.3485  28.3942  28.3995  28.4258  28.4403
    28.4421  28.4606  28.6099  28.6179  28.6438  28.7795  28.7833  28.7924
    28.9058  28.9484  29.0545  29.0921  29.1007  29.1683  29.2490  29.2733
    29.2951  29.3080  29.3477  29.6068  29.6850  29.8583  29.9807  30.0110
    30.1953  30.1991  30.2465  30.3038  30.4149  30.5755  30.5939  30.6261
    30.7042  30.7132  30.9046  30.9657  30.9905  31.0541  31.0975  31.1320
    31.1436  31.1529  31.1952  31.3062  31.3148  31.3424  31.3802  31.4626
    31.5431  31.5474  31.6165  31.6369  31.6428  31.7723  31.7803  31.8180
    31.8310  31.8889  32.0009  32.0890

          k = 0.0000 0.0000 0.0235 ( 29881 PWs)   bands (ev):

   -29.7143 -29.7118 -28.2087 -28.2060 -21.5231 -21.2478 -20.6244 -19.7134
   -18.5553 -17.3201 -17.0366 -16.8086 -16.4603 -16.0068 -15.7814 -14.9370
   -14.7798 -14.3554 -14.2730 -14.1592 -13.1128 -12.7849 -12.4581 -12.2807
   -12.0248 -11.9031 -11.1771 -10.9578 -10.9074 -10.4254 -10.4193 -10.2299
    -9.9430  -9.6804  -9.4235  -9.0323  -8.8573  -8.7349  -8.5855  -8.2249
    -8.2226  -8.0401  -7.7192  -7.3485  -7.0232  -6.9664  -6.4084  -5.9764
    -5.8138  -5.7127  -5.5663  -5.4779  -4.6614  -4.5047  -4.2508  -3.5650
    -3.2650  -2.8347  -1.2180  -0.7658  -0.5685  -0.3223  -0.0437   0.8889
     1.0912   1.3058   1.6280   2.1710   2.4977   2.6331   2.7531   2.8544
     3.0176   3.1782   3.3501   3.6251   3.6683   3.8778   3.9249   4.0552
     4.2104   4.3437   4.4891   4.7989   4.9239   5.1626   5.2033   5.3743
     5.5590   5.6944   5.8110   6.0054   6.0216   6.2665   6.3619   6.4728
     6.6320   6.8087   6.8231   6.9171   7.2691   7.5207   7.5637   7.6308
     7.7379   7.7391   7.7473   7.8042   7.8602   8.0693   8.2626   8.2819
     8.3940   8.4688   8.5427   8.6537   8.6540   8.7020   8.7770   8.7899
     8.8430   8.9057   9.0023   9.0194   9.0374   9.1999   9.2427   9.3227
     9.3390   9.4479   9.5052   9.6746   9.7750   9.9142   9.9822  10.0034
    10.0202  10.0344  10.1412  10.2654  10.2688  10.3513  10.3835  10.4388
    10.4553  10.4820  10.4866  10.6548  10.7321  10.8078  10.9002  10.9251
    10.9263  11.0491  11.1012  11.1438  11.1486  11.1719  11.2660  11.3161
    11.3580  11.3665  11.3678  11.5071  11.6726  11.7321  11.7345  11.7755
    11.8281  11.9793  12.0273  12.0849  12.1452  12.2725  12.3088  12.3295
    12.4077  12.4682  12.4804  12.6433  12.7408  12.8733  13.0124  13.1638
    13.2932  13.3360  13.3699  13.3949  13.5706  13.5864  13.6397  13.7212
    13.7235  13.7561  13.8161  13.8188  13.8460  13.9096  13.9173  14.0739
    14.1492  14.2851  14.3933  14.4141  14.5111  14.6423  14.7397  14.7461
    14.7504  14.8206  15.0604  15.0692  15.1138  15.1198  15.1922  15.3255
    15.3723  15.3822  15.4673  15.5356  15.6270  15.6285  15.6975  15.7449
    15.8396  15.8940  15.9655  15.9981  16.1115  16.1360  16.1534  16.1701
    16.1987  16.3019  16.3228  16.3339  16.3708  16.4656  16.5975  16.6760
    16.6760  16.7265  16.8402  16.8643  16.8787  16.9337  17.0547  17.1424
    17.2272  17.2851  17.3412  17.3509  17.4659  17.4752  17.5028  17.5287
    17.5677  17.6035  17.6150  17.6475  17.7436  17.7512  17.7772  17.9382
    17.9391  18.1198  18.1419  18.1776  18.2898  18.3982  18.5131  18.5361
    18.5417  18.6163  18.7057  18.7862  18.8628  18.9442  19.0392  19.1589
    19.1975  19.2074  19.2773  19.3699  19.3883  19.4332  19.4778  19.5116
    19.5795  19.6700  19.7293  19.8016  19.9318  20.0122  20.0184  20.0966
    20.2428  20.2867  20.3290  20.3701  20.3878  20.3884  20.4965  20.5049
    20.6373  20.7338  20.7731  20.8391  20.8528  20.8857  20.9135  20.9154
    20.9494  21.0264  21.0590  21.0824  21.1606  21.3897  21.4073  21.4897
    21.5321  21.5388  21.5830  21.6085  21.7811  21.7989  21.8169  21.8274
    21.8886  21.9948  22.0527  22.1075  22.2287  22.2613  22.2656  22.2939
    22.3730  22.4375  22.4494  22.4798  22.4950  22.5282  22.5480  22.5825
    22.6313  22.6791  22.7206  22.7865  22.8831  23.0028  23.0761  23.0966
    23.1038  23.3405  23.3502  23.4240  23.4769  23.4872  23.5227  23.5748
    23.6784  23.6807  23.6848  23.7996  23.8613  23.8680  23.9468  24.1218
    24.1240  24.2438  24.2466  24.3508  24.3613  24.4214  24.5548  24.7289
    24.7356  24.9834  25.0496  25.0839  25.1224  25.1723  25.2529  25.2652
    25.2960  25.3321  25.3415  25.3877  25.4273  25.5389  25.6487  25.6598
    25.6769  25.7726  25.8125  25.8287  25.8683  26.0075  26.0893  26.1101
    26.2390  26.2451  26.3139  26.3180  26.3253  26.3593  26.4001  26.4476
    26.5090  26.6095  26.6366  26.7959  26.9043  26.9153  27.0082  27.1709
    27.2045  27.2606  27.3234  27.3440  27.4675  27.5337  27.5514  27.5976
    27.6518  27.8360  27.8583  27.8889  27.8904  27.9755  28.0185  28.0973
    28.1293  28.1928  28.2208  28.2403  28.3019  28.3356  28.3667  28.3850
    28.4483  28.4651  28.4765  28.6114  28.6797  28.7399  28.8261  28.8439
    28.8919  28.9807  28.9993  29.2271  29.2349  29.2686  29.2886  29.3035
    29.3593  29.3710  29.4239  29.4605  29.6309  29.9676  30.0432  30.0809
    30.1110  30.2317  30.2541  30.3862  30.3946  30.5372  30.5831  30.6497
    30.7322  30.7853  30.7858  30.9246  31.0015  31.1288  31.1337  31.1673
    31.1748  31.2028  31.3036  31.3215  31.3912  31.4001  31.4265  31.4505
    31.5534  31.5874  31.6314  31.6626  31.6703  31.7367  31.7551  31.7801
    31.7919  31.8060  31.8667  31.9013

          k = 0.0000 0.0000 0.0282 ( 29882 PWs)   bands (ev):

   -29.7008 -29.6983 -28.2279 -28.2251 -21.4973 -21.2223 -20.5993 -19.6889
   -18.5324 -17.3230 -17.2141 -16.9587 -16.5851 -16.0409 -15.8884 -14.8621
   -14.6109 -14.2684 -14.1647 -14.1169 -13.2185 -12.7059 -12.3562 -12.2203
   -12.0225 -11.8885 -11.1896 -10.9359 -10.8352 -10.4056 -10.3997 -10.2682
    -9.9259  -9.6153  -9.3942  -9.0277  -8.8301  -8.7824  -8.5281  -8.2484
    -8.2461  -8.0141  -7.6933  -7.4259  -6.9985  -6.9884  -6.4797  -6.0256
    -5.7923  -5.7892  -5.5892  -5.4941  -4.7985  -4.5068  -4.3796  -3.7190
    -3.2980  -2.9939  -1.0593  -0.6458  -0.5003  -0.1489   0.1315   0.8479
     1.1263   1.3398   1.6616   2.2041   2.5337   2.5713   2.7882   2.8804
     3.0527   3.2040   3.3854   3.6606   3.7042   3.9130   3.9569   4.0905
     4.2367   4.3761   4.4196   4.8228   4.9522   5.1983   5.2432   5.4085
     5.5714   5.6488   5.8251   5.9923   6.0480   6.1927   6.3493   6.5372
     6.6071   6.7881   6.8486   6.8625   7.2688   7.3213   7.5568   7.5799
     7.6479   7.6556   7.6947   7.7013   7.7785   8.1037   8.1630   8.2919
     8.3145   8.4140   8.5402   8.6444   8.6480   8.6807   8.7108   8.7223
     8.7412   8.7505   8.7946   8.8197   8.8499   9.2260   9.2300   9.2667
     9.2967   9.3703   9.4676   9.7023   9.7361   9.7934   9.8023   9.9287
     9.9381   9.9931   9.9941  10.1552  10.2257  10.2539  10.2562  10.3275
    10.3726  10.5153  10.5318  10.6079  10.7402  10.7978  10.8985  10.9992
    11.0025  11.0870  11.0990  11.1275  11.1322  11.1985  11.2406  11.2556
    11.3132  11.3449  11.5051  11.6314  11.6460  11.6691  11.6730  11.7674
    11.8868  11.9423  12.0206  12.0670  12.0840  12.2752  12.3396  12.4218
    12.4241  12.4365  12.5507  12.7853  12.8231  12.9197  13.0289  13.2491
    13.2831  13.3964  13.4406  13.4905  13.5845  13.6416  13.7054  13.7455
    13.7634  13.8675  13.8978  13.9265  13.9545  14.0116  14.0499  14.2219
    14.2305  14.3445  14.4179  14.4649  14.5467  14.5995  14.6241  14.6841
    14.7111  14.7948  14.8814  15.1374  15.1529  15.1542  15.3465  15.4064
    15.4268  15.4970  15.5028  15.6082  15.7055  15.7170  15.7292  15.8105
    15.8646  15.9063  15.9507  15.9925  16.0167  16.0283  16.1414  16.1913
    16.2073  16.2747  16.2777  16.2787  16.3117  16.3349  16.5035  16.5986
    16.6798  16.7658  16.7792  16.7822  16.9226  16.9789  17.0070  17.0578
    17.1964  17.3562  17.3744  17.4243  17.4265  17.5278  17.5375  17.5425
    17.5870  17.6103  17.6854  17.7689  17.7893  17.8332  17.9403  17.9686
    18.1266  18.2142  18.2158  18.2268  18.3556  18.3827  18.4818  18.5455
    18.6719  18.6837  18.7289  18.7856  18.8741  19.0510  19.0844  19.1858
    19.2282  19.2697  19.2731  19.4182  19.4644  19.5105  19.5245  19.5249
    19.6855  19.7006  19.8776  19.9870  20.0527  20.0713  20.1621  20.1683
    20.2108  20.2727  20.3434  20.4467  20.4552  20.4944  20.5954  20.7018
    20.7353  20.7376  20.7840  20.7885  20.8336  20.8489  20.9221  20.9269
    21.0031  21.0447  21.0469  21.1364  21.1748  21.4095  21.4545  21.5056
    21.5307  21.5714  21.5983  21.6739  21.8128  21.8140  21.8517  21.8785
    21.8820  21.8970  21.9523  21.9967  22.2192  22.2665  22.2734  22.3386
    22.3585  22.4087  22.4618  22.4665  22.4968  22.5379  22.5692  22.7201
    22.7238  22.7599  22.7859  22.8889  23.0353  23.0481  23.0898  23.1001
    23.1122  23.2647  23.3179  23.3533  23.3673  23.5216  23.5257  23.6236
    23.6363  23.6497  23.7552  23.8824  23.8911  23.9541  23.9811  24.0778
    24.1894  24.2018  24.2367  24.2989  24.3755  24.4273  24.5112  24.5255
    24.5384  24.9720  25.0130  25.0818  25.1729  25.1733  25.2938  25.3010
    25.3531  25.3758  25.4034  25.4920  25.5601  25.6110  25.6121  25.6702
    25.6857  25.7200  25.7704  25.9075  25.9553  25.9768  26.0775  26.1287
    26.2058  26.2917  26.3267  26.3769  26.3927  26.3990  26.4216  26.4327
    26.5497  26.6167  26.7317  26.8483  26.8934  26.8992  27.0225  27.2112
    27.3241  27.3577  27.3720  27.5219  27.5387  27.5943  27.6040  27.6321
    27.7274  27.7681  27.7900  27.8341  27.8502  27.9116  27.9997  28.0429
    28.0603  28.0859  28.1337  28.1475  28.1696  28.2641  28.3242  28.3308
    28.4987  28.5007  28.5361  28.5599  28.7330  28.7394  28.8625  28.9577
    28.9971  29.0570  29.1631  29.2165  29.3201  29.3333  29.3356  29.3472
    29.3675  29.4428  29.5114  29.5346  29.6659  29.9922  30.0459  30.0491
    30.0764  30.0974  30.1829  30.3111  30.3585  30.4308  30.4531  30.6316
    30.6477  30.7600  30.8993  30.9393  30.9800  30.9814  31.0698  31.1026
    31.1172  31.1407  31.2944  31.3003  31.4023  31.4150  31.4959  31.5152
    31.5222  31.5535  31.6039  31.6192  31.6661  31.7266  31.7680  31.8342
    31.8404  31.8566  31.8635  31.8804

          k = 0.0000 0.0000 0.0329 ( 29902 PWs)   bands (ev):

   -29.6850 -29.6825 -28.2501 -28.2474 -21.4667 -21.1922 -20.5697 -19.6601
   -18.5055 -17.3923 -17.3563 -17.0754 -16.7271 -16.0612 -16.0094 -14.7871
   -14.4493 -14.3663 -13.9734 -13.9501 -13.3272 -12.6301 -12.2456 -12.1556
   -12.0684 -11.8137 -11.2283 -10.8864 -10.7563 -10.3824 -10.3767 -10.3192
    -9.8955  -9.5463  -9.3595  -9.0394  -8.8116  -8.7980  -8.4688  -8.2758
    -8.2735  -7.9834  -7.6728  -7.5065  -7.0231  -6.9693  -6.5598  -6.0820
    -5.8809  -5.7673  -5.6137  -5.5158  -4.9477  -4.5786  -4.4482  -3.8803
    -3.3365  -3.1513  -0.9021  -0.5914  -0.3529   0.0401   0.3257   0.8025
     1.1678   1.3800   1.7011   2.2429   2.5008   2.5763   2.8299   2.9106
     3.0941   3.2342   3.4270   3.7024   3.7466   3.9547   3.9927   4.1321
     4.2673   4.3431   4.4140   4.8501   4.9849   5.2400   5.2890   5.4481
     5.5786   5.6009   5.8374   5.9958   6.0777   6.1078   6.3221   6.5978
     6.6094   6.6564   6.8953   6.9086   7.0418   7.3103   7.3470   7.4443
     7.5603   7.5983   7.6444   7.7284   7.8184   8.0450   8.1437   8.1478
     8.3498   8.3804   8.4395   8.4588   8.5351   8.5402   8.5724   8.6001
     8.6988   8.7169   8.7315   8.7680   8.8051   9.1068   9.2421   9.2676
     9.3118   9.3467   9.3969   9.5309   9.5439   9.7100   9.7340   9.8078
     9.8202   9.8296   9.9775  10.0564  10.0716  10.1142  10.2924  10.3545
    10.4073  10.5027  10.5564  10.5642  10.5771  10.6312  10.9492  11.0234
    11.0319  11.0547  11.0892  11.1383  11.1647  11.1896  11.2174  11.3372
    11.3723  11.4297  11.5184  11.5673  11.5763  11.6139  11.7851  11.8329
    11.8637  11.8698  12.0431  12.0916  12.1167  12.2779  12.3469  12.4373
    12.4615  12.4701  12.7673  12.7964  12.8829  13.0400  13.1039  13.1601
    13.1745  13.2309  13.5332  13.6042  13.6581  13.7262  13.7665  13.8292
    13.8372  13.8509  13.9087  13.9655  14.0122  14.0577  14.2704  14.3695
    14.4089  14.4401  14.4991  14.5482  14.5546  14.6017  14.6550  14.6678
    14.7396  14.7787  14.8187  15.1228  15.1409  15.1548  15.3193  15.4823
    15.5162  15.5932  15.6342  15.6908  15.7516  15.7705  15.7901  15.8184
    15.8500  15.8504  15.8931  15.9126  15.9672  16.1170  16.1285  16.1408
    16.1696  16.2780  16.3064  16.3095  16.3697  16.4010  16.4649  16.5351
    16.5646  16.6571  16.8153  16.8230  16.9666  17.0003  17.0105  17.1035
    17.1538  17.2854  17.2898  17.4325  17.5269  17.5575  17.5588  17.6248
    17.6362  17.6610  17.6730  17.7627  17.9134  17.9180  18.0078  18.1254
    18.1969  18.2059  18.2555  18.3584  18.4428  18.4486  18.4670  18.5876
    18.5947  18.7014  18.8299  19.0057  19.0255  19.1319  19.1631  19.1751
    19.2978  19.3058  19.3443  19.3705  19.5046  19.5226  19.6694  19.6977
    19.7852  19.8100  19.8165  19.9249  20.0119  20.0890  20.3241  20.3409
    20.4100  20.4225  20.4615  20.4647  20.4972  20.5030  20.6213  20.6338
    20.7417  20.7498  20.8082  20.8481  20.9659  20.9808  21.0437  21.0528
    21.0676  21.0679  21.1144  21.1767  21.2088  21.3755  21.4991  21.5159
    21.5643  21.5884  21.6708  21.6737  21.7457  21.7648  21.8145  21.8363
    21.8584  21.9164  21.9383  22.0119  22.1261  22.1484  22.2737  22.3117
    22.3606  22.4084  22.4636  22.4700  22.5496  22.5518  22.5841  22.8201
    22.8718  22.8774  22.9380  22.9686  22.9901  23.0041  23.0434  23.1688
    23.2134  23.2265  23.2562  23.2969  23.4846  23.5763  23.6057  23.6458
    23.6543  23.6732  23.7566  23.8277  23.9191  23.9384  24.0021  24.0651
    24.1376  24.1749  24.3267  24.3321  24.4060  24.4093  24.4950  24.5201
    24.5565  24.8791  24.9306  25.0353  25.1752  25.1812  25.1905  25.3349
    25.3708  25.3930  25.4471  25.4686  25.5087  25.5414  25.6515  25.6759
    25.7877  25.8243  25.8942  25.9229  25.9324  26.0055  26.1507  26.2014
    26.2601  26.2797  26.3720  26.4018  26.4040  26.4644  26.5308  26.5346
    26.5623  26.6494  26.7320  26.9344  26.9575  26.9947  27.1744  27.2243
    27.3110  27.3425  27.4311  27.5024  27.5667  27.6143  27.6726  27.6886
    27.7092  27.7203  27.7332  27.7836  27.8061  27.9096  27.9614  27.9845
    28.0243  28.0705  28.0886  28.1471  28.1703  28.2281  28.2525  28.3322
    28.5263  28.5643  28.5917  28.6351  28.7094  28.8393  28.8973  28.9794
    29.0847  29.1160  29.2521  29.3316  29.3423  29.3586  29.3623  29.4285
    29.4633  29.4991  29.5247  29.5932  29.6883  29.6989  29.8582  29.9317
    30.0521  30.0633  30.1890  30.2448  30.2659  30.2874  30.5164  30.5509
    30.6035  30.7242  30.8048  30.8969  30.9034  30.9587  31.0398  31.0542
    31.0699  31.0931  31.1120  31.1532  31.1572  31.2180  31.3858  31.4263
    31.4361  31.4851  31.4921  31.6963  31.7302  31.7576  31.7914  31.8168
    31.8218  31.8749  31.9140  31.9226

          k = 0.0000 0.0000 0.0376 ( 29910 PWs)   bands (ev):

   -29.6668 -29.6643 -28.2754 -28.2727 -21.4315 -21.1575 -20.5355 -19.6268
   -18.4750 -17.5696 -17.4502 -17.1279 -16.8775 -16.1378 -16.0763 -14.7157
   -14.4695 -14.2894 -13.7757 -13.7705 -13.4363 -12.5714 -12.1317 -12.1023
   -12.0843 -11.7259 -11.2816 -10.8198 -10.6716 -10.3799 -10.3559 -10.3506
    -9.8541  -9.4777  -9.3195  -9.0729  -8.8135  -8.7611  -8.4103  -8.3068
    -8.3044  -7.9479  -7.6593  -7.5892  -7.0698  -6.9358  -6.6473  -6.1449
    -5.9869  -5.7388  -5.6402  -5.5431  -5.1057  -4.7258  -4.4482  -4.0457
    -3.3803  -3.3066  -0.7469  -0.5597  -0.1719   0.2400   0.5354   0.7553
     1.2156   1.4262   1.7466   2.2874   2.4228   2.6255   2.8779   2.9449
     3.1419   3.2686   3.4749   3.7507   3.7955   4.0028   4.0273   4.1800
     4.2655   4.3018   4.4569   4.8802   5.0213   5.2873   5.3406   5.4892
     5.5563   5.5771   5.8522   6.0132   6.0137   6.1083   6.2941   6.5287
     6.5675   6.6855   6.8272   6.9485   6.9610   7.1111   7.2006   7.4037
     7.4527   7.4634   7.6679   7.7735   7.8579   7.9219   8.0612   8.1733
     8.1773   8.2145   8.2390   8.3143   8.3954   8.4192   8.4884   8.5982
     8.6317   8.6539   8.7501   8.7825   8.8692   8.9822   9.1573   9.1874
     9.2839   9.2917   9.3108   9.3826   9.4572   9.4912   9.5732   9.7231
     9.7818   9.8369   9.8641   9.8893  10.0411  10.0801  10.2768  10.2866
    10.3987  10.4054  10.4508  10.5611  10.6032  10.7337  10.8257  10.9694
    10.9700  10.9915  10.9977  11.1489  11.1858  11.2025  11.2124  11.3321
    11.3326  11.4695  11.5699  11.6036  11.6211  11.6839  11.7225  11.8588
    11.9826  11.9941  12.0453  12.1564  12.1583  12.2983  12.3397  12.4690
    12.4959  12.4973  12.7238  12.8127  12.8879  13.0487  13.0676  13.1104
    13.1857  13.3053  13.5189  13.5818  13.7045  13.7236  13.7270  13.9028
    13.9684  13.9912  14.0160  14.0295  14.0551  14.1169  14.1582  14.4722
    14.4747  14.4766  14.5618  14.5712  14.6804  14.6858  14.7167  14.7317
    14.8631  14.9246  14.9667  15.0997  15.1294  15.1644  15.4468  15.4891
    15.5070  15.5928  15.6463  15.6727  15.7055  15.7160  15.7469  15.7799
    15.7832  15.8658  15.9687  15.9882  16.0435  16.0906  16.1036  16.1330
    16.3016  16.3274  16.3296  16.3647  16.3993  16.4335  16.4664  16.5443
    16.5945  16.6892  16.8789  16.8845  16.9625  17.0695  17.0750  17.0925
    17.1361  17.2116  17.2885  17.4148  17.5532  17.5923  17.5932  17.6728
    17.6747  17.6819  17.8122  17.8248  17.8500  17.9812  17.9993  18.0956
    18.1057  18.1745  18.3727  18.3919  18.5055  18.5109  18.6619  18.7611
    18.7958  18.8163  18.9388  19.0031  19.1779  19.2004  19.2066  19.2768
    19.2789  19.3272  19.4173  19.5060  19.5352  19.6117  19.6949  19.7414
    19.7732  19.8067  19.8871  20.0247  20.0994  20.1429  20.3185  20.3307
    20.4244  20.4383  20.5278  20.5828  20.6417  20.6636  20.6691  20.7480
    20.7808  20.8463  20.8739  20.9324  21.0207  21.0413  21.0541  21.0811
    21.1967  21.2002  21.2018  21.2372  21.3181  21.4062  21.5218  21.5595
    21.5846  21.5863  21.6286  21.6591  21.7013  21.7456  21.7899  21.8032
    21.8798  21.8956  22.0330  22.0643  22.0888  22.1246  22.1719  22.3278
    22.3609  22.4429  22.4543  22.4582  22.5144  22.5347  22.6498  22.7905
    22.8116  22.8370  22.9210  22.9742  22.9889  23.0081  23.1405  23.2405
    23.2636  23.3558  23.3975  23.4446  23.6060  23.6327  23.6516  23.6766
    23.6811  23.7169  23.7828  23.7991  23.8907  23.9664  23.9989  24.0727
    24.0910  24.1684  24.2035  24.2047  24.2609  24.5946  24.5991  24.7298
    24.7307  24.8562  24.9166  24.9832  25.0132  25.1586  25.2070  25.3127
    25.3741  25.3805  25.4399  25.4649  25.4841  25.5100  25.6470  25.6779
    25.6866  25.7697  25.8946  25.9999  26.0193  26.1363  26.1865  26.2988
    26.3554  26.4074  26.4257  26.4574  26.4796  26.4805  26.5357  26.5646
    26.6799  26.7584  26.7651  26.9981  27.1183  27.1535  27.1711  27.2356
    27.3059  27.3158  27.3647  27.4246  27.4771  27.6090  27.6475  27.6823
    27.7319  27.7389  27.7486  27.7721  27.7780  27.8760  27.9232  28.0055
    28.0282  28.0775  28.1672  28.2258  28.2311  28.2866  28.3609  28.4230
    28.5655  28.6173  28.6310  28.6814  28.7060  28.7540  28.9522  28.9888
    28.9924  29.1481  29.1669  29.3126  29.3169  29.3188  29.3412  29.4116
    29.4812  29.5140  29.5890  29.6240  29.6282  29.7045  29.7049  29.8094
    29.9543  30.1228  30.1603  30.2051  30.3231  30.3882  30.4064  30.4693
    30.4718  30.5215  30.5996  30.7731  30.8204  30.8316  30.8581  30.9605
    30.9794  30.9992  31.0026  31.1595  31.1988  31.2058  31.2472  31.3199
    31.3285  31.3689  31.3949  31.4803  31.5308  31.5794  31.5835  31.6035
    31.7189  31.7237  31.7293  31.7687

          k = 0.0000 0.0000 0.0423 ( 29926 PWs)   bands (ev):

   -29.6464 -29.6439 -28.3035 -28.3007 -21.3916 -21.1182 -20.4969 -19.5893
   -18.4412 -17.7445 -17.5886 -17.1320 -17.0314 -16.2697 -16.0919 -14.6496
   -14.5613 -14.1438 -13.6074 -13.5590 -13.5324 -12.5507 -12.0949 -12.0329
   -11.9916 -11.6340 -11.3406 -10.7427 -10.5823 -10.4476 -10.3263 -10.3213
    -9.8036  -9.4179  -9.2742  -9.1161  -8.7928  -8.7194  -8.3554  -8.3413
    -8.3386  -7.9078  -7.6728  -7.6541  -7.1278  -6.8980  -6.7416  -6.2137
    -6.1062  -5.7073  -5.6690  -5.5759  -5.2697  -4.8878  -4.4379  -4.2131
    -3.4590  -3.4292  -0.5942  -0.5301   0.0198   0.4418   0.7141   0.7580
     1.2697   1.4786   1.7978   2.3373   2.3383   2.6812   2.9323   2.9829
     3.1960   3.3068   3.5292   3.8054   3.8509   4.0399   4.0573   4.2083
     4.2342   4.3398   4.5046   4.9124   5.0600   5.3396   5.3981   5.4867
     5.5618   5.5660   5.8742   5.9103   6.0389   6.1351   6.2775   6.4136
     6.4304   6.7160   6.7272   6.9219   7.0081   7.0194   7.0535   7.2369
     7.3336   7.4788   7.6304   7.8227   7.8258   7.8949   7.9268   7.9635
     8.0150   8.0264   8.1057   8.2202   8.2744   8.3639   8.4528   8.5763
     8.5796   8.6097   8.7770   8.8323   8.8650   8.9403   8.9441   9.0292
     9.0480   9.2026   9.2084   9.3446   9.3583   9.4325   9.5044   9.6291
     9.6957   9.7429   9.8238   9.9101   9.9784  10.0284  10.1271  10.1902
    10.3467  10.4499  10.5000  10.5437  10.5875  10.6601  10.7921  10.8973
    10.9102  10.9178  11.0284  11.0627  11.1054  11.1793  11.2556  11.2691
    11.3071  11.4727  11.4980  11.5972  11.6825  11.8832  11.9068  11.9382
    12.0306  12.1267  12.1286  12.1331  12.1909  12.3317  12.3356  12.5017
    12.5123  12.5184  12.6530  12.6798  12.8399  12.9859  13.0328  13.0456
    13.1308  13.4567  13.5687  13.6104  13.7229  13.7398  13.7625  13.9197
    13.9253  13.9392  14.0215  14.1349  14.2181  14.2450  14.3196  14.4490
    14.4670  14.4983  14.5273  14.6039  14.6303  14.6353  14.7451  15.0425
    15.0844  15.1071  15.1788  15.2030  15.2274  15.2401  15.3733  15.4486
    15.4988  15.5724  15.5998  15.6372  15.6622  15.6927  15.7041  15.7725
    15.8025  15.8420  15.9042  16.0149  16.0524  16.1750  16.2302  16.2504
    16.3056  16.3263  16.3435  16.3876  16.4641  16.5357  16.5705  16.6059
    16.6979  16.7860  16.9103  16.9642  17.0123  17.0200  17.1196  17.1424
    17.2264  17.2606  17.3404  17.4788  17.5666  17.5865  17.6337  17.6651
    17.6752  17.7257  17.8029  17.8224  17.9196  17.9993  18.0176  18.0596
    18.0606  18.1455  18.3688  18.4328  18.5959  18.7337  18.7834  18.9268
    18.9746  18.9770  19.0467  19.0862  19.2334  19.2488  19.2524  19.2690
    19.3085  19.3160  19.4133  19.5593  19.6391  19.7113  19.7959  19.8447
    19.8458  19.8846  19.9601  20.0618  20.1537  20.2256  20.2941  20.3070
    20.4149  20.4240  20.6910  20.6928  20.7154  20.7191  20.8037  20.8134
    20.8849  20.9045  21.0009  21.0270  21.0298  21.0701  21.1356  21.1381
    21.1956  21.2440  21.3126  21.3155  21.3603  21.4734  21.5019  21.5202
    21.6196  21.6734  21.6779  21.6933  21.6976  21.7649  21.8018  21.8080
    21.8683  21.9272  22.1055  22.1356  22.1650  22.2061  22.2093  22.2817
    22.2869  22.3242  22.4677  22.4787  22.4934  22.5180  22.6935  22.7109
    22.7502  22.7813  22.9271  22.9461  22.9556  23.1187  23.1646  23.2259
    23.3194  23.3509  23.5300  23.6122  23.6286  23.7213  23.7252  23.7261
    23.7853  23.8034  23.8471  23.8754  23.8778  24.0218  24.0591  24.0606
    24.1083  24.1505  24.1599  24.1985  24.2098  24.5384  24.6673  24.7661
    24.7873  24.8011  24.9960  25.0697  25.0814  25.1686  25.2561  25.3759
    25.3894  25.3924  25.4358  25.4522  25.4862  25.4939  25.5100  25.6096
    25.6923  25.7852  25.8477  25.9473  26.0844  26.1039  26.2645  26.3390
    26.3513  26.4601  26.4674  26.5642  26.5661  26.5924  26.6371  26.6790
    26.7282  26.7761  26.9960  27.0665  27.0858  27.1440  27.1979  27.2113
    27.2406  27.3552  27.3643  27.4122  27.5353  27.5916  27.6510  27.6522
    27.6909  27.7354  27.7904  27.7989  27.8536  27.8689  27.9477  28.0681
    28.0927  28.1180  28.2375  28.2634  28.3245  28.4007  28.4195  28.5390
    28.5465  28.5687  28.6163  28.6400  28.6744  28.7035  28.7323  28.9887
    29.0759  29.0887  29.0891  29.2066  29.2539  29.2680  29.2826  29.3047
    29.3676  29.4480  29.5698  29.6138  29.6852  29.7637  29.7979  29.8301
    29.8541  30.0209  30.0263  30.1184  30.1422  30.4257  30.4375  30.4493
    30.5061  30.5195  30.5426  30.5905  30.5954  30.7425  30.7431  30.8023
    30.8485  30.8555  30.8668  30.9865  30.9905  31.0793  31.1090  31.1340
    31.1538  31.2172  31.2251  31.2398  31.2840  31.3554  31.3984  31.4922
    31.5030  31.5657  31.6223  31.6577

          k = 0.0000 0.0000 0.0469 ( 29954 PWs)   bands (ev):

   -29.6239 -29.6214 -28.3341 -28.3314 -21.3470 -21.0743 -20.4537 -19.5474
   -18.4053 -17.9157 -17.7429 -17.1862 -17.1171 -16.4020 -16.1116 -14.6441
   -14.5898 -14.0075 -13.6572 -13.4032 -13.3407 -12.5763 -12.0360 -11.9578
   -11.8745 -11.5397 -11.3985 -10.6577 -10.5217 -10.4880 -10.2938 -10.2891
    -9.7456  -9.3873  -9.2236  -9.1410  -8.7587  -8.6733  -8.3788  -8.3756
    -8.3076  -7.8629  -7.7549  -7.6577  -7.1962  -6.8558  -6.8420  -6.2878
    -6.2379  -5.7009  -5.6742  -5.6137  -5.4364  -5.0547  -4.4265  -4.3806
    -3.6075  -3.4830  -0.4983  -0.4449   0.2165   0.5793   0.7448   0.9912
     1.3301   1.5369   1.8548   2.2488   2.3926   2.7434   2.9931   3.0244
     3.2563   3.3488   3.5897   3.8666   3.9128   3.9893   4.1182   4.2137
     4.2945   4.3807   4.5564   4.9453   5.0980   5.3947   5.4461   5.4614
     5.5469   5.6162   5.8021   5.9038   6.0589   6.1451   6.2062   6.2960
     6.3236   6.5873   6.6522   6.9279   6.9450   7.0344   7.0738   7.0822
     7.2051   7.4923   7.5340   7.6376   7.7224   7.7704   7.8588   7.8827
     7.8829   7.9863   7.9900   8.0724   8.2159   8.3162   8.4411   8.5098
     8.5362   8.5529   8.7085   8.7580   8.7956   8.8306   8.8704   8.9508
     8.9565   9.0143   9.0856   9.1236   9.4054   9.4889   9.5001   9.5524
     9.5531   9.6178   9.7677   9.9008   9.9470   9.9685  10.0961  10.1178
    10.3125  10.4276  10.5068  10.5100  10.5523  10.6252  10.7173  10.8068
    10.8133  10.8432  11.0219  11.0695  11.1014  11.1166  11.2372  11.2892
    11.3270  11.4847  11.5296  11.6276  11.6544  11.9695  12.0088  12.0596
    12.0698  12.0841  12.1814  12.2385  12.2867  12.3328  12.3743  12.3875
    12.5003  12.5788  12.6264  12.6554  12.7751  12.9376  12.9516  12.9734
    13.0605  13.4412  13.5411  13.6329  13.6412  13.7993  13.8773  13.9253
    13.9372  13.9988  14.0965  14.2076  14.2109  14.3921  14.4325  14.4410
    14.4796  14.4988  14.5032  14.5759  14.6529  14.7120  14.8237  15.1269
    15.1790  15.2001  15.2515  15.2558  15.3004  15.3695  15.4060  15.4751
    15.5520  15.5783  15.6198  15.6315  15.6434  15.6564  15.7494  15.7622
    15.8033  15.8760  15.9598  16.0100  16.0164  16.2618  16.3243  16.3407
    16.3720  16.3952  16.4282  16.4473  16.5599  16.5973  16.6050  16.6828
    16.7674  16.8033  16.9194  17.0286  17.1170  17.1276  17.2268  17.2272
    17.2793  17.2986  17.4574  17.5356  17.5933  17.5937  17.6244  17.6623
    17.7369  17.7453  17.8084  17.8479  17.9041  18.0011  18.0172  18.0465
    18.2456  18.2740  18.3965  18.4170  18.7029  18.7811  18.9190  18.9727
    19.0197  19.0393  19.0923  19.1257  19.1490  19.2672  19.2847  19.2950
    19.5164  19.5501  19.5510  19.5890  19.7103  19.7845  19.8352  19.8450
    19.9923  19.9980  20.0119  20.1791  20.1919  20.2088  20.3522  20.4121
    20.4318  20.6144  20.7001  20.7316  20.7669  20.8156  20.8545  20.8815
    20.8896  20.9207  20.9584  21.0016  21.0502  21.1241  21.1995  21.2151
    21.3080  21.3272  21.3528  21.4132  21.4437  21.4891  21.5175  21.6056
    21.6460  21.6526  21.6531  21.7442  21.7530  21.8319  21.8476  21.8754
    21.9592  22.0219  22.0471  22.0891  22.1391  22.2786  22.3163  22.3276
    22.3737  22.3955  22.4029  22.4601  22.5562  22.5881  22.7025  22.7412
    22.7690  22.7808  22.8531  22.8982  22.9850  23.0829  23.0958  23.2183
    23.3205  23.3495  23.5442  23.5467  23.6729  23.7115  23.7248  23.8022
    23.9020  23.9146  23.9333  23.9930  24.0118  24.0357  24.0827  24.1092
    24.1502  24.2519  24.2986  24.3172  24.3424  24.5100  24.6580  24.6654
    24.6908  24.7726  24.9441  25.1591  25.2406  25.2424  25.2980  25.3456
    25.4224  25.4471  25.4630  25.4851  25.5260  25.5471  25.6124  25.6378
    25.7529  25.7815  25.8326  25.8579  26.0203  26.1306  26.1348  26.3772
    26.4116  26.4808  26.5125  26.5315  26.5315  26.5966  26.7026  26.7917
    26.8091  26.8749  27.0324  27.0669  27.1276  27.1736  27.1931  27.2547
    27.2660  27.3845  27.4394  27.4817  27.5312  27.6138  27.6370  27.6878
    27.7149  27.7885  27.8507  27.8775  27.9043  27.9658  28.0160  28.0233
    28.0882  28.0975  28.1471  28.1559  28.2857  28.3234  28.4005  28.5059
    28.5572  28.5946  28.6175  28.6619  28.7656  28.7760  28.7834  29.0019
    29.0025  29.0367  29.0567  29.0928  29.1384  29.1645  29.2021  29.2806
    29.2943  29.3663  29.3904  29.6407  29.6408  29.6718  29.7791  29.8274
    29.8812  29.9180  29.9422  29.9978  30.2143  30.2313  30.3201  30.3333
    30.3481  30.3821  30.4438  30.4701  30.4948  30.5231  30.5896  30.5997
    30.6176  30.6978  30.7261  30.7344  30.7817  30.8299  30.9765  30.9987
    31.0268  31.0459  31.1347  31.2098  31.2527  31.2826  31.3361  31.3727
    31.4244  31.4332  31.4438  31.5082

          k = 0.0000 0.0000 0.0516 ( 29972 PWs)   bands (ev):

   -29.5992 -29.5967 -28.3672 -28.3645 -21.2978 -21.0258 -20.4061 -19.5014
   -18.3710 -18.0790 -17.9013 -17.3399 -17.0966 -16.5313 -16.1384 -14.7147
   -14.5389 -13.8810 -13.7523 -13.2196 -13.1181 -12.6313 -11.9409 -11.8957
   -11.7537 -11.4449 -11.4436 -10.5979 -10.5661 -10.3925 -10.2585 -10.2542
    -9.6812  -9.4091  -9.1677  -9.1200  -8.7171  -8.6233  -8.4191  -8.4143
    -8.2718  -7.8321  -7.8133  -7.6703  -7.2737  -6.9481  -6.8094  -6.3810
    -6.3665  -5.7352  -5.6570  -5.6559  -5.5868  -5.2236  -4.5471  -4.4168
    -3.7504  -3.5412  -0.4630  -0.3008   0.4156   0.5654   0.9353   1.2329
     1.3968   1.6012   1.9174   2.1556   2.4529   2.8122   3.0603   3.0689
     3.3227   3.3940   3.6565   3.8953   3.9341   3.9812   4.1854   4.2629
     4.3607   4.4237   4.6113   4.9774   5.1288   5.4134   5.4447   5.5232
     5.5308   5.6804   5.6976   5.9355   5.9656   6.0519   6.1597   6.2776
     6.3230   6.3916   6.5501   6.8048   6.9344   6.9935   7.0576   7.1454
     7.1586   7.3471   7.3835   7.4834   7.5561   7.5986   7.6603   7.8851
     7.9080   7.9175   7.9681   8.0563   8.0645   8.3130   8.3780   8.3821
     8.4145   8.5159   8.5272   8.5874   8.6738   8.7025   8.8308   8.9137
     8.9252   8.9615   8.9861   9.0850   9.3468   9.4182   9.4963   9.5047
     9.5248   9.5602   9.5650   9.8937   9.9429   9.9940  10.0328  10.1145
    10.1729  10.4019  10.4347  10.5583  10.5678  10.6021  10.6378  10.7183
    10.7418  10.7787  10.8637  11.1104  11.1169  11.2145  11.2302  11.2975
    11.3470  11.5520  11.5865  11.6195  11.6343  11.9962  12.0157  12.0259
    12.0327  12.0753  12.1740  12.2458  12.2906  12.3319  12.4187  12.4544
    12.5368  12.6288  12.6575  12.6936  12.7027  12.8758  12.9182  12.9400
    13.0899  13.3324  13.3819  13.4756  13.6868  13.7940  13.8659  13.9659
    14.1172  14.1201  14.1545  14.1642  14.2321  14.3116  14.3462  14.4181
    14.4963  14.5456  14.6767  14.7183  14.7517  14.8239  15.0157  15.0753
    15.0946  15.1442  15.1925  15.2975  15.3046  15.3233  15.3478  15.5246
    15.5890  15.5924  15.6750  15.7045  15.7481  15.7579  15.8372  15.8680
    15.8979  16.0019  16.0313  16.0377  16.1389  16.2623  16.3601  16.3898
    16.4367  16.5128  16.5236  16.5348  16.6269  16.6421  16.7403  16.7530
    16.7548  16.9627  17.0093  17.0367  17.0823  17.2134  17.2757  17.3067
    17.3363  17.5188  17.5203  17.5274  17.6102  17.6345  17.6473  17.6866
    17.7421  17.8070  17.8191  17.9029  18.0125  18.1160  18.1233  18.2061
    18.4023  18.4127  18.4306  18.4459  18.7194  18.8088  18.8188  18.9030
    18.9088  19.0769  19.2075  19.2347  19.2573  19.2651  19.2672  19.2782
    19.5648  19.6002  19.7394  19.8049  19.8343  19.8702  19.9549  19.9885
    20.0139  20.0327  20.0895  20.0913  20.4004  20.4399  20.4507  20.4636
    20.5047  20.5513  20.7236  20.7830  20.8293  20.8308  20.8526  20.8647
    20.9360  20.9492  20.9678  21.1092  21.1230  21.1888  21.2044  21.2426
    21.2530  21.3047  21.3399  21.4717  21.5237  21.5819  21.6281  21.6452
    21.6746  21.6913  21.7281  21.7895  21.8355  21.8427  21.8597  21.9256
    21.9961  22.0182  22.0579  22.0611  22.2626  22.2912  22.3866  22.4297
    22.4401  22.4652  22.5035  22.5928  22.7075  22.7123  22.7629  22.7780
    22.8062  22.8257  22.8391  22.8551  22.8662  23.0402  23.0738  23.2591
    23.2680  23.4205  23.4426  23.4840  23.6020  23.7014  23.7456  23.7637
    23.8493  23.9988  24.0079  24.0473  24.0765  24.1443  24.1847  24.2447
    24.2804  24.3502  24.3790  24.5017  24.5224  24.5573  24.7200  24.7302
    24.7701  24.8020  24.8255  25.1002  25.1413  25.1924  25.2593  25.4286
    25.4593  25.4982  25.5352  25.5799  25.6181  25.6460  25.7087  25.7777
    25.8056  25.8469  25.8833  25.9607  25.9899  26.0540  26.1647  26.3237
    26.3514  26.4095  26.4422  26.5372  26.5414  26.6494  26.6615  26.7134
    26.8133  26.8550  27.0201  27.1037  27.1766  27.1940  27.2508  27.3355
    27.3878  27.4267  27.4427  27.5076  27.5333  27.5370  27.5825  27.6536
    27.7290  27.8427  27.8612  27.8757  27.9012  28.0101  28.0655  28.0661
    28.0943  28.1376  28.2051  28.2384  28.2428  28.2641  28.3373  28.4393
    28.5207  28.6148  28.6270  28.6547  28.7263  28.8062  28.8253  28.8612
    28.8694  28.9670  28.9767  28.9890  29.0445  29.1987  29.2353  29.2834
    29.3826  29.3899  29.4216  29.5505  29.5881  29.5978  29.6491  29.6565
    29.7610  29.7697  29.8086  29.8832  29.8972  29.9115  30.0077  30.1451
    30.1797  30.1969  30.2190  30.2580  30.2770  30.3578  30.3868  30.3973
    30.5194  30.5921  30.6685  30.6774  30.7322  30.7651  30.7778  30.9457
    30.9623  31.0976  31.1035  31.1270  31.2010  31.2629  31.2656  31.2945
    31.3085  31.3892  31.3955  31.4463

          k = 0.0000 0.0000 0.0563 ( 29964 PWs)   bands (ev):

   -29.5726 -29.5701 -28.4024 -28.3997 -21.2439 -20.9728 -20.3541 -19.4512
   -18.3624 -18.2108 -18.0598 -17.4913 -17.0795 -16.6515 -16.1745 -14.7709
   -14.5015 -13.8345 -13.7652 -13.0358 -12.9000 -12.6901 -11.8594 -11.8275
   -11.6344 -11.4620 -11.3455 -10.6774 -10.4689 -10.2942 -10.2206 -10.2167
    -9.6115  -9.4694  -9.1066  -9.0649  -8.6718  -8.5725  -8.4619  -8.4514
    -8.2555  -7.8980  -7.7590  -7.6909  -7.3590  -7.0595  -6.7587  -6.5343
    -6.4495  -5.7914  -5.7722  -5.7016  -5.5846  -5.3929  -4.7112  -4.4126
    -3.8845  -3.6035  -0.4237  -0.1651   0.5272   0.6149   1.1614   1.4698
     1.4810   1.6713   1.9855   2.0608   2.5179   2.8874   3.1159   3.1338
     3.3950   3.4423   3.7295   3.7861   4.0081   4.0560   4.2591   4.3288
     4.4324   4.4673   4.6676   5.0062   5.1410   5.4034   5.4495   5.4978
     5.6061   5.6378   5.7274   5.7596   5.9498   6.0057   6.1465   6.2055
     6.3126   6.3666   6.4349   6.6076   6.9098   6.9443   6.9726   7.1379
     7.2159   7.2246   7.2551   7.2786   7.3639   7.4463   7.6673   7.6880
     7.8647   7.8995   7.9757   8.0231   8.1292   8.1536   8.1739   8.2364
     8.3055   8.3727   8.4491   8.4600   8.4878   8.6539   8.7088   8.8613
     8.9065   8.9722   9.0416   9.1313   9.1423   9.3547   9.3778   9.3987
     9.4673   9.5721   9.6265   9.8171   9.8347   9.9968  10.0019  10.1199
    10.1617  10.2507  10.4713  10.4868  10.5638  10.6180  10.6228  10.6841
    10.6849  10.6965  10.8577  11.1382  11.1507  11.1871  11.2153  11.3701
    11.3760  11.5642  11.5858  11.6014  11.6996  11.8769  11.9720  12.0038
    12.0049  12.0570  12.1116  12.2060  12.2116  12.3769  12.4142  12.4563
    12.5910  12.6664  12.6973  12.7427  12.8444  12.9131  12.9183  12.9307
    13.0445  13.2485  13.2929  13.3251  13.6787  13.7620  13.8477  13.9331
    14.0067  14.0604  14.0820  14.2063  14.3260  14.3461  14.3852  14.4989
    14.5781  14.6580  14.7123  14.7608  14.7855  14.9908  14.9946  15.0184
    15.0744  15.1870  15.2025  15.2578  15.2950  15.3470  15.4219  15.4614
    15.5395  15.5569  15.6656  15.7898  15.8004  15.8050  16.0025  16.0258
    16.0278  16.0599  16.1274  16.1418  16.2621  16.3527  16.4291  16.4656
    16.5592  16.5643  16.6053  16.6535  16.6763  16.7844  16.8262  16.8882
    16.9151  16.9614  16.9759  17.0928  17.1825  17.2807  17.3585  17.3872
    17.4183  17.4431  17.4897  17.5174  17.7000  17.7419  17.7829  17.7843
    17.8013  17.8345  17.9074  18.0828  18.1491  18.1974  18.2502  18.4448
    18.4754  18.5343  18.5587  18.6178  18.6592  18.6963  18.8576  18.8713
    18.8992  19.0641  19.1099  19.1944  19.2629  19.3471  19.3909  19.4162
    19.5109  19.6001  19.6050  19.8141  19.9400  20.0170  20.1368  20.1767
    20.1893  20.2084  20.2192  20.2912  20.3813  20.4404  20.4838  20.4955
    20.5134  20.6652  20.6863  20.7547  20.7668  20.8211  20.9320  20.9364
    21.0231  21.0791  21.1140  21.1462  21.1931  21.2152  21.2352  21.2805
    21.2915  21.3197  21.3881  21.4376  21.4807  21.5457  21.5792  21.6274
    21.6754  21.7090  21.7565  21.8727  21.9037  21.9440  21.9495  21.9943
    22.0034  22.0665  22.1960  22.2905  22.2908  22.3379  22.4210  22.4552
    22.4993  22.5732  22.6198  22.6585  22.6949  22.7311  22.7724  22.8308
    22.8746  22.9090  22.9730  22.9771  23.0689  23.1056  23.1287  23.1348
    23.2328  23.3864  23.4414  23.4748  23.5111  23.7538  23.7564  23.7573
    23.7689  24.0194  24.0604  24.0701  24.0804  24.1287  24.2161  24.2489
    24.4237  24.4451  24.5173  24.6434  24.7083  24.7113  24.7822  24.8196
    24.8565  24.9453  25.0121  25.0300  25.1304  25.1375  25.2659  25.4498
    25.4854  25.5267  25.5622  25.6098  25.6361  25.6745  25.7601  25.8002
    25.8268  26.0124  26.0216  26.0597  26.1019  26.2048  26.2169  26.2346
    26.2623  26.3144  26.4188  26.4498  26.5438  26.5886  26.6618  26.7758
    26.7833  26.7868  26.8647  26.9349  27.0880  27.1094  27.2199  27.2279
    27.3533  27.3911  27.4181  27.5354  27.5359  27.6514  27.6959  27.7053
    27.7578  27.8514  27.8991  27.9482  27.9625  28.0217  28.0634  28.0893
    28.0895  28.1405  28.1525  28.1834  28.2791  28.3520  28.3601  28.4157
    28.4508  28.4622  28.6042  28.6190  28.6875  28.6967  28.7673  28.8715
    28.8971  28.9007  28.9813  29.0753  29.0980  29.1522  29.1762  29.1959
    29.2596  29.2644  29.3205  29.3236  29.4557  29.4619  29.4961  29.5127
    29.6020  29.6220  29.6390  29.6652  29.7487  29.8611  29.9092  29.9179
    29.9603  30.0093  30.0201  30.0750  30.0893  30.1847  30.2121  30.2796
    30.3613  30.4001  30.5772  30.5941  30.6859  30.7272  30.8123  30.8279
    30.9118  30.9200  31.0396  31.0479  31.1095  31.1872  31.1895  31.2690
    31.2722  31.3260  31.3439  31.4016

          k = 0.0000 0.0000 0.0610 ( 29960 PWs)   bands (ev):

   -29.5441 -29.5416 -28.4396 -28.4369 -21.1854 -20.9152 -20.2977 -19.3971
   -18.4598 -18.2316 -18.2164 -17.6384 -17.0799 -16.7494 -16.2212 -14.8113
   -14.4853 -13.8939 -13.6624 -12.8548 -12.8061 -12.6219 -11.8651 -11.7068
   -11.5202 -11.4301 -11.2455 -10.7575 -10.3674 -10.1942 -10.1805 -10.1769
    -9.5450  -9.5382  -9.0405  -8.9974  -8.6257  -8.5429  -8.5068  -8.4644
    -8.2688  -7.9438  -7.7182  -7.7000  -7.4508  -7.1761  -6.7040  -6.6966
    -6.5362  -5.9612  -5.8118  -5.7495  -5.5614  -5.5458  -4.8714  -4.4208
    -4.0031  -3.6694  -0.3801  -0.0452   0.4990   0.8122   1.3958   1.5488
     1.7314   1.7471   1.9697   2.0588   2.5874   2.9692   3.1651   3.2137
     3.4715   3.4930   3.6712   3.8086   4.0884   4.1373   4.3392   4.4043
     4.5090   4.5095   4.7219   5.0287   5.1264   5.3624   5.4193   5.4717
     5.5171   5.6711   5.6875   5.8275   5.8770   5.9505   6.1010   6.1545
     6.3290   6.3537   6.4029   6.4617   6.7510   6.8425   6.8799   6.9958
     7.0158   7.1143   7.1859   7.3055   7.3476   7.3970   7.4890   7.7150
     7.7234   7.8038   7.9460   7.9786   8.0138   8.0523   8.0583   8.1594
     8.2101   8.2215   8.2232   8.2862   8.5269   8.5415   8.7270   8.7775
     8.9377   8.9657   8.9938   9.0923   9.0992   9.1548   9.3456   9.3836
     9.4121   9.6214   9.6426   9.6853   9.7017   9.9899   9.9916  10.0763
    10.1434  10.2277  10.4330  10.4595  10.5765  10.5909  10.5918  10.6077
    10.7191  10.7284  10.9312  11.1208  11.1594  11.1625  11.1910  11.4186
    11.4443  11.5246  11.5486  11.5681  11.7024  11.7722  11.7991  12.0151
    12.0288  12.0334  12.1191  12.1256  12.1905  12.2769  12.4691  12.4766
    12.5388  12.6893  12.7882  12.8615  12.8748  12.9024  12.9174  13.0060
    13.0257  13.1932  13.2044  13.3365  13.6415  13.6515  13.8263  13.8733
    13.9244  13.9495  13.9510  14.2697  14.3267  14.3591  14.4662  14.5080
    14.6283  14.7582  14.7586  14.7665  14.8778  14.8807  14.9058  14.9902
    15.0588  15.2223  15.2348  15.3168  15.3339  15.4886  15.4889  15.4903
    15.5791  15.6106  15.7024  15.8016  15.8498  15.9368  15.9456  16.0038
    16.0415  16.1180  16.1326  16.2357  16.4557  16.5009  16.5385  16.6372
    16.6705  16.6748  16.7120  16.7598  16.7909  16.8321  16.8936  16.9000
    17.1030  17.1255  17.1425  17.1662  17.2633  17.3241  17.3492  17.3692
    17.3950  17.5350  17.5857  17.6576  17.7372  17.8262  17.8606  17.8610
    17.9307  17.9472  17.9550  18.1829  18.3371  18.3606  18.3796  18.3869
    18.5310  18.6225  18.7417  18.7887  18.8100  18.8159  18.8701  18.9504
    18.9851  19.0161  19.0905  19.1584  19.2394  19.4066  19.4100  19.4359
    19.4862  19.5352  19.6084  19.8397  19.8429  20.0547  20.2171  20.2245
    20.2871  20.3545  20.3606  20.3793  20.4231  20.5445  20.5483  20.5882
    20.6412  20.6927  20.7352  20.7410  20.7590  20.8485  20.9666  20.9853
    21.1153  21.1626  21.1764  21.1865  21.1900  21.2400  21.2645  21.3253
    21.3493  21.4168  21.4251  21.4387  21.4887  21.5351  21.5561  21.6191
    21.7120  21.7482  21.8782  21.8900  21.9389  21.9938  22.0575  22.0671
    22.1332  22.1497  22.1776  22.3439  22.3528  22.4018  22.4813  22.5297
    22.5849  22.6078  22.6718  22.6977  22.7394  22.7990  22.8161  22.9017
    22.9443  23.0211  23.0332  23.0727  23.1445  23.1537  23.1956  23.3488
    23.3616  23.3636  23.4295  23.5170  23.5839  23.6781  23.7605  23.7978
    23.8223  23.9615  23.9615  24.0109  24.0227  24.2803  24.2926  24.4130
    24.4834  24.5165  24.5930  24.6213  24.6945  24.7881  24.8690  24.9086
    24.9904  25.0314  25.1543  25.1928  25.2654  25.2723  25.3905  25.4592
    25.4697  25.6060  25.6168  25.6634  25.6671  25.7012  25.7486  25.7634
    25.8592  25.9811  26.0224  26.0308  26.1261  26.1482  26.1712  26.2392
    26.3144  26.3754  26.4464  26.4727  26.5151  26.5860  26.5925  26.6480
    26.7523  26.7727  26.8175  26.8510  26.9171  27.0596  27.1458  27.1569
    27.3250  27.3891  27.4342  27.4859  27.5543  27.6208  27.6670  27.6793
    27.7261  27.8446  27.8651  27.8661  27.8740  28.0099  28.0211  28.0371
    28.0852  28.1286  28.2368  28.2369  28.3066  28.4116  28.4301  28.4337
    28.4583  28.5140  28.5751  28.5776  28.6182  28.6751  28.6807  28.7629
    28.7651  28.7943  28.8148  28.8569  28.9338  28.9582  29.0134  29.0199
    29.1350  29.2376  29.2530  29.2665  29.3196  29.3370  29.4664  29.4718
    29.4901  29.5516  29.5827  29.6036  29.6369  29.6782  29.6952  29.7664
    29.8991  29.9033  29.9266  30.0513  30.0750  30.0821  30.0842  30.1851
    30.2517  30.3357  30.3931  30.4682  30.5122  30.5699  30.6605  30.7214
    30.7371  30.8157  30.8573  30.9505  31.0083  31.0450  31.1213  31.2184
    31.2438  31.2975  31.2983  31.3648

          k = 0.0000 0.0000 0.0657 ( 29966 PWs)   bands (ev):

   -29.5139 -29.5114 -28.4783 -28.4756 -21.1222 -20.8532 -20.2369 -19.3393
   -18.6086 -18.3702 -18.1993 -17.7774 -17.1213 -16.8022 -16.2790 -14.8354
   -14.4978 -13.9216 -13.5777 -12.8527 -12.6792 -12.4013 -11.9074 -11.5859
   -11.4197 -11.3453 -11.1464 -10.8332 -10.2647 -10.1385 -10.1352 -10.0926
    -9.6242  -9.4631  -8.9694  -8.9267  -8.5819  -8.5692  -8.5532  -8.4185
    -8.3153  -7.9671  -7.7503  -7.6364  -7.5476  -7.2974  -6.8663  -6.6454
    -6.6265  -6.1322  -5.8534  -5.7990  -5.7281  -5.5067  -5.0245  -4.4534
    -4.0943  -3.7384  -0.3323   0.0446   0.4994   1.0036   1.6339   1.6340
     1.8283   1.8565   2.0126   2.1371   2.6608   3.0574   3.2158   3.2999
     3.5164   3.5458   3.5893   3.8939   4.1751   4.2251   4.4255   4.4875
     4.5462   4.5886   4.7669   5.0436   5.0839   5.2389   5.3001   5.4384
     5.4786   5.7444   5.7481   5.7748   5.8958   5.9125   6.0213   6.1812
     6.1925   6.3650   6.4082   6.5006   6.5837   6.6512   6.6979   6.7907
     6.9169   6.9849   7.0339   7.2717   7.4081   7.4203   7.5007   7.5378
     7.6321   7.7225   7.7955   7.7968   7.8496   7.9068   7.9925   8.0666
     8.0792   8.1365   8.2051   8.2962   8.3963   8.6105   8.6628   8.7660
     8.8027   8.9130   8.9370   8.9912   9.0662   9.1629   9.3538   9.3750
     9.4033   9.4495   9.5142   9.7222   9.7827   9.8479   9.9086  10.0385
    10.2111  10.3029  10.3698  10.4342  10.5145  10.5391  10.6103  10.6343
    10.7627  10.8021  10.9820  11.0498  11.1614  11.1822  11.2327  11.3375
    11.4710  11.5011  11.5220  11.5467  11.5610  11.6233  11.8219  11.8774
    11.9474  12.0703  12.1007  12.1675  12.2438  12.2833  12.3599  12.4893
    12.5908  12.6610  12.7436  12.8666  12.8726  12.8875  12.9708  13.1058
    13.1373  13.1462  13.1653  13.3731  13.5490  13.6091  13.6912  13.7809
    13.8296  13.8587  14.0124  14.2923  14.3487  14.3558  14.3639  14.5664
    14.6344  14.6567  14.6964  14.7127  14.7974  14.9270  14.9321  15.0766
    15.0844  15.1923  15.3183  15.3746  15.4200  15.4289  15.4566  15.6378
    15.6796  15.7089  15.7399  15.8482  15.9266  15.9581  16.0304  16.0615
    16.1377  16.1787  16.2206  16.2887  16.4226  16.5281  16.5679  16.6111
    16.7306  16.7642  16.7821  16.9171  16.9224  16.9876  17.1297  17.1357
    17.2130  17.2138  17.2302  17.2779  17.3214  17.3788  17.3811  17.4554
    17.5612  17.6075  17.7434  17.7851  17.8260  17.8671  17.8982  17.9298
    17.9471  18.1177  18.1766  18.2320  18.2457  18.3776  18.4296  18.6030
    18.6760  18.7599  18.8695  18.8805  18.8995  18.9093  19.0049  19.0545
    19.1081  19.1841  19.1868  19.2093  19.2571  19.3258  19.3721  19.4446
    19.5555  19.5719  19.6166  19.7712  19.7840  20.0157  20.1434  20.1657
    20.1960  20.3584  20.4568  20.5110  20.5214  20.5244  20.5388  20.6095
    20.7260  20.7904  20.7963  20.9248  20.9753  21.0041  21.0098  21.0376
    21.0868  21.1177  21.1902  21.2010  21.2160  21.2665  21.2762  21.3068
    21.3912  21.4575  21.4625  21.5264  21.5517  21.6528  21.6836  21.7270
    21.7440  21.8489  21.9432  21.9653  22.0025  22.0227  22.1230  22.1730
    22.1956  22.2004  22.2038  22.4058  22.4163  22.4443  22.5104  22.5320
    22.6238  22.6462  22.6732  22.6869  22.8290  22.8469  22.8602  22.9291
    22.9801  23.1127  23.1312  23.1994  23.2421  23.2612  23.3026  23.3885
    23.4405  23.4998  23.5769  23.6063  23.7106  23.7789  23.7876  23.8019
    23.8515  23.8828  23.9598  23.9882  24.1199  24.3736  24.4059  24.5190
    24.5413  24.5440  24.6328  24.6667  24.7079  24.7262  24.8746  24.8889
    25.0095  25.2627  25.2841  25.2958  25.3112  25.4376  25.5238  25.5457
    25.5518  25.5836  25.5850  25.6482  25.6885  25.7487  25.7580  25.8297
    25.8775  25.9421  26.0218  26.0253  26.0302  26.0899  26.0900  26.1308
    26.2445  26.2698  26.3323  26.3521  26.5488  26.6552  26.6835  26.7224
    26.7629  26.8093  26.8237  26.8633  26.8853  27.0033  27.1150  27.1863
    27.2916  27.3396  27.4113  27.4243  27.4380  27.5197  27.5277  27.6469
    27.7017  27.7375  27.7579  27.8306  27.8407  27.9535  27.9907  28.0291
    28.0435  28.0565  28.1445  28.1678  28.2420  28.2487  28.2618  28.2674
    28.3688  28.4201  28.4276  28.4318  28.5637  28.5872  28.6157  28.6236
    28.7020  28.7603  28.8117  28.8541  28.8818  28.9113  28.9506  29.0268
[...]
    10.0121  10.0700  10.2022  10.2782  10.3939  10.4984  10.5167  10.5857
    10.6126  10.8244  10.8544  10.8547  10.8982  11.1187  11.1694  11.1943
    11.2154  11.3088  11.4081  11.4413  11.4962  11.5410  11.5715  11.6529
    11.8266  11.8923  12.0034  12.0132  12.0612  12.1266  12.1714  12.2469
    12.4226  12.4262  12.6700  12.7088  12.8321  12.8703  12.9083  13.0530
    13.1007  13.1099  13.1921  13.2603  13.3975  13.4253  13.7519  13.8378
    13.8466  13.8615  13.9119  13.9749  14.0433  14.0483  14.1792  14.3379
    14.3616  14.4638  14.4936  14.6848  14.7366  14.7767  14.8296  15.0284
    15.0431  15.1159  15.1524  15.2473  15.4220  15.5801  15.5971  15.6513
    15.6580  15.8157  15.9201  15.9345  16.0183  16.2509  16.2726  16.3117
    16.3629  16.6781  16.6842  16.6850  16.7271  16.8097  16.8725  16.9932
    17.0044  17.0621  17.1395  17.2279  17.2434  17.2474  17.4635  17.5685
    17.5807  17.6274  17.6814  17.7968  17.9967  18.0045  18.1568  18.2102
    18.2448  18.3115  18.3336  18.5189  18.5446  18.6210  18.6557  18.6765
    18.7625  18.8423  18.9732  19.0064  19.1126  19.1518  19.1621  19.1818
    19.2951  19.4228  19.4571  19.5481  19.6430  19.6743  19.7139  19.7969
    19.7973  19.8851  19.8973  19.9624  19.9916  20.1457  20.1597  20.2423
    20.3247  20.3749  20.4881  20.5320  20.5901  20.6236  20.6374  20.7583
    20.7588  20.8170  20.8504  20.8557  20.8558  20.8862  20.9270  20.9582
    21.0301  21.0492  21.0914  21.1308  21.1390  21.1637  21.1846  21.3150
    21.3456  21.3937  21.4707  21.5220  21.5290  21.5689  21.6618  21.6903
    21.7309  21.7679  21.7845  21.8517  21.9668  21.9941  22.0393  22.0904
    22.1736  22.2011  22.2786  22.3262  22.3659  22.3860  22.4279  22.4977
    22.5007  22.5447  22.6592  22.7088  22.7121  22.7536  22.7695  22.8262
    22.9021  22.9689  22.9794  22.9984  23.1107  23.1556  23.1846  23.1865
    23.4124  23.4335  23.4422  23.4795  23.5658  23.5929  23.6375  23.6764
    23.7312  23.8103  23.8503  23.9799  24.0364  24.0940  24.1345  24.1611
    24.1670  24.2483  24.2866  24.2955  24.3002  24.3304  24.3799  24.4049
    24.5205  24.5864  24.6188  24.6579  24.6725  24.7753  24.7906  24.7986
    24.8870  24.9121  25.0750  25.0936  25.1069  25.1406  25.1615  25.1707
    25.2373  25.2867  25.3409  25.3638  25.4236  25.4456  25.4739  25.5206
    25.6001  25.6146  25.6529  25.6843  25.6901  25.7252  25.8098  25.9222
    25.9923  26.0751  26.1046  26.2061  26.2651  26.3097  26.3726  26.4642
    26.5379  26.5835  26.6807  26.7234  26.7297  26.8781  26.9203  26.9229
    26.9960  27.0516  27.0529  27.1156  27.1477  27.2714  27.2840  27.3055
    27.3397  27.3676  27.4059  27.5262  27.5288  27.5323  27.6091  27.6272
    27.7028  27.8276  27.8470  27.8920  27.9499  27.9749  27.9859  28.0084
    28.1166  28.1226  28.2356  28.2404  28.2871  28.3033  28.4072  28.4121
    28.4356  28.4639  28.5315  28.5788  28.5811  28.6712  28.7557  28.7575
    28.8618  28.8898  28.9743  29.0388  29.0826  29.1136  29.1791  29.2251
    29.2820  29.2903  29.3726  29.3806  29.4522  29.4905  29.5216  29.5753
    29.6210  29.6836  29.7037  29.7362  29.7628  29.8023  29.8444  29.8757
    29.9171  29.9450  29.9468  29.9894  30.0218  30.0591  30.1398  30.1455
    30.2391  30.4147  30.4149  30.4810  30.5065  30.5489  30.5551  30.5925
    30.6498  30.6533  30.6870  30.7451

          k = 0.0000 0.0000 0.1080 ( 29972 PWs)   bands (ev):

   -29.2211 -29.2187 -28.8240 -28.8213 -20.3503 -20.1022 -19.8926 -19.6300
   -19.4932 -19.0201 -18.6114 -18.1421 -17.5081 -17.0650 -16.5153 -15.0691
   -14.5871 -13.8939 -13.4764 -12.6319 -12.3703 -11.7235 -11.2562 -10.9637
   -10.9046 -10.7272 -10.1944 -10.0064  -9.9232  -9.7778  -9.7763  -9.3955
    -9.1860  -9.0945  -8.9862  -8.9559  -8.9531  -8.8230  -8.6577  -8.5130
    -8.4056  -8.2753  -8.0770  -7.8606  -7.7808  -7.6007  -7.5535  -7.4412
    -7.1010  -6.8599  -6.3637  -6.1683  -6.1527  -5.9419  -5.4216  -4.9644
    -4.3626  -4.1203  -0.1060   0.2211   0.8975   1.5350   2.3298   2.5960
     2.6843   2.8594   2.9488   3.3168   3.4110   3.6844   3.7121   3.7717
     3.8421   4.1471   4.1785   4.1992   4.3474   4.4025   4.6170   4.6894
     4.7891   4.7987   4.9388   4.9590   5.0455   5.2383   5.2483   5.3020
     5.3388   5.4858   5.5002   5.5345   5.5736   5.5873   5.6328   5.7015
     5.7086   5.8449   5.9065   5.9469   6.1086   6.1489   6.2087   6.2490
     6.2782   6.3358   6.4232   6.4234   6.5073   6.7812   6.8329   6.8696
     6.9402   6.9844   7.0660   7.1976   7.3008   7.3931   7.4044   7.4497
     7.4641   7.6248   7.8191   7.8651   8.0897   8.0963   8.4752   8.4876
     8.6428   8.8974   8.9341   9.0857   9.0902   9.1724   9.2736   9.2952
     9.3608   9.5683   9.6351   9.6398   9.7903   9.8396   9.8897   9.8987
    10.0338  10.1357  10.1377  10.2088  10.3403  10.5522  10.5556  10.7010
    10.7083  10.7219  10.7348  10.7539  10.9690  11.0738  11.1615  11.1840
    11.2790  11.2938  11.3121  11.3394  11.4756  11.6420  11.6663  11.7361
    11.8513  11.8937  11.9824  11.9877  12.0023  12.0303  12.0925  12.3145
    12.4604  12.4870  12.6073  12.6308  12.7111  12.8486  12.9517  13.0343
    13.1266  13.1559  13.1652  13.2686  13.3874  13.5132  13.7399  13.8065
    13.8598  13.8929  13.9491  13.9771  13.9775  13.9817  14.1057  14.2027
    14.4030  14.5051  14.6054  14.6078  14.6778  14.7976  14.9705  15.0468
    15.0797  15.1667  15.2256  15.3007  15.3623  15.5265  15.6040  15.6101
    15.6637  15.7022  15.8202  15.9488  16.0873  16.2042  16.2071  16.2192
    16.4103  16.5327  16.7018  16.7553  16.7719  16.8317  16.8610  17.0176
    17.0659  17.1092  17.1341  17.2259  17.2690  17.3424  17.4965  17.5138
    17.6397  17.6674  17.7264  17.7570  17.8593  17.9011  18.1098  18.1725
    18.2105  18.2924  18.2980  18.4401  18.4752  18.6559  18.8283  18.8747
    18.9621  19.0162  19.0562  19.0859  19.1214  19.2729  19.2767  19.2933
    19.4077  19.4861  19.5117  19.6358  19.6662  19.7386  19.8750  19.8811
    19.9243  19.9506  19.9748  20.0663  20.0801  20.1271  20.1680  20.3461
    20.3467  20.4073  20.4985  20.5608  20.6560  20.6647  20.7445  20.7592
    20.8120  20.9019  20.9077  20.9109  20.9350  21.0024  21.0116  21.0365
    21.0453  21.1183  21.1671  21.1866  21.1891  21.2443  21.2674  21.2915
    21.3396  21.3705  21.4126  21.4887  21.5535  21.6101  21.6965  21.7294
    21.7554  21.7982  21.8851  21.8892  21.9674  21.9781  22.0392  22.0918
    22.1838  22.1908  22.2371  22.2501  22.4734  22.4926  22.5211  22.5392
    22.5612  22.6753  22.6783  22.6877  22.7439  22.7572  22.8239  22.8491
    22.8608  22.8918  22.9593  22.9742  23.0557  23.1132  23.2120  23.2487
    23.2673  23.3029  23.4312  23.4316  23.5080  23.5752  23.6255  23.6381
    23.6931  23.7594  23.8465  23.8511  23.9083  23.9684  23.9850  24.0615
    24.0931  24.1082  24.1162  24.1695  24.2721  24.3241  24.3682  24.3913
    24.5790  24.6658  24.6698  24.6871  24.8001  24.8411  24.9049  24.9183
    24.9268  24.9931  25.0078  25.0548  25.0588  25.1147  25.1371  25.1444
    25.1610  25.1783  25.2336  25.2685  25.2736  25.3243  25.3774  25.4919
    25.5543  25.6188  25.6913  25.7059  25.7236  25.7774  25.7949  26.0800
    26.1045  26.1189  26.1508  26.1772  26.1806  26.2282  26.2333  26.4813
    26.4822  26.5907  26.6701  26.8109  26.8877  26.9031  26.9492  27.0061
    27.0111  27.0243  27.0840  27.1441  27.1827  27.2024  27.2669  27.3003
    27.3176  27.4030  27.4622  27.5503  27.5728  27.6160  27.6758  27.7579
    27.7597  27.7879  27.8056  27.8137  27.8464  27.9567  27.9693  28.0601
    28.0640  28.1772  28.1953  28.2250  28.2371  28.2798  28.3124  28.3428
    28.3767  28.5369  28.5399  28.5893  28.6334  28.6488  28.7646  28.8264
    28.8366  28.9419  28.9793  29.0526  29.0936  29.1106  29.1526  29.1845
    29.2754  29.3085  29.3517  29.4517  29.4621  29.4761  29.5498  29.5646
    29.6092  29.6206  29.6584  29.6910  29.7180  29.7273  29.8154  29.8225
    29.8921  29.9063  29.9081  29.9427  29.9526  30.0983  30.1678  30.1838
    30.2041  30.2825  30.3344  30.3700  30.4135  30.4579  30.6030  30.6059
    30.6519  30.6521  30.6526  30.6955

          k = 0.0000 0.0000 0.1127 ( 29976 PWs)   bands (ev):

   -29.2040 -29.2015 -28.8427 -28.8400 -20.2438 -20.0094 -20.0065 -19.7374
   -19.4080 -19.1197 -18.5310 -18.2341 -17.4397 -17.1401 -16.4986 -15.0947
   -14.5599 -13.9307 -13.4436 -12.6684 -12.3105 -11.7825 -11.1307 -10.9408
   -10.9141 -10.8139 -10.0405  -9.8857  -9.8236  -9.7614  -9.7600  -9.5451
    -9.1623  -9.1166  -8.9731  -8.9704  -8.9121  -8.8452  -8.6803  -8.5836
    -8.5328  -8.2546  -7.9537  -7.8617  -7.7648  -7.6911  -7.4909  -7.4866
    -7.2291  -6.7616  -6.4752  -6.1793  -6.1649  -5.8707  -5.5039  -4.9329
    -4.3985  -4.1164  -0.1166   0.2621   0.8486   1.6262   2.2408   2.6743
     2.7418   3.0105   3.0279   3.2976   3.3483   3.5709   3.6847   3.7162
     4.0622   4.1444   4.1995   4.3016   4.4863   4.5745   4.6026   4.6272
     4.6392   4.7690   4.9208   4.9390   5.0825   5.1063   5.2590   5.2927
     5.4107   5.4198   5.4494   5.5432   5.6186   5.6602   5.6788   5.7372
     5.7682   5.8295   5.8507   5.9483   5.9527   5.9866   6.1232   6.1428
     6.1680   6.2286   6.4925   6.5394   6.5476   6.8040   6.8072   6.9262
     6.9793   6.9863   7.1414   7.1927   7.2325   7.2881   7.3197   7.4516
     7.4959   7.5863   7.6880   7.8436   7.9346   8.1412   8.5956   8.6200
     8.6320   8.7783   8.9293   8.9342   9.0778   9.3078   9.3961   9.4190
     9.4221   9.5073   9.6235   9.7335   9.7345   9.7716   9.8273   9.8786
     9.9207  10.0673  10.2070  10.2790  10.2803  10.5563  10.5870  10.6681
    10.6742  10.6780  10.7958  10.8195  10.9525  11.0685  11.0781  11.1884
    11.1899  11.1941  11.3497  11.4198  11.5277  11.7205  11.7506  11.7546
    11.8039  11.8384  11.9282  11.9348  11.9409  12.0340  12.1943  12.2906
    12.4147  12.5325  12.5399  12.6346  12.7358  12.8409  12.8843  12.9943
    13.1099  13.1899  13.2008  13.2546  13.4955  13.5294  13.7376  13.7731
    13.7938  13.8605  13.9338  13.9419  13.9615  14.0348  14.1146  14.1801
    14.3976  14.4529  14.5535  14.5989  14.7600  14.9068  15.0468  15.0999
    15.1355  15.1697  15.1900  15.3151  15.4311  15.4321  15.4383  15.5088
    15.6921  15.7882  15.7976  15.9323  16.1278  16.1625  16.1742  16.2525
    16.3973  16.4237  16.5994  16.7286  16.8107  16.9004  16.9655  16.9681
    17.0717  17.1344  17.2323  17.2724  17.2818  17.4198  17.4263  17.5507
    17.6011  17.6786  17.6847  17.8107  17.8371  17.8759  17.9796  18.0929
    18.2443  18.2663  18.2968  18.3531  18.3543  18.6289  18.8811  19.0479
    19.0635  19.0855  19.1367  19.2395  19.2823  19.3487  19.3974  19.4153
    19.4967  19.5335  19.5726  19.6969  19.7029  19.7082  19.7349  19.9243
    19.9914  20.1027  20.1266  20.1679  20.1844  20.2504  20.3183  20.3224
    20.3447  20.3600  20.3694  20.5448  20.5631  20.6327  20.7692  20.7797
    20.8351  20.8553  20.9033  20.9089  20.9249  20.9660  20.9837  21.0106
    21.0258  21.0880  21.1806  21.1832  21.2029  21.3540  21.4350  21.4413
    21.4950  21.5066  21.5533  21.5639  21.6450  21.6461  21.7579  21.7686
    21.7868  21.8038  21.8129  21.9172  21.9519  22.0786  22.0862  22.1091
    22.1552  22.1831  22.3322  22.3627  22.3701  22.4160  22.5312  22.5709
    22.5999  22.6267  22.6282  22.6985  22.7097  22.7427  22.7628  22.7668
    22.8665  22.8928  22.9102  22.9279  22.9581  23.1237  23.1511  23.2510
    23.3359  23.3959  23.4081  23.4687  23.4998  23.5271  23.5969  23.6714
    23.6786  23.7026  23.7726  23.8481  23.9053  23.9091  23.9364  23.9948
    24.0087  24.0411  24.0819  24.1977  24.2242  24.2772  24.3064  24.3469
    24.3776  24.4568  24.5396  24.7144  24.7321  24.7732  24.8818  24.9404
    24.9455  24.9703  25.0076  25.0172  25.0427  25.0907  25.1056  25.1460
    25.1657  25.2250  25.2526  25.2618  25.4321  25.4783  25.4811  25.5867
    25.6407  25.6444  25.7343  25.7694  25.8159  25.8231  25.8712  25.9436
    25.9638  26.0703  26.0839  26.1641  26.2425  26.3112  26.4480  26.4576
    26.4639  26.4820  26.5559  26.6102  26.6954  26.7675  26.8293  26.9144
    26.9597  27.0046  27.2202  27.2317  27.2752  27.3340  27.3616  27.3750
    27.3829  27.5024  27.5185  27.5957  27.6026  27.6467  27.6686  27.6690
    27.7169  27.7667  27.7784  27.8775  27.8872  27.8937  28.0539  28.0836
    28.1479  28.2032  28.2263  28.2675  28.3138  28.3554  28.3566  28.4346
    28.4547  28.4771  28.4928  28.5103  28.5546  28.6821  28.7205  28.7404
    28.8331  28.8483  28.9099  28.9414  28.9691  29.1323  29.2103  29.2356
    29.2523  29.2800  29.3162  29.3445  29.3745  29.3794  29.3869  29.3878
    29.5374  29.6663  29.7055  29.7476  29.7970  29.8240  29.8262  29.8768
    29.8808  29.8960  29.9092  29.9735  30.0008  30.1493  30.1948  30.2159
    30.2633  30.2845  30.3212  30.3305  30.3586  30.3774  30.4763  30.6026
    30.6105  30.6285  30.6592  30.6954

          k = 0.0000 0.0000-0.1174 ( 29940 PWs)   bands (ev):

   -29.1978 -29.1953 -28.8494 -28.8467 -20.1558 -20.1011 -19.9483 -19.7995
   -19.3606 -19.1716 -18.4893 -18.2797 -17.4072 -17.1748 -16.4929 -15.1034
   -14.5500 -13.9439 -13.4318 -12.6814 -12.2871 -11.8056 -11.0430 -10.9671
   -10.9332 -10.8391  -9.9920  -9.7845  -9.7558  -9.7543  -9.7350  -9.7001
    -9.1621  -9.1364  -8.9790  -8.9763  -8.8644  -8.8455  -8.6575  -8.6184
    -8.6122  -8.2470  -7.8618  -7.8359  -7.8136  -7.7575  -7.5098  -7.3961
    -7.3243  -6.7031  -6.5382  -6.1829  -6.1689  -5.8384  -5.5400  -4.9213
    -4.4116  -4.1151  -0.1201   0.2775   0.8306   1.6633   2.2044   2.7043
     2.7629   3.0770   3.0830   3.2319   3.3595   3.5014   3.6875   3.6941
     4.1250   4.2050   4.2101   4.4359   4.4604   4.4620   4.6021   4.6138
     4.6197   4.9120   4.9149   4.9324   5.0223   5.0450   5.2586   5.2618
     5.2914   5.5032   5.5543   5.5810   5.6062   5.6119   5.6777   5.7832
     5.8122   5.8244   5.8352   5.8806   6.0051   6.0073   6.0095   6.0510
     6.1180   6.1705   6.5308   6.6085   6.6284   6.7185   6.7261   6.9711
     7.0721   7.0815   7.1255   7.1367   7.1504   7.2931   7.2967   7.4029
     7.5313   7.5585   7.7413   7.8109   7.8187   8.1768   8.5783   8.7264
     8.7469   8.7748   8.7875   8.7984   9.2253   9.2451   9.3989   9.4669
     9.5528   9.5574   9.5951   9.6136   9.7001   9.7558   9.8298   9.8796
     9.9594  10.0237  10.1019  10.4055  10.4135  10.4189  10.4587  10.6427
    10.7471  10.7970  10.7999  10.8058  10.9112  11.0471  11.1231  11.1271
    11.1292  11.2074  11.3013  11.5414  11.6073  11.6425  11.7102  11.7880
    11.8062  11.8323  11.8929  11.9029  11.9766  12.0298  12.2478  12.3028
    12.3368  12.4858  12.5513  12.7388  12.7536  12.7754  12.8400  13.0130
    13.0680  13.2003  13.2127  13.2740  13.5201  13.6089  13.6195  13.7609
    13.8454  13.9081  13.9142  13.9193  13.9274  13.9379  14.2351  14.2512
    14.2631  14.4754  14.4801  14.6117  14.8534  14.9564  15.0450  15.0572
    15.1892  15.1968  15.2062  15.3256  15.3589  15.4069  15.4335  15.4421
    15.7006  15.7846  15.8453  15.9352  16.0942  16.1467  16.1680  16.3331
    16.4036  16.4127  16.4481  16.7723  16.8197  16.9075  16.9128  17.0776
    17.0822  17.1291  17.2293  17.2359  17.3998  17.4056  17.4606  17.4828
    17.5755  17.6637  17.7024  17.8122  17.8432  17.8967  17.9622  18.0263
    18.2621  18.2669  18.2932  18.3001  18.3112  18.6176  18.9020  19.0546
    19.0595  19.1210  19.1336  19.3551  19.3891  19.4151  19.4235  19.4803
    19.4979  19.5547  19.6258  19.6724  19.7275  19.7446  19.8784  19.9752
    19.9826  20.0196  20.0332  20.0913  20.1999  20.2643  20.3051  20.3284
    20.3428  20.4746  20.5260  20.5525  20.5639  20.6040  20.6178  20.7717
    20.7851  20.9114  20.9308  20.9496  20.9933  21.0087  21.0141  21.0182
    21.0262  21.0288  21.0938  21.1044  21.1098  21.2496  21.4103  21.4403
    21.4889  21.5919  21.6202  21.6721  21.7825  21.7905  21.8519  21.8597
    21.8640  21.8644  21.9139  21.9310  21.9424  22.0321  22.0794  22.1729
    22.2044  22.2106  22.2774  22.3025  22.3790  22.3916  22.3979  22.4596
    22.4655  22.5222  22.6241  22.6253  22.6561  22.6993  22.7197  22.7833
    22.8922  22.9343  22.9959  23.0677  23.1177  23.2102  23.2246  23.2399
    23.2417  23.2676  23.3076  23.3471  23.4455  23.5162  23.5654  23.6401
    23.7078  23.7398  23.7869  23.9104  23.9200  24.0178  24.0342  24.0435
    24.0621  24.1072  24.1100  24.1513  24.1947  24.2302  24.2302  24.3037
    24.3472  24.3509  24.3973  24.4023  24.5488  24.7895  24.8506  24.8634
    24.9248  24.9542  24.9819  24.9990  25.0302  25.0915  25.2074  25.2091
    25.2185  25.3817  25.3875  25.4202  25.4254  25.5045  25.5528  25.6312
    25.6971  25.7007  25.7533  25.8119  25.8318  25.8567  25.8592  25.8639
    25.9162  26.0171  26.0189  26.1691  26.1831  26.2586  26.3002  26.3992
    26.4423  26.5130  26.5904  26.7527  26.7577  26.7784  26.8527  26.9130
    26.9446  26.9534  27.0348  27.0951  27.1406  27.1707  27.4322  27.5178
    27.5261  27.5444  27.5777  27.5801  27.6192  27.6538  27.6680  27.7186
    27.7956  27.8005  27.8235  27.9100  27.9415  27.9702  28.0156  28.1004
    28.1879  28.2098  28.2726  28.2985  28.3364  28.3391  28.3633  28.4082
    28.4252  28.4706  28.4881  28.5061  28.5082  28.6390  28.6647  28.6755
    28.8441  28.8722  28.9005  28.9829  28.9882  29.0405  29.0879  29.1634
    29.2101  29.2531  29.2566  29.2645  29.3691  29.3969  29.4618  29.5087
    29.5888  29.6212  29.6381  29.6704  29.6862  29.7862  29.8281  29.8782
    29.9266  29.9595  29.9875  30.0438  30.0462  30.0839  30.0841  30.1779
    30.2866  30.3077  30.4306  30.4641  30.4746  30.4761  30.5361  30.6220
    30.6252  30.6292  30.6322  30.6385

     the Fermi energy is    -2.0259 ev

     Writing output data file F11.save/

     init_run     :      5.36s CPU      5.51s WALL (       1 calls)
     electrons    :   2814.12s CPU   2851.75s WALL (       1 calls)

     Called by init_run:
     wfcinit      :      0.00s CPU      0.00s WALL (       1 calls)
     potinit      :      0.30s CPU      0.33s WALL (       1 calls)
     hinit0       :      4.46s CPU      4.52s WALL (       1 calls)

     Called by electrons:
     c_bands      :   2814.11s CPU   2851.73s WALL (       1 calls)
     v_of_rho     :      0.24s CPU      0.26s WALL (       1 calls)
     newd         :      0.16s CPU      0.20s WALL (       1 calls)

     Called by c_bands:
     init_us_2    :      0.01s CPU      0.09s WALL (      26 calls)
     cegterg      :   2777.82s CPU   2813.78s WALL (      69 calls)

     Called by sum_band:

     Called by *egterg:
     h_psi        :    270.88s CPU    276.95s WALL (    1339 calls)
     s_psi        :     20.00s CPU     20.14s WALL (    1339 calls)
     g_psi        :      2.25s CPU      2.28s WALL (    1244 calls)
     cdiaghg      :   2011.54s CPU   2023.33s WALL (    1270 calls)

     Called by h_psi:
     h_psi:pot    :    268.65s CPU    273.32s WALL (    1339 calls)
     h_psi:calbec :     21.09s CPU     21.76s WALL (    1339 calls)
     vloc_psi     :    227.89s CPU    231.75s WALL (    1339 calls)
     add_vuspsi   :     19.66s CPU     19.80s WALL (    1339 calls)

     General routines
     calbec       :     21.08s CPU     21.75s WALL (    1339 calls)
     fft          :      0.21s CPU      0.23s WALL (      14 calls)
     ffts         :      0.00s CPU      0.00s WALL (       1 calls)
     fftw         :    204.94s CPU    208.43s WALL (  376544 calls)
     interpolate  :      0.01s CPU      0.02s WALL (       1 calls)
     davcio       :      0.00s CPU      0.71s WALL (      52 calls)

     Parallel routines
     fft_scatt_xy :     34.73s CPU     35.30s WALL (  376559 calls)
     fft_scatt_yz :     57.69s CPU     58.80s WALL (  376559 calls)

     PWSCF        : 47m 5.85s CPU    48m59.29s WALL


   This run was terminated on:   1:35:51  20Apr2021            

=------------------------------------------------------------------------------=
   JOB DONE.
=------------------------------------------------------------------------------=
