
     Program PWSCF v.6.3 starts on 20Apr2021 at  1:58:13 

     This program is part of the open-source Quantum ESPRESSO suite
     for quantum simulation of materials; please cite
         "P. Giannozzi et al., J. Phys.:Condens. Matter 21 395502 (2009);
         "P. Giannozzi et al., J. Phys.:Condens. Matter 29 465901 (2017);
          URL http://www.quantum-espresso.org", 
     in publications or presentations arising from this work. More details at
     http://www.quantum-espresso.org/quote

     Parallel version (MPI), running on    16 processors
     R & G space division:  proc/nbgrp/npool/nimage =      16
     Waiting for input...
     Reading input from standard input
     Message from routine read_cards :
     DEPRECATED: no units specified in CELL_PARAMETERS card

     Current dimensions of program PWSCF are:
     Max number of different atomic species (ntypx) = 10
     Max number of k-points (npk) =  40000
     Max angular momentum in pseudopotentials (lmaxx) =  3

     Atomic positions and unit cell read from directory:
     /home/zfwang/scratch/GNRDATASET/AGNR/F12/F12.save/


     Subspace diagonalization in iterative solution of the eigenvalue problem:
     a serial algorithm will be used


     Parallelization info
     --------------------
     sticks:   dense  smooth     PW     G-vecs:    dense   smooth      PW
     Min        2181     727    205                81726    15727    2356
     Max        2183     728    207                81727    15728    2357
     Sum       34923   11643   3287              1307631   251643   37711



     bravais-lattice index     =            0
     lattice parameter (alat)  =       1.8897  a.u.
     unit-cell volume          =    7365.2133 (a.u.)^3
     number of atoms/cell      =           28
     number of atomic types    =            2
     number of electrons       =       124.00
     number of Kohn-Sham states=          500
     kinetic-energy cutoff     =      40.0000  Ry
     charge density cutoff     =     480.0000  Ry
     Exchange-correlation      = PBE ( 1  4  3  4 0 0)

     celldm(1)=  18.897261  celldm(2)=   2.562000  celldm(3)=   0.426000
     celldm(4)=   0.000000  celldm(5)=   0.000000  celldm(6)=   0.000000

     crystal axes: (cart. coord. in units of alat)
               a(1) = (  10.000000   0.000000   0.000000 )  
               a(2) = (   0.000000  25.620000   0.000000 )  
               a(3) = (   0.000000   0.000000   4.260000 )  

     reciprocal axes: (cart. coord. in units 2 pi/alat)
               b(1) = (  0.100000  0.000000  0.000000 )  
               b(2) = (  0.000000  0.039032  0.000000 )  
               b(3) = (  0.000000  0.000000  0.234742 )  


     PseudoPot. # 1 for C  read from file:
     /home/zfwang/hp_home/MySoftware/qe-6.3/pseudo/C.pbe-n-rrkjus_psl.0.1.UPF
     MD5 check sum: fff530ed632a789b3b184014e67dd7f1
     Pseudo is Ultrasoft + core correction, Zval =  4.0
     Generated using "atomic" code by A. Dal Corso v.5.0.2 svn rev. 9415
     Using radial grid of 1073 points,  4 beta functions with: 
                l(1) =   0
                l(2) =   0
                l(3) =   1
                l(4) =   1
     Q(r) pseudized with 0 coefficients 


     PseudoPot. # 2 for F  read from file:
     /home/zfwang/hp_home/MySoftware/qe-6.3/pseudo/F.pbe-n-rrkjus_psl.0.1.UPF
     MD5 check sum: 147397eca92fbb10e5415488e6f13084
     Pseudo is Ultrasoft + core correction, Zval =  7.0
     Generated using "atomic" code by A. Dal Corso v.5.0.2 svn rev. 9415
     Using radial grid of 1105 points,  4 beta functions with: 
                l(1) =   0
                l(2) =   0
                l(3) =   1
                l(4) =   1
     Q(r) pseudized with 0 coefficients 


     atomic species   valence    mass     pseudopotential
        C              4.00    12.01070     C ( 1.00)
        F              7.00    18.99840     F ( 1.00)

     No symmetry found



   Cartesian axes

     site n.     atom                  positions (alat units)
         1           C   tau(   1) = (   5.0000027   6.0950139   2.8060265  )
         2           C   tau(   2) = (   5.0000027   7.2683406   3.5527641  )
         3           C   tau(   3) = (   5.0000000   6.0950134   1.4539763  )
         4           C   tau(   4) = (   5.0000023   8.4966348   2.8381985  )
         5           C   tau(   5) = (   5.0000012   9.7327412   3.5511849  )
         6           C   tau(   6) = (   5.0000011   7.2683419   0.7072379  )
         7           C   tau(   7) = (   5.0000017   8.4966347   1.4218021  )
         8           C   tau(   8) = (   5.0000006  10.9618979   2.8427566  )
         9           C   tau(   9) = (   5.0000010  12.1921574   3.5504863  )
        10           C   tau(  10) = (   5.0000011   9.7327410   0.7088140  )
        11           C   tau(  11) = (   5.0000008  10.9618990   1.4172412  )
        12           C   tau(  12) = (   5.0000006  13.4276098   2.8394969  )
        13           C   tau(  13) = (   4.9999991  14.6579479   3.5472535  )
        14           C   tau(  14) = (   5.0000013  12.1921571   0.7095112  )
        15           C   tau(  15) = (   5.0000008  13.4276102   1.4205011  )
        16           C   tau(  16) = (   4.9999983  15.8871723   2.8387962  )
        17           C   tau(  17) = (   4.9999997  17.1233887   3.5519059  )
        18           C   tau(  18) = (   4.9999992  14.6579483   0.7127455  )
        19           C   tau(  19) = (   4.9999986  15.8871722   1.4212038  )
        20           C   tau(  20) = (   5.0000012  18.3517749   2.8371680  )
        21           C   tau(  21) = (   5.0000029  19.5250955   3.5842677  )
        22           C   tau(  22) = (   4.9999995  17.1233891   0.7080950  )
        23           C   tau(  23) = (   4.9999972  18.3517751   1.4228334  )
        24           C   tau(  24) = (   4.9999910  19.5250961   0.6757336  )
        25           F   tau(  25) = (   5.0000042   4.8319704   3.2310526  )
        26           F   tau(  26) = (   4.9999963   4.8319716   1.0289492  )
        27           F   tau(  27) = (   5.0000187  20.7882591   3.1589110  )
        28           F   tau(  28) = (   4.9999772  20.7882602   1.1010886  )

     number of k points=    26  Marzari-Vanderbilt smearing, width (Ry)=  0.0100
                       cart. coord. in units 2pi/alat
        k(    1) = (   0.0000000   0.0000000   0.0000000), wk =   0.0400000
        k(    2) = (   0.0000000   0.0000000   0.0046948), wk =   0.0800000
        k(    3) = (   0.0000000   0.0000000   0.0093897), wk =   0.0800000
        k(    4) = (   0.0000000   0.0000000   0.0140845), wk =   0.0800000
        k(    5) = (   0.0000000   0.0000000   0.0187793), wk =   0.0800000
        k(    6) = (   0.0000000   0.0000000   0.0234742), wk =   0.0800000
        k(    7) = (   0.0000000   0.0000000   0.0281690), wk =   0.0800000
        k(    8) = (   0.0000000   0.0000000   0.0328638), wk =   0.0800000
        k(    9) = (   0.0000000   0.0000000   0.0375587), wk =   0.0800000
        k(   10) = (   0.0000000   0.0000000   0.0422535), wk =   0.0800000
        k(   11) = (   0.0000000   0.0000000   0.0469484), wk =   0.0800000
        k(   12) = (   0.0000000   0.0000000   0.0516432), wk =   0.0800000
        k(   13) = (   0.0000000   0.0000000   0.0563380), wk =   0.0800000
        k(   14) = (   0.0000000   0.0000000   0.0610329), wk =   0.0800000
        k(   15) = (   0.0000000   0.0000000   0.0657277), wk =   0.0800000
        k(   16) = (   0.0000000   0.0000000   0.0704225), wk =   0.0800000
        k(   17) = (   0.0000000   0.0000000   0.0751174), wk =   0.0800000
        k(   18) = (   0.0000000   0.0000000   0.0798122), wk =   0.0800000
        k(   19) = (   0.0000000   0.0000000   0.0845070), wk =   0.0800000
        k(   20) = (   0.0000000   0.0000000   0.0892019), wk =   0.0800000
        k(   21) = (   0.0000000   0.0000000   0.0938967), wk =   0.0800000
        k(   22) = (   0.0000000   0.0000000   0.0985915), wk =   0.0800000
        k(   23) = (   0.0000000   0.0000000   0.1032864), wk =   0.0800000
        k(   24) = (   0.0000000   0.0000000   0.1079812), wk =   0.0800000
        k(   25) = (   0.0000000   0.0000000   0.1126761), wk =   0.0800000
        k(   26) = (   0.0000000   0.0000000  -0.1173709), wk =   0.0400000

     Dense  grid:  1307631 G-vectors     FFT dimensions: ( 135, 360,  60)

     Smooth grid:   251643 G-vectors     FFT dimensions: (  80, 200,  36)

     Estimated max dynamical RAM per process >     413.47 MB

     Estimated total dynamical RAM >       6.46 GB

     Check: negative/imaginary core charge=   -0.000005    0.000000

     The potential is recalculated from file :
     /home/zfwang/scratch/GNRDATASET/AGNR/F12/F12.save/charge-density.dat


     negative rho (up, down):  1.861E-03 0.000E+00
     Starting wfcs are  112 randomized atomic wfcs +  388 random wfcs

     Band Structure Calculation
     Davidson diagonalization with overlap
     c_bands:  1 eigenvalues not converged
     c_bands:  1 eigenvalues not converged
     c_bands:  3 eigenvalues not converged
     c_bands:  1 eigenvalues not converged
     c_bands:  1 eigenvalues not converged

     ethr =  8.06E-09,  avg # of iterations = 68.2

     total cpu time spent up to now is     3403.1 secs

     End of band structure calculation

          k = 0.0000 0.0000 0.0000 ( 31407 PWs)   bands (ev):

   -29.6748 -29.6705 -28.0941 -28.0894 -21.5036 -21.2813 -20.7583 -19.9931
   -18.9904 -17.8474 -16.7225 -16.2662 -16.1124 -15.9730 -15.6740 -15.5286
   -15.2178 -15.0250 -14.8247 -14.7839 -14.1447 -13.1496 -12.8797 -12.8178
   -12.3498 -12.2477 -12.1396 -11.3857 -11.2861 -11.1611 -10.4850 -10.3982
   -10.3941 -10.1854 -10.1695  -9.4550  -9.4427  -9.2021  -8.9950  -8.9599
    -8.3330  -8.2477  -8.1152  -8.1003  -8.0965  -7.5135  -7.3620  -6.7562
    -6.7539  -6.2930  -6.0089  -5.7130  -5.4880  -5.3625  -5.3288  -5.0918
    -4.2379  -3.8813  -3.8339  -3.2257  -2.6488  -2.3190  -1.6490  -1.1117
    -1.0194  -0.6204  -0.3706   0.2829   1.0891   1.2744   1.5774   1.8591
     2.0573   2.3996   2.7468   2.8484   2.9773   3.1151   3.2906   3.4393
     3.5160   3.5562   3.8128   3.8553   3.9638   4.1966   4.2525   4.6757
     4.7745   4.9491   4.9635   5.0795   5.2443   5.2962   5.6024   5.9153
     5.9687   6.1556   6.2232   6.4397   6.4559   6.4694   6.6227   6.8270
     6.8841   7.0566   7.2013   7.2859   7.3841   7.4797   7.8142   8.0483
     8.0929   8.1489   8.2078   8.2595   8.4030   8.5261   8.6318   8.7125
     8.7139   8.7381   8.8851   9.0901   9.1033   9.1090   9.1144   9.1224
     9.1442   9.1789   9.2180   9.2538   9.2903   9.4213   9.4710   9.4975
     9.5481   9.5920   9.5982   9.8720   9.9600   9.9612  10.0121  10.1276
    10.1394  10.1431  10.2300  10.2664  10.4341  10.4765  10.5101  10.5176
    10.5356  10.5988  10.6995  10.7801  10.7924  10.8623  10.9950  11.0113
    11.0328  11.0332  11.0727  11.1661  11.1760  11.2873  11.3445  11.3972
    11.4421  11.4497  11.4930  11.5565  11.6192  11.6255  11.6285  11.7660
    11.8515  11.8695  11.8726  11.9211  11.9394  11.9409  12.0315  12.0494
    12.1421  12.2495  12.2560  12.3993  12.4509  12.4919  12.5041  12.6007
    12.6378  12.6998  13.0460  13.1044  13.1093  13.1617  13.1673  13.1840
    13.2037  13.3073  13.3234  13.4980  13.5518  13.6276  13.6443  13.6660
    13.6867  13.7491  13.7823  14.1110  14.2318  14.3788  14.3820  14.4247
    14.4377  14.5282  14.5991  14.6047  14.6828  14.7496  14.9405  14.9483
    15.0278  15.1413  15.3297  15.3657  15.4015  15.4362  15.5289  15.5343
    15.5562  15.6157  15.6812  15.7808  15.8243  15.9188  15.9634  16.0297
    16.0799  16.1068  16.2300  16.3239  16.3367  16.3926  16.4074  16.4779
    16.5181  16.5516  16.5545  16.5861  16.6604  16.6798  16.7421  16.7988
    16.9178  16.9867  17.0279  17.0302  17.1366  17.2448  17.2543  17.2650
    17.2771  17.2899  17.3113  17.4777  17.4968  17.5675  17.5918  17.6062
    17.6245  17.6415  17.6918  17.7102  17.7413  17.8517  17.8851  17.8949
    17.8990  17.9030  18.0294  18.0384  18.0959  18.2254  18.2310  18.2957
    18.4514  18.4743  18.4943  18.5596  18.7148  18.7436  18.9435  18.9741
    19.0359  19.0392  19.1095  19.3005  19.3361  19.3945  19.4660  19.4670
    19.6511  19.6533  19.6690  19.6919  19.7000  19.8263  19.9177  19.9233
    19.9425  19.9652  20.0602  20.2509  20.3411  20.4137  20.4852  20.5222
    20.5823  20.6232  20.6300  20.6368  20.6515  20.8493  20.8617  20.9308
    20.9555  20.9581  21.0373  21.0612  21.1626  21.2708  21.2758  21.3563
    21.3839  21.3980  21.5227  21.5344  21.5649  21.5886  21.6326  21.6391
    21.7074  21.7351  21.7886  21.8072  21.8646  21.8993  22.0122  22.0860
    22.1691  22.1855  22.2002  22.3693  22.3845  22.3976  22.4244  22.4354
    22.5167  22.5550  22.7179  22.7390  22.7955  22.8206  22.8263  22.8746
    22.8781  22.9230  22.9845  23.2316  23.3624  23.3675  23.4919  23.5898
    23.6037  23.6351  23.7302  23.7448  23.7944  23.7985  23.8092  23.8662
    23.9061  24.0171  24.0652  24.0732  24.1368  24.1478  24.1564  24.1982
    24.2894  24.4141  24.4462  24.4934  24.5190  24.5758  24.5949  24.6981
    24.8603  25.0444  25.0541  25.0764  25.1461  25.1892  25.2467  25.4174
    25.4539  25.5194  25.5472  25.6589  25.6794  25.7136  25.8109  25.8313
    25.8822  25.8934  25.9710  26.0576  26.0994  26.1914  26.2207  26.2795
    26.4038  26.4474  26.4557  26.4844  26.4986  26.5201  26.5949  26.6004
    26.6558  26.6795  26.7492  26.7593  26.8807  26.8870  26.9082  27.0261
    27.2374  27.2580  27.3168  27.3420  27.3758  27.4857  27.5255  27.5267
    27.5306  27.6036  27.6249  27.7280  27.8318  27.8412  27.8857  27.9524
    27.9829  28.1742  28.1825  28.2247  28.3805  28.4761  28.5233  28.6641
    28.6663  28.7731  28.8116  28.8228  28.8235  28.8258  28.8450  28.8605
    28.9720  28.9808  28.9871  29.1243  29.2494  29.2548  29.2632  29.3737
    29.3852  29.5160  29.5547  29.5892  29.6015  29.8480  29.8831  30.0166
    30.0313  30.0762  30.1689  30.1767  30.2639  30.2778  30.3275  30.4106
    30.4642  30.5876  30.6212  30.6809

          k = 0.0000 0.0000 0.0047 ( 31423 PWs)   bands (ev):

   -29.6736 -29.6693 -28.0959 -28.0912 -21.5012 -21.2790 -20.7560 -19.9908
   -18.9882 -17.8454 -16.7236 -16.3194 -16.1579 -15.9729 -15.6906 -15.4998
   -15.1803 -15.0722 -14.7924 -14.7210 -14.1557 -13.1741 -12.8707 -12.7982
   -12.3433 -12.2386 -12.1460 -11.3885 -11.2829 -11.1515 -10.4954 -10.3964
   -10.3923 -10.1772 -10.1628  -9.4637  -9.4400  -9.1953  -8.9912  -8.9574
    -8.3260  -8.2453  -8.1262  -8.1026  -8.0988  -7.5078  -7.3596  -6.7980
    -6.7225  -6.2908  -6.0170  -5.7174  -5.4903  -5.3631  -5.3359  -5.0902
    -4.2540  -3.8995  -3.8331  -3.2468  -2.6581  -2.3642  -1.6033  -1.1041
    -0.9959  -0.6000  -0.3510   0.2802   1.0923   1.2775   1.5805   1.8537
     2.0603   2.4029   2.7501   2.8509   2.9805   3.1176   3.2937   3.4424
     3.5192   3.5495   3.8159   3.8585   3.9671   4.1991   4.2555   4.6784
     4.7775   4.9526   4.9655   5.0824   5.2465   5.2906   5.6055   5.9022
     5.9813   6.1390   6.2312   6.4433   6.4596   6.4811   6.6152   6.8299
     6.8768   7.0597   7.2042   7.2796   7.3710   7.4788   7.8054   8.0519
     8.0968   8.1526   8.1998   8.2571   8.4069   8.5288   8.6349   8.6912
     8.7171   8.7413   8.8227   8.8929   9.0361   9.0920   9.1176   9.1181
     9.1359   9.1821   9.2470   9.2854   9.2992   9.4254   9.4678   9.5623
     9.5868   9.6003   9.7214   9.7264   9.9192   9.9292  10.0691  10.0814
    10.1254  10.1852  10.2290  10.2363  10.2895  10.3057  10.4810  10.5681
    10.6682  10.6883  10.7732  10.8441  10.8442  10.8934  10.9404  10.9589
    11.0656  11.0678  11.1068  11.1268  11.1741  11.2668  11.2746  11.3795
    11.4326  11.4521  11.4690  11.4953  11.5857  11.6209  11.6439  11.6947
    11.7373  11.7517  11.8576  11.9528  11.9935  12.0455  12.0496  12.0768
    12.1695  12.2754  12.2946  12.3633  12.4342  12.5001  12.6053  12.6317
    12.7309  12.8270  12.9531  12.9776  13.0150  13.1033  13.1352  13.2040
    13.2538  13.4133  13.4353  13.4572  13.4990  13.5911  13.6601  13.7218
    13.7851  13.8048  13.9127  14.1143  14.2080  14.3133  14.3773  14.4318
    14.4413  14.4860  14.6070  14.6105  14.6734  14.7709  14.8735  14.9770
    15.0176  15.0877  15.2710  15.3858  15.4301  15.4458  15.5039  15.5078
    15.6235  15.6593  15.6768  15.8680  15.8834  15.9170  15.9804  16.0719
    16.0844  16.0923  16.1179  16.2601  16.3631  16.3861  16.4544  16.4610
    16.4709  16.4736  16.5155  16.5635  16.6456  16.7174  16.8423  16.8618
    16.9154  16.9346  17.0070  17.0294  17.1277  17.1497  17.2104  17.2707
    17.2802  17.2986  17.3349  17.4373  17.4761  17.5225  17.5829  17.6085
    17.6346  17.6664  17.7058  17.7359  17.7739  17.7979  17.8150  17.8717
    17.8907  18.0135  18.0325  18.1874  18.2324  18.2440  18.2451  18.3075
    18.4211  18.4915  18.5787  18.6327  18.6653  18.7728  18.8999  18.9530
    18.9768  19.0078  19.1391  19.2642  19.2765  19.4196  19.4267  19.5233
    19.6289  19.6399  19.6602  19.6834  19.7988  19.8271  19.8875  19.9385
    19.9629  19.9869  20.1112  20.3309  20.3803  20.4055  20.4154  20.4978
    20.5476  20.6004  20.6212  20.6459  20.6937  20.7691  20.8630  20.9475
    20.9536  21.0568  21.1049  21.1405  21.1489  21.2431  21.2828  21.3538
    21.3974  21.4045  21.4942  21.5362  21.5421  21.5985  21.6199  21.6561
    21.7201  21.7460  21.7792  21.7835  21.8128  21.9119  21.9546  22.1359
    22.1711  22.2179  22.2594  22.3420  22.4026  22.4171  22.4238  22.4577
    22.4590  22.5554  22.6008  22.7407  22.7764  22.8004  22.8285  22.8841
    22.9817  23.0156  23.0766  23.2406  23.3614  23.3650  23.4392  23.4685
    23.5057  23.6413  23.7475  23.7514  23.7844  23.7893  23.8321  23.8536
    24.0032  24.0290  24.0353  24.0633  24.1094  24.1158  24.1164  24.1758
    24.2650  24.2875  24.4306  24.5589  24.6148  24.6969  24.7035  24.7576
    24.7660  25.0455  25.0741  25.1391  25.1436  25.2026  25.2231  25.4321
    25.4679  25.4994  25.5560  25.6100  25.6986  25.7488  25.7677  25.7899
    25.8643  25.8751  25.8885  26.0482  26.1642  26.1743  26.1995  26.2269
    26.3521  26.4175  26.4581  26.4671  26.5734  26.5797  26.5868  26.5951
    26.6991  26.7189  26.7665  26.8355  26.8724  26.9061  26.9478  27.0194
    27.2160  27.2705  27.2925  27.3068  27.4083  27.4683  27.4884  27.5327
    27.5528  27.5606  27.6108  27.6819  27.8147  27.8451  27.9172  27.9810
    28.0266  28.1101  28.1415  28.3943  28.4583  28.5276  28.5672  28.6300
    28.6700  28.6953  28.7164  28.7666  28.7751  28.8000  28.8092  28.8311
    28.9530  28.9604  28.9854  29.0814  29.2623  29.3543  29.3771  29.3845
    29.4106  29.4567  29.4993  29.5501  29.6095  29.8277  29.8588  29.9177
    30.0132  30.1570  30.1894  30.2306  30.3385  30.3775  30.3985  30.4549
    30.5099  30.6014  30.6147  30.7042

          k = 0.0000 0.0000 0.0094 ( 31383 PWs)   bands (ev):

   -29.6698 -29.6655 -28.1013 -28.0966 -21.4941 -21.2720 -20.7491 -19.9840
   -18.9817 -17.8395 -16.7283 -16.4437 -16.2663 -16.0131 -15.7116 -15.4656
   -15.1220 -15.0831 -14.7049 -14.5984 -14.1861 -13.2369 -12.8459 -12.7483
   -12.3280 -12.2128 -12.1591 -11.4009 -11.2691 -11.1240 -10.5237 -10.3908
   -10.3868 -10.1549 -10.1430  -9.4885  -9.4318  -9.1752  -8.9801  -8.9498
    -8.3055  -8.2381  -8.1575  -8.1092  -8.1054  -7.4924  -7.3527  -6.8501
    -6.7012  -6.2844  -6.0408  -5.7308  -5.4967  -5.3655  -5.3571  -5.0852
    -4.3011  -3.9512  -3.8319  -3.3073  -2.6854  -2.4751  -1.4911  -1.0814
    -0.9283  -0.5404  -0.2932   0.2724   1.1019   1.2868   1.5897   1.8378
     2.0694   2.4128   2.7597   2.8584   2.9901   3.1251   3.3031   3.4517
     3.5289   3.5299   3.8253   3.8681   3.9768   4.2066   4.2646   4.6867
     4.7863   4.9630   4.9712   5.0911   5.2530   5.2742   5.6146   5.8764
     6.0055   6.0992   6.2502   6.4540   6.4707   6.5111   6.5935   6.8388
     6.8551   7.0691   7.2129   7.2431   7.3535   7.4765   7.7762   8.0627
     8.1083   8.1624   8.1771   8.2494   8.4185   8.4681   8.6316   8.6443
     8.6555   8.7306   8.7368   8.7508   8.8326   9.0961   9.1112   9.1160
     9.1227   9.1918   9.2270   9.2812   9.2820   9.3843   9.4295   9.5652
     9.6014   9.7371   9.7517   9.7958   9.8114   9.8702   9.9274  10.0026
    10.0561  10.1128  10.1279  10.1835  10.4238  10.4869  10.4912  10.4938
    10.6429  10.7017  10.7846  10.8526  10.8797  10.8922  10.9998  11.0877
    11.0996  11.1104  11.1331  11.1515  11.1681  11.2168  11.2369  11.2473
    11.3349  11.4029  11.4306  11.4739  11.5094  11.5169  11.6240  11.6501
    11.6851  11.7713  11.7930  11.8156  12.0068  12.0139  12.0996  12.1602
    12.1783  12.2963  12.3794  12.5221  12.5803  12.6387  12.6533  12.6884
    12.7330  12.7614  12.8555  13.0301  13.0358  13.0693  13.0892  13.3074
    13.3313  13.3384  13.3615  13.6027  13.6258  13.6663  13.6678  13.8026
    13.8353  13.9648  14.1210  14.1363  14.1545  14.2723  14.3729  14.3776
    14.4011  14.4634  14.4763  14.6778  14.7224  14.7600  14.8060  14.9788
    15.0034  15.0162  15.1734  15.3710  15.3868  15.4861  15.5719  15.6322
    15.6841  15.7223  15.7647  15.7919  15.8764  15.9331  16.0013  16.0441
    16.0844  16.0873  16.1602  16.2588  16.2993  16.3326  16.4048  16.4274
    16.4626  16.4967  16.4985  16.5251  16.7228  16.7381  16.7641  16.8449
    16.8556  16.9173  16.9274  17.0158  17.1192  17.1294  17.1830  17.2584
    17.2706  17.3214  17.3312  17.3948  17.4138  17.4437  17.4895  17.6151
    17.6224  17.7161  17.7612  17.7749  17.7874  17.8306  17.8493  17.8926
    17.9123  18.1382  18.1686  18.2176  18.2846  18.2985  18.3712  18.4587
    18.4744  18.5981  18.6754  18.6947  18.7120  18.7822  18.7987  18.8499
    18.9513  19.0625  19.1189  19.1927  19.1990  19.2791  19.4986  19.5061
    19.5537  19.6994  19.7227  19.7327  19.7980  19.8658  19.9116  19.9753
    20.1020  20.1042  20.1209  20.2174  20.2943  20.3592  20.4893  20.5269
    20.6146  20.6247  20.6433  20.6669  20.7503  20.7776  20.8683  20.9397
    20.9644  21.0506  21.0676  21.1729  21.1799  21.3134  21.3493  21.3895
    21.4144  21.4455  21.4883  21.5111  21.5387  21.5581  21.6515  21.6664
    21.7425  21.7620  21.7647  21.7766  21.7888  21.8945  21.9239  22.0904
    22.1817  22.2112  22.2809  22.3833  22.3888  22.4133  22.4285  22.4851
    22.5000  22.5277  22.5612  22.8004  22.8132  22.8474  22.8490  22.9110
    22.9668  23.0721  23.1626  23.2078  23.2613  23.3292  23.3688  23.4275
    23.5469  23.6611  23.7255  23.7402  23.7508  23.7516  23.8383  23.8443
    23.8750  23.8993  24.0482  24.0657  24.0670  24.0708  24.0824  24.2178
    24.3095  24.3394  24.4140  24.5648  24.7369  24.7675  24.8085  24.8156
    24.9115  25.0635  25.0689  25.0696  25.2306  25.2390  25.3821  25.3833
    25.4441  25.4950  25.5383  25.5806  25.6370  25.6881  25.7350  25.7358
    25.8217  25.8650  25.8748  25.9615  26.0136  26.2074  26.2431  26.2808
    26.3190  26.3836  26.4314  26.4339  26.5752  26.5829  26.6044  26.7297
    26.7575  26.7674  26.8385  26.8921  26.9484  26.9902  27.0271  27.0583
    27.0852  27.2366  27.2737  27.2890  27.3152  27.4266  27.4793  27.4964
    27.5392  27.5891  27.6518  27.7195  27.8016  27.8595  27.9086  28.0287
    28.0577  28.0863  28.3624  28.4237  28.4352  28.4790  28.5215  28.5872
    28.5924  28.5968  28.7629  28.7656  28.7672  28.7720  28.8036  28.8244
    28.8862  28.9083  28.9500  28.9514  29.2737  29.2911  29.3581  29.3710
    29.3878  29.4819  29.5530  29.6467  29.7254  29.7498  29.7865  29.8510
    30.1809  30.1859  30.2187  30.2497  30.4471  30.4993  30.5276  30.5614
    30.6050  30.6148  30.6532  30.6837

          k = 0.0000 0.0000 0.0141 ( 31375 PWs)   bands (ev):

   -29.6636 -29.6593 -28.1102 -28.1055 -21.4824 -21.2603 -20.7376 -19.9727
   -18.9707 -17.8298 -16.7432 -16.5992 -16.3947 -16.1137 -15.7171 -15.5126
   -15.0809 -14.9498 -14.5824 -14.4590 -14.2272 -13.3223 -12.8112 -12.6800
   -12.3201 -12.1740 -12.1585 -11.4277 -11.2396 -11.0810 -10.5651 -10.3817
   -10.3777 -10.1233 -10.1117  -9.5261  -9.4183  -9.1429  -8.9632  -8.9372
    -8.2734  -8.2260  -8.2050  -8.1202  -8.1164  -7.4713  -7.3411  -6.9104
    -6.6921  -6.2736  -6.0791  -5.7529  -5.5088  -5.3910  -5.3704  -5.0770
    -4.3767  -4.0322  -3.8314  -3.4011  -2.7293  -2.6173  -1.3467  -1.0444
    -0.8237  -0.4451  -0.1999   0.2598   1.1179   1.3024   1.6051   1.8115
     2.0846   2.4292   2.7757   2.8708   3.0061   3.1375   3.3185   3.4672
     3.4977   3.5450   3.8410   3.8841   3.9929   4.2190   4.2797   4.7004
     4.8009   4.9790   4.9802   5.1056   5.2490   5.2636   5.6299   5.8461
     6.0332   6.0479   6.2771   6.4717   6.4890   6.5509   6.5597   6.8192
     6.8541   7.0843   7.1613   7.2269   7.3573   7.4726   7.7213   8.0803
     8.1274   8.1349   8.1834   8.2255   8.2327   8.4377   8.5118   8.5709
     8.6362   8.6419   8.6597   8.7518   8.7652   9.0701   9.0944   9.1050
     9.1174   9.1896   9.1988   9.2072   9.2802   9.3005   9.4381   9.4976
     9.5566   9.6208   9.6479   9.6651   9.6923   9.8451   9.8564  10.0213
    10.1197  10.1392  10.1962  10.3238  10.3856  10.3954  10.4948  10.5038
    10.6478  10.7338  10.7835  10.7982  10.8440  10.8913  10.9103  11.0455
    11.0824  11.0893  11.1050  11.1361  11.1516  11.2333  11.2653  11.3280
    11.3823  11.3856  11.4178  11.4314  11.4859  11.5129  11.5883  11.6052
    11.6356  11.6857  11.7384  11.7728  11.9519  12.0202  12.1671  12.1940
    12.2423  12.2549  12.4765  12.4880  12.5542  12.6224  12.6408  12.7368
    12.8008  12.9306  12.9631  13.0867  13.0922  13.1099  13.2126  13.3551
    13.4062  13.4529  13.5035  13.5696  13.6086  13.6951  13.8578  13.8703
    13.9185  14.0231  14.0825  14.1370  14.2960  14.3056  14.3523  14.3641
    14.3675  14.4366  14.4368  14.5856  14.7573  14.7730  14.8665  14.9914
    15.0188  15.0250  15.0389  15.3606  15.4783  15.4990  15.5456  15.6546
    15.7432  15.7586  15.7598  15.7773  15.8905  15.9213  15.9609  16.0058
    16.0739  16.1058  16.1130  16.1990  16.3169  16.3439  16.3585  16.4693
    16.4986  16.4990  16.5242  16.6117  16.6505  16.6840  16.7081  16.7689
    16.8456  16.8750  16.9058  16.9114  17.0059  17.1231  17.2244  17.2396
    17.2678  17.2867  17.2867  17.3222  17.3844  17.3885  17.5951  17.6257
    17.7205  17.7361  17.7476  17.8169  17.8185  17.8960  17.9079  17.9871
    17.9984  18.0805  18.2259  18.2956  18.3148  18.3935  18.5068  18.5597
    18.5693  18.6067  18.7006  18.7575  18.7636  18.9306  18.9342  18.9382
    18.9435  18.9591  19.0938  19.1062  19.2139  19.2477  19.4502  19.4716
    19.6063  19.6877  19.7568  19.7745  19.8202  19.9303  19.9760  20.0270
    20.0617  20.1095  20.1560  20.2859  20.2989  20.3860  20.5201  20.5769
    20.5805  20.5988  20.6916  20.7348  20.8321  20.8796  20.9134  20.9668
    20.9857  21.0025  21.0591  21.0904  21.1781  21.3075  21.3511  21.4147
    21.4366  21.4675  21.5501  21.5676  21.5865  21.6027  21.6178  21.6821
    21.7296  21.7768  21.8287  21.8600  21.8638  21.8862  21.9301  21.9624
    22.0466  22.2266  22.3327  22.3946  22.4052  22.4096  22.4479  22.5253
    22.5531  22.5945  22.6032  22.7608  22.8716  22.8870  22.9104  22.9364
    22.9495  22.9982  23.0786  23.1319  23.1367  23.3092  23.3888  23.4676
    23.6014  23.6051  23.6887  23.6939  23.7084  23.7822  23.8294  23.8316
    23.8670  23.8929  23.9394  24.0318  24.0445  24.0925  24.1240  24.2332
    24.2844  24.2986  24.5950  24.6252  24.6993  24.8427  24.8622  24.8807
    24.9873  25.0246  25.0764  25.1867  25.2778  25.3366  25.3587  25.3912
    25.4632  25.4658  25.4911  25.4941  25.6027  25.6163  25.6435  25.7306
    25.8728  25.8763  25.8893  25.9583  26.0542  26.1952  26.2216  26.2549
    26.2618  26.2878  26.3883  26.4963  26.5989  26.6332  26.6762  26.7936
    26.7946  26.8261  26.8637  26.8860  26.9947  27.0112  27.0696  27.0781
    27.0883  27.1749  27.2188  27.2330  27.2350  27.4976  27.5323  27.5542
    27.6171  27.6330  27.6915  27.7425  27.7908  27.8884  27.9713  28.0342
    28.1170  28.2028  28.2047  28.2670  28.3326  28.3900  28.4476  28.5074
    28.5143  28.6766  28.7057  28.7373  28.7687  28.7993  28.8397  28.8458
    28.8775  28.9113  28.9473  28.9918  29.1129  29.2081  29.2790  29.3571
    29.4035  29.4943  29.5641  29.6598  29.7938  29.8410  29.9158  29.9856
    30.1570  30.2286  30.2548  30.3445  30.4733  30.4753  30.5283  30.6764
    30.6769  30.7120  30.7287  30.7384

          k = 0.0000 0.0000 0.0188 ( 31377 PWs)   bands (ev):

   -29.6550 -29.6507 -28.1226 -28.1180 -21.4659 -21.2441 -20.7215 -19.9570
   -18.9555 -17.8164 -16.7869 -16.7688 -16.5069 -16.2492 -15.7210 -15.6238
   -14.9754 -14.8002 -14.4506 -14.3108 -14.2571 -13.4206 -12.7762 -12.5986
   -12.3345 -12.1263 -12.1215 -11.4677 -11.1947 -11.0258 -10.6153 -10.3690
   -10.3651 -10.0858 -10.0714  -9.5718  -9.3994  -9.1002  -8.9416  -8.9195
    -8.2644  -8.2325  -8.2093  -8.1354  -8.1316  -7.4492  -7.3248  -6.9777
    -6.6957  -6.2586  -6.1305  -5.7836  -5.5305  -5.4336  -5.3789  -5.0657
    -4.4767  -4.1379  -3.8315  -3.5203  -2.7875  -2.7730  -1.1878  -0.9952
    -0.6898  -0.3190  -0.0752   0.2429   1.1402   1.3241   1.6267   1.7754
     2.1058   2.4521   2.7981   2.8880   3.0284   3.1547   3.3393   3.4544
     3.4890   3.5675   3.8629   3.9065   4.0155   4.2362   4.3006   4.7195
     4.8214   4.9853   5.0042   5.1257   5.2191   5.2781   5.6511   5.8128
     5.9917   6.0631   6.3111   6.4961   6.5145   6.5176   6.5952   6.7698
     6.8760   7.0492   7.1090   7.2447   7.3743   7.4612   7.6423   7.9477
     8.0805   8.1044   8.1535   8.1690   8.2085   8.3307   8.3922   8.4641
     8.5625   8.5834   8.6809   8.7778   8.7820   9.0132   9.0246   9.0534
     9.0600   9.1691   9.1852   9.2235   9.2300   9.3065   9.3177   9.3502
     9.3642   9.4446   9.6215   9.6217   9.6493   9.7251   9.7470  10.1269
    10.1581  10.1790  10.1990  10.2718  10.2985  10.4308  10.5060  10.5506
    10.5545  10.6913  10.7297  10.7611  10.7746  10.8912  10.9392  10.9773
    11.0357  11.0394  11.0500  11.1221  11.1786  11.2232  11.2522  11.2892
    11.3407  11.4264  11.4670  11.4738  11.5195  11.5517  11.5568  11.5830
    11.5952  11.6791  11.7505  11.8830  11.9595  12.0348  12.1529  12.1686
    12.2284  12.2436  12.3461  12.3517  12.5505  12.5563  12.6402  12.9558
    12.9963  13.1016  13.1237  13.1359  13.1436  13.2506  13.3018  13.5014
    13.5168  13.5390  13.5721  13.6195  13.6719  13.7561  13.8181  13.8912
    14.0275  14.1208  14.1364  14.1653  14.2325  14.2655  14.3043  14.3117
    14.3121  14.3640  14.6083  14.7610  14.7836  14.8168  14.9578  14.9689
    14.9901  15.0454  15.0674  15.3993  15.4413  15.5048  15.5205  15.6046
    15.6528  15.6914  15.7694  15.8507  15.9084  15.9414  15.9868  16.0114
    16.0303  16.1060  16.1070  16.2152  16.2564  16.2579  16.3332  16.4128
    16.4130  16.5016  16.5290  16.6076  16.6836  16.6904  16.7475  16.7693
    16.7846  16.8680  16.9138  16.9466  16.9795  17.0724  17.1407  17.1713
    17.2325  17.2400  17.2845  17.3458  17.4216  17.4578  17.6413  17.6971
    17.7055  17.7512  17.7638  17.9117  17.9121  17.9178  17.9508  18.0048
    18.0310  18.1473  18.2314  18.2544  18.3272  18.4594  18.5703  18.5835
    18.6272  18.6477  18.7416  18.8455  18.9385  18.9521  18.9532  18.9773
    19.0573  19.0796  19.1680  19.2344  19.2907  19.3362  19.4268  19.4425
    19.5911  19.6646  19.7535  19.8132  19.8485  19.8879  19.9429  20.1259
    20.1443  20.1485  20.1896  20.4098  20.4351  20.4358  20.5325  20.5427
    20.5506  20.5766  20.6562  20.6893  20.8878  20.9062  20.9236  20.9845
    21.0347  21.0435  21.1180  21.1734  21.2610  21.3189  21.3359  21.3726
    21.4153  21.5060  21.5793  21.5869  21.6011  21.6082  21.6398  21.6667
    21.7062  21.7766  21.8898  21.8982  21.9033  21.9602  22.0018  22.0058
    22.1232  22.2529  22.3524  22.3810  22.4117  22.4308  22.5014  22.5020
    22.5903  22.6717  22.6723  22.6942  22.7250  22.8465  22.8632  22.8957
    22.9468  22.9639  23.0047  23.2094  23.2322  23.2825  23.3478  23.3933
    23.4746  23.6150  23.6384  23.6578  23.7109  23.7797  23.8179  23.8235
    23.9185  23.9498  23.9968  24.0017  24.1028  24.1451  24.1780  24.2438
    24.2973  24.3134  24.5141  24.6343  24.7852  24.8000  24.8680  24.9929
    25.0108  25.0536  25.0883  25.1288  25.2098  25.2293  25.3526  25.3712
    25.4162  25.4246  25.4807  25.5160  25.6409  25.7141  25.7695  25.7719
    25.9199  25.9220  25.9649  26.0244  26.0909  26.1459  26.1771  26.2100
    26.2902  26.2925  26.2958  26.5646  26.6127  26.6389  26.6469  26.7246
    26.7743  26.8364  26.8847  26.9099  26.9334  27.0104  27.0499  27.0763
    27.1215  27.2009  27.2487  27.3569  27.3948  27.5045  27.5684  27.6384
    27.6542  27.6903  27.7650  27.7675  27.8286  27.8440  27.9491  28.0087
    28.0837  28.1150  28.2157  28.2651  28.2683  28.3355  28.3487  28.4752
    28.4933  28.5584  28.5590  28.6570  28.7146  28.8047  28.8506  28.9006
    28.9193  28.9315  28.9520  29.0082  29.1456  29.2539  29.2840  29.3812
    29.4618  29.4708  29.5364  29.6436  29.8199  29.8786  30.0016  30.1452
    30.2562  30.3002  30.3673  30.3971  30.4675  30.4724  30.5188  30.6388
    30.6591  30.7429  30.7638  30.7661

          k = 0.0000 0.0000 0.0235 ( 31413 PWs)   bands (ev):

   -29.6439 -29.6396 -28.1385 -28.1338 -21.4447 -21.2231 -20.7008 -19.9367
   -18.9359 -17.7995 -16.9445 -16.8844 -16.5704 -16.4005 -15.7567 -15.7327
   -14.8535 -14.6602 -14.3731 -14.1991 -14.1558 -13.5256 -12.7552 -12.5064
   -12.3530 -12.0734 -12.0536 -11.5172 -11.1376 -10.9613 -10.6711 -10.3527
   -10.3489 -10.0444 -10.0266  -9.6197  -9.3751  -9.0494  -8.9161  -8.8968
    -8.3314  -8.1882  -8.1858  -8.1546  -8.1508  -7.4299  -7.3040  -7.0512
    -6.7124  -6.2393  -6.1933  -5.8225  -5.5713  -5.4751  -5.3921  -5.0514
    -4.5967  -4.2634  -3.8324  -3.6578  -2.9346  -2.8577  -1.0223  -0.9359
    -0.5337  -0.1676   0.0766   0.2231   1.1690   1.3520   1.6543   1.7303
     2.1329   2.4817   2.8270   2.9099   3.0572   3.1766   3.3590   3.4071
     3.5170   3.5964   3.8910   3.9352   4.0446   4.2581   4.3275   4.7439
     4.8475   4.9814   5.0347   5.1515   5.1938   5.2960   5.6780   5.7767
     5.9347   6.0950   6.3494   6.4727   6.5264   6.5470   6.6408   6.7082
     6.9040   6.9313   7.1362   7.2598   7.3969   7.4227   7.5612   7.6718
     7.9783   8.0114   8.1348   8.1856   8.1952   8.2403   8.2610   8.4377
     8.4979   8.5154   8.7071   8.7971   8.8001   8.9243   8.9407   8.9452
     8.9774   9.0878   9.1131   9.1278   9.1942   9.1959   9.1992   9.2742
     9.3406   9.4137   9.5577   9.5726   9.5882   9.7031   9.7369   9.9081
    10.0055  10.0910  10.1835  10.2632  10.2734  10.4406  10.4495  10.4923
    10.5505  10.5743  10.6812  10.7640  10.8512  10.8866  10.8917  10.9386
    10.9698  11.0080  11.0290  11.1258  11.2278  11.2368  11.2422  11.3011
    11.3297  11.3960  11.4906  11.5024  11.5146  11.5411  11.5977  11.6062
    11.6195  11.7184  11.8652  11.9208  11.9625  11.9678  12.0780  12.0966
    12.1924  12.2786  12.2962  12.4164  12.4462  12.6245  12.7496  12.9721
    13.1081  13.1676  13.1970  13.2512  13.2692  13.3556  13.4328  13.4442
    13.6021  13.6765  13.6773  13.7889  13.8085  13.8219  13.8880  13.9294
    14.0027  14.1230  14.1404  14.1502  14.2200  14.2708  14.3357  14.3375
    14.3927  14.4307  14.5875  14.6911  14.8443  14.9193  15.0505  15.0519
    15.0702  15.1012  15.1603  15.3677  15.4318  15.4390  15.4762  15.5141
    15.7039  15.7246  15.7607  15.7818  15.8023  15.9891  16.0112  16.0151
    16.0523  16.0572  16.1468  16.2138  16.2546  16.2692  16.3061  16.3267
    16.3597  16.4347  16.4475  16.4869  16.5979  16.6482  16.7812  16.8117
    16.8227  16.9515  16.9552  16.9599  17.0417  17.0788  17.1277  17.1395
    17.1468  17.2526  17.4469  17.4488  17.4849  17.5731  17.6312  17.6616
    17.6956  17.7868  17.7899  17.8136  17.8226  17.8718  17.9445  18.0908
    18.0984  18.2667  18.2722  18.3499  18.3743  18.4834  18.4927  18.5667
    18.6582  18.6880  18.7693  18.9487  18.9582  19.0206  19.1345  19.1619
    19.1666  19.1774  19.3136  19.3493  19.3792  19.4284  19.4701  19.4717
    19.6074  19.7014  19.8366  19.8514  19.8942  19.9277  19.9420  20.1207
    20.1997  20.2576  20.2635  20.3923  20.4128  20.4744  20.5006  20.5772
    20.5828  20.6240  20.6411  20.6463  20.9022  20.9066  20.9720  20.9877
    21.0696  21.0897  21.1375  21.2411  21.3192  21.3470  21.3549  21.4413
    21.4576  21.5106  21.5571  21.5874  21.6224  21.6274  21.6910  21.7085
    21.7243  21.7555  21.9132  21.9175  21.9240  21.9984  22.0641  22.1373
    22.2885  22.3144  22.3708  22.4043  22.4186  22.4452  22.4658  22.4965
    22.5929  22.5960  22.5976  22.7090  22.7825  22.8287  22.8391  22.8484
    22.8777  22.9974  23.0326  23.0405  23.2024  23.3498  23.3768  23.4113
    23.5045  23.5433  23.6084  23.6614  23.7074  23.7810  23.8472  23.8483
    23.9065  23.9402  23.9634  23.9880  24.1086  24.1672  24.2811  24.3807
    24.4068  24.4097  24.5461  24.6099  24.6162  24.8168  24.8394  24.8468
    24.9085  24.9481  25.0995  25.1501  25.2300  25.2685  25.2792  25.3055
    25.3640  25.4819  25.5372  25.6294  25.6452  25.7845  25.9080  25.9220
    25.9630  25.9656  25.9929  26.1138  26.1178  26.1278  26.1787  26.2382
    26.2418  26.3047  26.4521  26.4822  26.5413  26.6070  26.6086  26.6550
    26.7501  26.7668  26.9117  26.9183  26.9191  27.1306  27.1336  27.1416
    27.1596  27.3174  27.3377  27.4222  27.5085  27.5170  27.5672  27.5862
    27.6221  27.6319  27.6702  27.7441  27.7662  27.8318  27.9814  28.0593
    28.1201  28.1424  28.2303  28.2764  28.3099  28.3341  28.3546  28.3927
    28.4445  28.4572  28.5983  28.6118  28.6838  28.6950  28.7208  28.8749
    28.9277  28.9447  28.9710  29.1098  29.2064  29.3549  29.3802  29.3929
    29.4488  29.5816  29.5896  29.5931  29.8485  29.9214  29.9819  30.1948
    30.2955  30.3647  30.4050  30.4616  30.4674  30.5245  30.5337  30.5787
    30.6086  30.7043  30.7218  30.7358

          k = 0.0000 0.0000 0.0282 ( 31392 PWs)   bands (ev):

   -29.6304 -29.6261 -28.1576 -28.1529 -21.4188 -21.1976 -20.6756 -19.9119
   -18.9120 -17.7797 -17.1222 -17.0253 -16.5933 -16.5589 -15.8953 -15.7554
   -14.7333 -14.5843 -14.3111 -14.0435 -13.9970 -13.6296 -12.7650 -12.4059
   -12.3471 -12.0182 -11.9680 -11.5710 -11.0708 -10.8927 -10.7274 -10.3330
   -10.3293  -9.9998  -9.9860  -9.6601  -9.3453  -8.9937  -8.8870  -8.8690
    -8.4020  -8.1803  -8.1758  -8.1581  -8.1359  -7.4163  -7.2785  -7.1297
    -6.7419  -6.2660  -6.2159  -5.8689  -5.6390  -5.5073  -5.4104  -5.0347
    -4.7323  -4.4041  -3.8345  -3.8079  -3.0979  -2.9377  -0.8685  -0.8540
    -0.3610   0.0027   0.2029   0.2513   1.2042   1.3861   1.6771   1.6880
     2.1659   2.5177   2.8622   2.9365   3.0924   3.2030   3.3220   3.4127
     3.5513   3.6318   3.9252   3.9704   4.0801   4.2845   4.3600   4.7733
     4.8792   4.9548   5.0717   5.1826   5.1864   5.3165   5.7102   5.7380
     5.8799   6.1290   6.3861   6.4305   6.5574   6.5864   6.6401   6.6829
     6.8201   6.9371   7.1701   7.2311   7.3707   7.3758   7.4493   7.4846
     7.7823   7.9284   7.9890   8.1711   8.2151   8.2209   8.2407   8.2779
     8.4773   8.5386   8.7119   8.7337   8.7556   8.7741   8.8014   8.8538
     8.8648   8.9243   8.9258   9.0657   9.1499   9.2273   9.2282   9.3037
     9.3451   9.3682   9.4650   9.5202   9.5688   9.6025   9.6819   9.7916
     9.8560   9.9410  10.0141  10.2152  10.2444  10.2679  10.2945  10.4831
    10.5956  10.6034  10.6618  10.7173  10.7351  10.7359  10.7770  10.9105
    10.9750  11.0871  11.0932  11.1551  11.2282  11.2355  11.3145  11.3672
    11.3882  11.4617  11.5208  11.5284  11.5650  11.5799  11.6021  11.6293
    11.6412  11.6886  11.7673  11.8141  11.9408  12.0075  12.0300  12.1093
    12.1849  12.2974  12.3496  12.4764  12.5925  12.6643  12.9152  12.9581
    12.9841  13.0564  13.2137  13.2452  13.3729  13.5284  13.5664  13.6297
    13.6420  13.6823  13.7291  13.8279  13.8470  13.9383  14.0688  14.0913
    14.1223  14.1467  14.1897  14.1929  14.2082  14.2487  14.3435  14.4601
    14.4700  14.5646  14.6032  14.6590  14.7424  14.8278  15.0776  15.1067
    15.1698  15.3179  15.3347  15.3569  15.3752  15.3912  15.4877  15.5111
    15.6352  15.6428  15.7797  15.8289  15.8366  15.8697  16.0222  16.0368
    16.1098  16.1166  16.1496  16.1791  16.1791  16.2292  16.2338  16.3251
    16.3303  16.4237  16.4517  16.4673  16.5804  16.6367  16.7278  16.7479
    16.8459  16.8809  16.9295  17.0256  17.0618  17.0962  17.1613  17.1684
    17.3561  17.4137  17.4501  17.4762  17.5904  17.6309  17.6406  17.6760
    17.6821  17.7081  17.7364  17.7674  17.8603  17.9300  17.9677  18.0781
    18.1184  18.2860  18.3041  18.3659  18.3728  18.4527  18.6130  18.6507
    18.7414  18.7461  18.8479  18.9706  19.0734  19.0866  19.0939  19.1560
    19.2906  19.3279  19.3912  19.4115  19.4973  19.6037  19.6046  19.6710
    19.7405  19.8480  19.8658  19.8932  19.9105  20.0336  20.1072  20.1546
    20.2256  20.2289  20.3010  20.3225  20.3568  20.4363  20.5248  20.5778
    20.6379  20.7005  20.7105  20.7135  20.8878  20.9115  20.9585  21.0606
    21.0748  21.1382  21.1508  21.2710  21.2892  21.3195  21.4082  21.4805
    21.4862  21.5662  21.6084  21.6354  21.6566  21.7271  21.7388  21.7410
    21.7771  21.8046  21.8725  21.9222  22.0173  22.0323  22.1004  22.1198
    22.2687  22.3281  22.3661  22.3697  22.3916  22.4444  22.4906  22.5663
    22.5853  22.6056  22.6334  22.7282  22.7512  22.7901  22.8280  22.9002
    23.0334  23.0417  23.0507  23.0851  23.1649  23.2466  23.2947  23.3773
    23.4951  23.5637  23.6512  23.6785  23.7603  23.8288  23.8357  23.8390
    23.8906  23.9597  23.9665  24.0257  24.1177  24.2233  24.3212  24.3640
    24.3693  24.4551  24.5587  24.5801  24.6714  24.7039  24.7758  24.8395
    24.8942  24.9559  25.0418  25.0816  25.1349  25.1738  25.2163  25.4375
    25.4637  25.5886  25.6443  25.6526  25.7484  25.8191  25.8382  25.9550
    25.9610  26.0040  26.0347  26.0743  26.1788  26.2040  26.2333  26.2806
    26.3181  26.3501  26.4267  26.4337  26.5582  26.6016  26.6443  26.7575
    26.7728  26.8085  26.8735  26.9888  26.9898  27.1705  27.2054  27.2056
    27.2401  27.2963  27.3634  27.3761  27.3898  27.4094  27.5096  27.5421
    27.5857  27.6502  27.7163  27.7409  27.7590  27.8491  27.9562  28.1300
    28.1610  28.1932  28.2306  28.2691  28.2780  28.3093  28.3651  28.4733
    28.4831  28.4850  28.5563  28.6872  28.7038  28.7061  28.7232  28.8693
    28.9040  28.9362  28.9613  29.1929  29.1982  29.2630  29.3524  29.5443
    29.5468  29.6286  29.6842  29.6950  29.8298  29.9256  30.0277  30.0716
    30.1418  30.2333  30.3267  30.3557  30.4013  30.5194  30.5208  30.5222
    30.5880  30.7155  30.7207  30.8120

          k = 0.0000 0.0000 0.0329 ( 31366 PWs)   bands (ev):

   -29.6145 -29.6102 -28.1798 -28.1751 -21.3883 -21.1674 -20.6458 -19.8827
   -18.8839 -17.7582 -17.2987 -17.1843 -16.7200 -16.6015 -16.0322 -15.7905
   -14.6219 -14.5884 -14.1816 -13.8648 -13.8600 -13.6990 -12.8107 -12.3048
   -12.3010 -11.9646 -11.8721 -11.6219 -10.9966 -10.8520 -10.7523 -10.3098
   -10.3063  -9.9669  -9.9525  -9.6753  -9.3102  -8.9383  -8.8545  -8.8363
    -8.4714  -8.2065  -8.2025  -8.1284  -8.0857  -7.4106  -7.2485  -7.2123
    -6.7838  -6.3474  -6.1883  -5.9223  -5.7294  -5.5339  -5.4344  -5.0177
    -4.8778  -4.5558  -3.9662  -3.8389  -3.2604  -3.0255  -0.7949  -0.6857
    -0.1764   0.1478   0.2241   0.4451   1.2457   1.4264   1.6168   1.7278
     2.2046   2.5603   2.9038   2.9673   3.1339   3.2339   3.2491   3.4510
     3.5918   3.6736   3.9653   4.0119   4.1220   4.3152   4.3982   4.8076
     4.9011   4.9161   5.1150   5.2023   5.2187   5.3386   5.6973   5.7454
     5.8314   6.1646   6.3960   6.4077   6.5292   6.6262   6.6325   6.6752
     6.7749   6.9692   7.1139   7.1357   7.2098   7.3288   7.3886   7.4530
     7.6791   7.7887   7.8322   8.0301   8.1297   8.2135   8.2516   8.3188
     8.4427   8.4432   8.5470   8.5874   8.6582   8.6695   8.7134   8.7498
     8.7863   8.8235   8.9069   9.0348   9.0592   9.2638   9.2706   9.2963
     9.3432   9.3647   9.3781   9.4260   9.4623   9.4812   9.6104   9.7459
     9.7818   9.7841   9.8132  10.0179  10.1032  10.2530  10.3334  10.4730
    10.4961  10.5222  10.5388  10.5699  10.6386  10.6465  10.8299  10.8816
    10.8974  10.9760  11.1962  11.2370  11.2412  11.3801  11.3943  11.3950
    11.4652  11.5044  11.5159  11.5209  11.5576  11.6017  11.6068  11.6744
    11.6857  11.6891  11.7598  11.7626  11.8891  12.0034  12.1225  12.1395
    12.2143  12.3644  12.3936  12.4521  12.6425  12.7724  12.8285  12.8898
    12.9771  13.1418  13.2522  13.3065  13.3201  13.3761  13.6497  13.7203
    13.7876  13.8236  13.8559  13.8646  13.8790  14.0561  14.0906  14.0977
    14.2142  14.2177  14.2278  14.3092  14.3597  14.3857  14.3991  14.4691
    14.5248  14.5868  14.6615  14.7359  14.7613  14.8910  15.0469  15.1390
    15.1656  15.2486  15.2965  15.3002  15.3008  15.5391  15.5504  15.6636
    15.7169  15.7343  15.7363  15.8567  15.8602  15.8648  15.9164  16.0028
    16.0331  16.1090  16.1325  16.1593  16.2068  16.2480  16.2543  16.3761
    16.3914  16.4197  16.4653  16.5557  16.5615  16.6155  16.6460  16.7755
    16.8324  16.8440  16.9547  17.0378  17.0635  17.1491  17.2866  17.2935
    17.2948  17.3086  17.4636  17.4750  17.4969  17.6098  17.6995  17.7298
    17.7560  17.7566  17.7668  17.8504  17.9465  18.0561  18.0883  18.0954
    18.1413  18.1819  18.2719  18.3612  18.4341  18.5802  18.6385  18.6651
    18.7616  18.8536  18.9273  18.9398  19.1057  19.1552  19.2237  19.2320
    19.2700  19.4168  19.5715  19.6024  19.6030  19.7128  19.7538  19.7997
    19.8385  19.8562  19.8779  19.9484  20.0880  20.1631  20.2147  20.2468
    20.2852  20.2909  20.2913  20.3204  20.4336  20.4349  20.5278  20.5917
    20.6710  20.6938  20.7907  20.8447  20.8608  20.9172  21.0112  21.0746
    21.0862  21.1591  21.2288  21.2335  21.2675  21.3857  21.4820  21.4950
    21.5238  21.5857  21.6352  21.6450  21.6812  21.7262  21.7696  21.7856
    21.8325  21.8388  21.9353  21.9359  21.9362  22.0371  22.1125  22.1735
    22.2764  22.2892  22.3079  22.3175  22.4098  22.4112  22.5304  22.5794
    22.6361  22.6511  22.6670  22.7150  22.7628  22.7823  22.9890  23.0414
    23.0710  23.0959  23.1324  23.2176  23.2275  23.2317  23.3050  23.3307
    23.4770  23.5137  23.5347  23.5471  23.7865  23.8371  23.9041  23.9220
    23.9358  23.9465  24.0784  24.1153  24.1465  24.1984  24.2645  24.2914
    24.3418  24.3659  24.5157  24.5803  24.5911  24.7318  24.7341  24.8861
    24.8943  24.9335  25.0032  25.0679  25.2264  25.2631  25.2678  25.4125
    25.4623  25.6520  25.6763  25.7310  25.7966  25.8360  25.8397  25.9726
    25.9908  26.0180  26.0294  26.0657  26.1294  26.1526  26.1603  26.3154
    26.3459  26.4163  26.5289  26.5822  26.6373  26.7252  26.7719  26.8547
    26.8660  26.8802  26.8988  27.0149  27.0725  27.0797  27.0949  27.1373
    27.2275  27.2827  27.3265  27.3305  27.3315  27.4866  27.4901  27.5352
    27.5933  27.6350  27.7583  27.8037  27.8266  27.8876  27.9303  28.0910
    28.1063  28.1603  28.2200  28.2250  28.2945  28.3044  28.4151  28.4747
    28.5834  28.6117  28.6419  28.7475  28.8158  28.8258  28.8297  28.8920
    28.8929  28.9525  28.9983  29.0060  29.2286  29.4031  29.4174  29.4327
    29.5580  29.6513  29.6889  29.7057  29.7700  29.8410  29.9379  29.9400
    29.9498  30.0230  30.0965  30.3699  30.4451  30.4634  30.4869  30.5158
    30.5570  30.5632  30.5865  30.8018

          k = 0.0000 0.0000 0.0376 ( 31420 PWs)   bands (ev):

   -29.5964 -29.5921 -28.2050 -28.2004 -21.3530 -21.1326 -20.6115 -19.8490
   -18.8516 -17.7393 -17.4690 -17.3495 -16.8809 -16.6114 -16.1596 -15.8392
   -14.6156 -14.5236 -14.0284 -13.8921 -13.6634 -13.5968 -12.8814 -12.2328
   -12.2009 -11.9177 -11.7705 -11.6560 -10.9168 -10.8961 -10.6888 -10.2835
   -10.2801  -9.9855  -9.9025  -9.6494  -9.2697  -8.8928  -8.8186  -8.7986
    -8.5308  -8.2374  -8.2334  -8.0924  -8.0378  -7.4145  -7.2981  -7.2139
    -6.8376  -6.4366  -6.1567  -5.9823  -5.8371  -5.5603  -5.4643  -5.0542
    -4.9767  -4.7155  -4.1293  -3.8478  -3.4189  -3.1193  -0.7163  -0.5201
     0.0167   0.1445   0.4088   0.6546   1.2936   1.4728   1.5506   1.7735
     2.2490   2.6095   2.9516   3.0023   3.1658   3.1818   3.2689   3.4980
     3.6387   3.7218   4.0112   4.0598   4.1702   4.3497   4.4417   4.8267
     4.8463   4.9580   5.1645   5.2362   5.2592   5.3603   5.6558   5.7622
     5.8127   6.1996   6.3741   6.3914   6.4372   6.6103   6.6716   6.6852
     6.7872   6.9160   6.9343   7.0474   7.1246   7.2515   7.4245   7.4270
     7.6387   7.6391   7.7233   7.8243   7.9981   8.1748   8.2453   8.2623
     8.2892   8.3737   8.4085   8.4981   8.5481   8.5839   8.6340   8.6417
     8.7682   8.8438   8.8871   8.9087   8.9892   9.0949   9.2204   9.3062
     9.3171   9.3373   9.3615   9.3811   9.4123   9.4651   9.5061   9.6216
     9.6443   9.6683   9.7921   9.8403   9.9915  10.2897  10.2905  10.2965
    10.3746  10.3904  10.4496  10.5567  10.5836  10.6348  10.6957  10.7316
    10.9440  11.1108  11.1541  11.2098  11.2538  11.3100  11.3113  11.4415
    11.4935  11.5136  11.5152  11.6011  11.6030  11.6253  11.6489  11.6513
    11.7189  11.7805  11.8886  11.8995  11.9158  12.0697  12.1703  12.1729
    12.2618  12.3864  12.3869  12.4921  12.5784  12.6019  12.6866  12.8577
    13.1583  13.2172  13.2443  13.2705  13.2917  13.5205  13.6547  13.7510
    13.7565  13.8911  13.9262  13.9669  14.0331  14.0583  14.1463  14.1565
    14.1598  14.2612  14.2735  14.3240  14.3891  14.3913  14.5371  14.6152
    14.6526  14.7757  14.7762  14.7905  14.8331  14.8868  15.0874  15.1640
    15.1691  15.2071  15.2270  15.2334  15.4029  15.5474  15.5822  15.5923
    15.7043  15.7068  15.8658  15.8946  15.8979  15.9086  15.9106  16.0699
    16.0771  16.1349  16.1979  16.1990  16.2125  16.2210  16.2728  16.3068
    16.4453  16.5170  16.5436  16.5770  16.6215  16.6370  16.6849  16.7854
    16.8271  16.8994  17.0019  17.0577  17.0916  17.1367  17.1856  17.2353
    17.2651  17.3267  17.4287  17.4558  17.5175  17.6629  17.7216  17.7745
    17.7796  17.7954  17.8041  17.9333  18.0346  18.0478  18.0876  18.2112
    18.2283  18.3733  18.3988  18.4780  18.5018  18.5909  18.6169  18.6973
    18.7506  18.7521  18.8494  19.1520  19.1792  19.2062  19.3298  19.3301
    19.4404  19.5313  19.6265  19.6396  19.6611  19.6790  19.8489  19.8598
    19.9280  19.9294  19.9985  20.0815  20.1059  20.2552  20.2916  20.3024
    20.3488  20.3530  20.4108  20.4538  20.5360  20.5671  20.5807  20.6780
    20.6858  20.7782  20.8414  20.8853  21.0013  21.0103  21.0249  21.0666
    21.0805  21.1167  21.2512  21.3062  21.3299  21.4286  21.4628  21.4643
    21.4744  21.5900  21.6314  21.6542  21.6793  21.6955  21.8137  21.8331
    21.8454  21.8709  21.9102  21.9528  21.9638  22.0518  22.0988  22.2173
    22.2346  22.2651  22.2734  22.3202  22.4075  22.4646  22.5175  22.5808
    22.6314  22.6574  22.7627  22.8597  22.8809  22.8816  22.9605  23.0983
    23.1138  23.1265  23.1733  23.1960  23.1974  23.3994  23.4239  23.4647
    23.5090  23.5112  23.5309  23.5707  23.7063  23.8342  23.8416  23.8993
    23.9764  23.9901  24.0006  24.1241  24.1301  24.2267  24.3041  24.3106
    24.3441  24.4216  24.4984  24.5460  24.6173  24.6300  24.7963  24.8012
    24.8605  24.8940  24.9639  25.0017  25.3487  25.3978  25.4488  25.5227
    25.5813  25.6269  25.6972  25.7044  25.7572  25.7838  25.8423  25.8817
    25.9550  25.9828  26.0753  26.1280  26.1335  26.1473  26.3320  26.3690
    26.3886  26.3891  26.6576  26.6807  26.6964  26.7674  26.7794  26.7877
    26.8560  26.9272  26.9915  27.0115  27.0241  27.1364  27.1438  27.2248
    27.2538  27.2686  27.3262  27.3844  27.3860  27.4599  27.4836  27.5772
    27.6243  27.7620  27.7673  27.7679  27.8666  27.9398  27.9711  27.9994
    28.0844  28.0879  28.1794  28.2553  28.2786  28.3740  28.4521  28.5491
    28.6437  28.6469  28.6722  28.6891  28.8791  28.9075  28.9444  28.9814
    28.9911  29.0117  29.0462  29.0515  29.1956  29.2313  29.2927  29.4055
    29.5055  29.5868  29.6097  29.6554  29.6879  29.7520  29.7584  29.8340
    29.8794  30.0000  30.0209  30.1656  30.2967  30.3369  30.4047  30.5181
    30.5282  30.5751  30.6525  30.6639

          k = 0.0000 0.0000 0.0423 ( 31432 PWs)   bands (ev):

   -29.5760 -29.5717 -28.2331 -28.2284 -21.3131 -21.0931 -20.5726 -19.8110
   -18.8153 -17.7499 -17.6064 -17.5161 -17.0392 -16.6389 -16.2645 -15.9015
   -14.6399 -14.4455 -13.9746 -13.8763 -13.4587 -13.4195 -12.9624 -12.1408
   -12.1289 -11.8738 -11.6661 -11.6541 -10.9653 -10.8327 -10.5961 -10.2540
   -10.2507 -10.0347  -9.8498  -9.5895  -9.2239  -8.8748  -8.7796  -8.7559
    -8.5637  -8.2717  -8.2676  -8.0514  -7.9945  -7.4286  -7.3858  -7.1747
    -6.9021  -6.5330  -6.1211  -6.0482  -5.9593  -5.5886  -5.4995  -5.2095
    -4.9616  -4.8804  -4.2943  -3.8667  -3.5673  -3.2178  -0.6337  -0.3618
     0.1306   0.2154   0.6216   0.8770   1.3478   1.4802   1.5253   1.8251
     2.2990   2.6651   3.0050   3.0410   3.0757   3.2360   3.3078   3.5517
     3.6919   3.7765   4.0622   4.1141   4.2249   4.3878   4.4904   4.7385
     4.8887   5.0040   5.2200   5.2825   5.3023   5.3785   5.6167   5.7365
     5.8504   6.2291   6.3303   6.3309   6.3699   6.4997   6.7082   6.7283
     6.7442   6.7511   6.9010   6.9191   7.0952   7.2654   7.3363   7.4740
     7.5512   7.5805   7.6024   7.6849   7.8681   7.9138   8.0495   8.1215
     8.3159   8.3208   8.3504   8.4155   8.4620   8.5061   8.5199   8.7007
     8.7246   8.7434   8.8493   8.8795   8.8913   8.8947   8.9885   9.2333
     9.2878   9.3454   9.3507   9.3755   9.3785   9.4457   9.4772   9.4868
     9.5147   9.6737   9.6975   9.8510   9.8582  10.0760  10.1352  10.2767
    10.3347  10.3436  10.4258  10.4352  10.4852  10.5554  10.6690  10.7539
    10.9354  10.9844  11.1600  11.1686  11.2273  11.2932  11.3649  11.3711
    11.5000  11.5106  11.5340  11.6003  11.6119  11.6460  11.6839  11.7001
    11.8170  11.8506  11.9924  12.0130  12.0984  12.1515  12.1997  12.2462
    12.3054  12.3361  12.4040  12.4251  12.5058  12.5300  12.5848  12.7784
    13.0892  13.1364  13.2751  13.3191  13.5357  13.6327  13.6535  13.6853
    13.8426  13.8568  13.9262  13.9799  13.9963  14.0639  14.0995  14.1821
    14.2946  14.3708  14.4223  14.4358  14.4406  14.4750  14.5294  14.6073
    14.6305  14.6502  14.8268  14.9268  15.0378  15.0915  15.1756  15.1864
    15.1867  15.2090  15.3227  15.3272  15.4075  15.4846  15.5152  15.6048
    15.6401  15.7182  15.8249  15.8701  15.9413  15.9523  16.0189  16.0871
    16.1713  16.1715  16.2025  16.2703  16.2946  16.3158  16.3368  16.4283
    16.4940  16.5798  16.5819  16.6456  16.6649  16.6701  16.7469  16.8397
    16.8705  16.8820  17.0100  17.0160  17.1081  17.1208  17.1935  17.2022
    17.2710  17.3326  17.4791  17.5449  17.5613  17.6224  17.7548  17.7827
    17.8008  17.8510  17.8785  17.8919  18.0483  18.1008  18.1889  18.2924
    18.3674  18.4470  18.4591  18.4979  18.6001  18.6346  18.7284  18.7391
    18.7883  18.8876  18.9640  19.1379  19.1612  19.2723  19.3331  19.3848
    19.5734  19.5898  19.5975  19.6689  19.7202  19.8547  19.8852  19.8877
    20.0274  20.0510  20.0686  20.1513  20.1527  20.2881  20.3592  20.3844
    20.3932  20.4079  20.4367  20.6128  20.6786  20.7295  20.7495  20.7542
    20.8407  20.9084  20.9512  20.9673  21.0068  21.0442  21.0596  21.1202
    21.1563  21.1700  21.2429  21.3263  21.3665  21.3832  21.4099  21.4696
    21.4967  21.5327  21.5591  21.6043  21.6073  21.7540  21.8535  21.8718
    21.8766  21.9076  21.9395  22.0125  22.0547  22.0682  22.1004  22.2171
    22.2270  22.2463  22.2682  22.3655  22.4607  22.4666  22.4956  22.5150
    22.6922  22.7282  22.8054  22.8074  22.8438  22.9615  23.0550  23.0681
    23.1571  23.2066  23.2338  23.2602  23.2642  23.3846  23.4685  23.5138
    23.5245  23.6137  23.6865  23.7102  23.7733  23.7764  23.8458  23.9267
    23.9532  24.0221  24.0338  24.0488  24.1780  24.2263  24.3392  24.3410
    24.3823  24.4200  24.4623  24.5051  24.5952  24.6852  24.7801  24.8291
    24.8513  24.8791  24.9721  25.0399  25.3804  25.4052  25.4505  25.4752
    25.5520  25.7012  25.7530  25.7713  25.8285  25.8330  25.8998  25.9302
    25.9695  26.0073  26.1094  26.1251  26.1561  26.1612  26.2754  26.2821
    26.4299  26.6134  26.6434  26.6469  26.7271  26.7392  26.7474  26.7971
    26.7984  26.9639  26.9897  27.0372  27.0811  27.1977  27.3173  27.3224
    27.3395  27.3435  27.3930  27.4307  27.4690  27.4912  27.5005  27.6433
    27.6479  27.7504  27.7937  27.8150  27.8724  27.9797  28.0759  28.0983
    28.1091  28.1170  28.1335  28.2031  28.2212  28.3992  28.4268  28.5004
    28.5506  28.6075  28.6122  28.6659  28.7395  28.8778  28.9647  28.9820
    28.9975  29.0776  29.1129  29.1132  29.1590  29.2250  29.2882  29.3950
    29.4739  29.5197  29.5629  29.5752  29.6178  29.6566  29.7871  29.8007
    29.8143  29.8997  29.9847  30.0392  30.0617  30.1104  30.3290  30.3760
    30.3807  30.4822  30.5407  30.6067

          k = 0.0000 0.0000 0.0469 ( 31464 PWs)   bands (ev):

   -29.5535 -29.5492 -28.2637 -28.2591 -21.2685 -21.0491 -20.5292 -19.7685
   -18.7751 -17.8657 -17.6819 -17.6374 -17.1913 -16.7015 -16.3307 -15.9769
   -14.6543 -14.4047 -14.0322 -13.7351 -13.2588 -13.2297 -13.0321 -12.1196
   -12.0356 -11.8036 -11.6117 -11.5610 -11.0397 -10.7456 -10.4937 -10.2216
   -10.2184 -10.0987  -9.7945  -9.5113  -9.1727  -8.9002  -8.7374  -8.7084
    -8.5553  -8.3092  -8.3049  -8.0056  -7.9584  -7.4740  -7.4530  -7.1310
    -6.9764  -6.6361  -6.1196  -6.0942  -6.0818  -5.6201  -5.5394  -5.3768
    -5.0484  -4.9389  -4.4583  -3.9120  -3.6891  -3.3198  -0.5480  -0.2223
     0.1337   0.4168   0.8443   1.1099   1.4077   1.4083   1.5838   1.8825
     2.3542   2.7271   2.9755   3.0686   3.0833   3.2966   3.3502   3.6119
     3.7514   3.8374   4.1174   4.1747   4.2859   4.4287   4.5439   4.6415
     4.9338   5.0528   5.2814   5.3382   5.3446   5.3885   5.5853   5.7162
     5.8999   6.2135   6.2299   6.2447   6.3239   6.3841   6.5709   6.6707
     6.7062   6.7921   6.8095   6.9207   7.1473   7.2007   7.3027   7.4360
     7.4510   7.4701   7.5336   7.6338   7.7201   7.7936   7.8058   7.9174
     8.1380   8.2393   8.3438   8.3658   8.3938   8.4332   8.5075   8.5827
     8.6530   8.6991   8.7482   8.7750   8.8000   8.8136   8.9477   9.0042
     9.1571   9.2497   9.2912   9.3314   9.4224   9.4270   9.4591   9.5016
     9.5560   9.5854   9.6556   9.7599   9.8870   9.9215  10.0117  10.1236
    10.2520  10.2845  10.3740  10.4057  10.4419  10.4873  10.6593  10.7641
    10.8111  10.9535  11.1009  11.1405  11.1727  11.3403  11.3647  11.4580
    11.4916  11.4963  11.5177  11.6048  11.6453  11.6537  11.7536  11.7769
    11.8245  11.8510  11.9095  12.1468  12.1893  12.2150  12.2405  12.2793
    12.3240  12.4009  12.4052  12.4450  12.4897  12.5035  12.5337  12.7120
    13.0104  13.0961  13.3075  13.3780  13.4741  13.5628  13.6359  13.6974
    13.8436  13.8984  13.9107  13.9310  14.0696  14.0850  14.1850  14.2208
    14.4023  14.4189  14.4768  14.4781  14.4836  14.5151  14.5464  14.5926
    14.7119  14.7193  14.7908  14.8923  15.1200  15.1361  15.1425  15.2547
    15.2633  15.3898  15.4131  15.4350  15.4805  15.5241  15.5421  15.5763
    15.6278  15.6937  15.7628  15.9771  16.0265  16.0574  16.0719  16.0809
    16.1944  16.1970  16.3075  16.3329  16.3756  16.3928  16.4476  16.5104
    16.5329  16.5531  16.6504  16.6794  16.6864  16.7538  16.8147  16.8816
    16.9247  16.9282  17.0045  17.0497  17.0903  17.1419  17.2041  17.2236
    17.3800  17.4417  17.4841  17.6298  17.6334  17.7228  17.7830  17.8131
    17.8402  17.9013  17.9279  17.9286  18.0736  18.1464  18.1882  18.3370
    18.3714  18.4574  18.4693  18.5680  18.6350  18.7225  18.7456  18.9709
    19.0101  19.0316  19.0991  19.1708  19.1962  19.2354  19.3075  19.4242
    19.5671  19.5732  19.7225  19.7437  19.7862  19.8124  19.8313  20.0305
    20.1171  20.1613  20.2009  20.2447  20.2894  20.2976  20.3686  20.4465
    20.4692  20.4805  20.5726  20.7085  20.7743  20.8041  20.8133  20.8501
    20.8835  20.9701  20.9740  21.0278  21.0332  21.1412  21.1675  21.1861
    21.1912  21.2772  21.2926  21.3582  21.3645  21.4109  21.4158  21.4775
    21.5110  21.5387  21.5580  21.5729  21.6686  21.8341  21.8837  21.9084
    21.9162  21.9816  21.9895  22.0139  22.0158  22.0935  22.1929  22.2542
    22.2705  22.3080  22.3129  22.4045  22.4205  22.4339  22.5546  22.5615
    22.6346  22.6507  22.6650  22.7851  22.8634  22.9572  23.0380  23.1088
    23.1740  23.1766  23.2089  23.3650  23.4483  23.5201  23.5356  23.5450
    23.5567  23.6418  23.8268  23.8300  23.8657  23.9097  23.9300  23.9360
    24.0303  24.0330  24.0632  24.0975  24.1238  24.2339  24.3283  24.3771
    24.4487  24.4545  24.5633  24.5703  24.6209  24.6294  24.6949  24.7450
    24.8355  24.9409  25.1263  25.2558  25.3130  25.3370  25.3391  25.4242
    25.4599  25.6664  25.7306  25.7981  25.8455  25.9040  25.9861  26.0354
    26.0678  26.0694  26.1729  26.1823  26.1916  26.2102  26.2547  26.3042
    26.3871  26.5954  26.6223  26.6527  26.7179  26.7471  26.7523  26.8042
    26.9348  27.0034  27.0595  27.0917  27.1291  27.2603  27.2655  27.3239
    27.3589  27.3609  27.4834  27.5416  27.5438  27.5901  27.6445  27.6680
    27.7116  27.8362  27.8421  27.9178  27.9349  27.9480  27.9950  28.0816
    28.0914  28.1017  28.1188  28.1963  28.2113  28.2796  28.3070  28.4370
    28.4745  28.5364  28.6027  28.6794  28.7073  28.7313  28.8624  28.9712
    28.9773  29.0747  29.1140  29.1300  29.1590  29.2139  29.2598  29.2665
    29.3103  29.3983  29.5237  29.5449  29.6121  29.7564  29.7878  29.8192
    29.8881  29.9619  29.9772  29.9915  30.0196  30.1242  30.1432  30.1525
    30.1747  30.2230  30.3141  30.3589

          k = 0.0000 0.0000 0.0516 ( 31468 PWs)   bands (ev):

   -29.5289 -29.5245 -28.2968 -28.2921 -21.2192 -21.0005 -20.4812 -19.7217
   -18.7315 -18.0262 -17.8455 -17.6320 -17.3268 -16.8016 -16.3564 -16.0638
   -14.6573 -14.4224 -14.0351 -13.6154 -13.1749 -13.0352 -12.9677 -12.1656
   -11.9220 -11.7013 -11.5428 -11.4570 -11.1142 -10.6581 -10.3847 -10.1864
   -10.1834 -10.1668  -9.7367  -9.4242  -9.1161  -8.9601  -8.6923  -8.6564
    -8.5158  -8.3495  -8.3447  -7.9549  -7.9330  -7.5601  -7.4873  -7.0828
    -7.0594  -6.7456  -6.2404  -6.1961  -6.0389  -5.6546  -5.5833  -5.5476
    -5.2177  -4.9201  -4.6153  -4.0076  -3.7602  -3.4241  -0.4599  -0.1277
     0.1815   0.6170   1.0742   1.3256   1.3627   1.4752   1.6482   1.9457
     2.4147   2.7956   2.8737   3.1287   3.1350   3.3634   3.3960   3.6786
     3.8172   3.9048   4.1733   4.2417   4.3531   4.4718   4.5413   4.6016
     4.9793   5.1020   5.3483   5.3785   5.3868   5.4019   5.5723   5.7135
     5.9496   6.0309   6.0885   6.2257   6.2365   6.3555   6.4554   6.5523
     6.6105   6.8603   6.8624   6.8806   7.1309   7.1771   7.2358   7.3047
     7.3270   7.4088   7.4674   7.5660   7.5956   7.6969   7.7499   7.7565
     7.9370   8.0922   8.1978   8.2660   8.2662   8.4257   8.4457   8.4647
     8.5685   8.5773   8.6432   8.7232   8.7665   8.7852   8.8535   8.9912
     9.0107   9.0860   9.2217   9.2308   9.3827   9.4034   9.4813   9.5147
     9.5502   9.5635   9.6393   9.7639   9.7957   9.9006   9.9476   9.9814
    10.1902  10.2112  10.2706  10.3361  10.4407  10.4811  10.5447  10.7797
    10.8029  10.8623  11.1278  11.1316  11.1457  11.3330  11.3941  11.4084
    11.4371  11.5418  11.5918  11.5967  11.6545  11.7019  11.7180  11.8077
    11.8436  11.8769  11.8783  11.9703  12.1278  12.2150  12.3270  12.3687
    12.3980  12.4464  12.4470  12.4606  12.4670  12.5032  12.6950  12.7908
    12.8838  13.1217  13.2982  13.3038  13.3965  13.4409  13.5846  13.6889
    13.7557  13.7871  13.8478  13.9697  14.1864  14.2202  14.2570  14.2610
    14.3205  14.4248  14.4423  14.4798  14.5198  14.5546  14.6982  14.7435
    14.7981  14.8185  14.8655  15.0301  15.0326  15.0935  15.0946  15.1195
    15.2663  15.3946  15.3952  15.4661  15.5477  15.6080  15.6193  15.7168
    15.7448  15.8009  15.9437  15.9998  16.0317  16.1141  16.1326  16.1591
    16.2505  16.3601  16.3735  16.4194  16.4422  16.4624  16.4697  16.4918
    16.5343  16.6069  16.6935  16.7054  16.7103  16.8600  16.8616  16.9072
    16.9763  16.9882  16.9906  17.0938  17.1649  17.2050  17.3612  17.3678
    17.4136  17.5398  17.5490  17.6899  17.7643  17.7714  17.8456  17.9193
    17.9232  17.9676  18.0215  18.0297  18.0775  18.1085  18.2869  18.2973
    18.4409  18.4822  18.5354  18.5941  18.6316  18.7410  18.9212  18.9313
    19.0010  19.0259  19.0718  19.3570  19.3918  19.4487  19.4984  19.5146
    19.5152  19.6046  19.6406  19.7719  19.8176  19.8638  19.9666  20.0768
    20.0863  20.1355  20.3321  20.3759  20.4283  20.4314  20.4957  20.5065
    20.5287  20.5793  20.6262  20.6660  20.7263  20.7545  20.8454  20.9325
    20.9434  20.9482  20.9656  21.0052  21.0669  21.1430  21.1504  21.1838
    21.2223  21.3440  21.4108  21.4152  21.4643  21.4873  21.5011  21.6019
    21.6636  21.6664  21.7118  21.7249  21.8013  21.8734  21.8828  21.9102
    21.9289  22.0188  22.0326  22.0582  22.1038  22.1605  22.2264  22.2641
    22.3170  22.3173  22.3478  22.3562  22.4176  22.5052  22.5305  22.5894
    22.6088  22.6192  22.6604  22.8039  22.8592  22.8663  22.9578  23.0251
    23.1483  23.1662  23.1870  23.3731  23.5367  23.6657  23.6782  23.6917
    23.7253  23.7592  23.7722  23.8803  23.9017  23.9568  23.9829  23.9986
    24.0896  24.1559  24.1562  24.1809  24.2198  24.2652  24.3568  24.4629
    24.5101  24.5285  24.5817  24.6302  24.6401  24.6648  24.7424  24.8540
    24.8668  24.9071  25.1486  25.1977  25.2276  25.2861  25.3669  25.5250
    25.5770  25.5780  25.7231  25.7622  25.7673  25.8390  25.8687  25.9908
    26.1122  26.1132  26.1893  26.2279  26.2667  26.3384  26.3654  26.4586
    26.6154  26.6263  26.6501  26.6619  26.6749  26.7483  26.8022  26.8406
    26.8961  27.1391  27.1460  27.1472  27.1535  27.2310  27.2392  27.2718
    27.3125  27.3538  27.4617  27.5341  27.5677  27.6701  27.6793  27.6856
    27.7071  27.7736  27.9068  27.9297  27.9438  27.9615  27.9732  27.9828
    28.0959  28.1278  28.1349  28.1907  28.2053  28.2197  28.4071  28.4249
    28.4537  28.5074  28.5958  28.6366  28.6769  28.7347  28.8192  28.8290
    28.8358  28.9525  28.9556  29.0761  29.0962  29.1253  29.1267  29.2713
    29.3421  29.3514  29.4527  29.5303  29.7075  29.7078  29.7214  29.7422
    29.8050  29.8491  29.9163  29.9171  29.9299  29.9852  30.0215  30.0372
    30.0397  30.0620  30.1203  30.1763

          k = 0.0000 0.0000 0.0563 ( 31464 PWs)   bands (ev):

   -29.5022 -29.4979 -28.3320 -28.3273 -21.1652 -20.9473 -20.4288 -19.6707
   -18.6849 -18.1910 -18.0055 -17.6611 -17.4145 -16.9243 -16.3574 -16.1600
   -14.6495 -14.4879 -13.9906 -13.5434 -13.1916 -12.8391 -12.7577 -12.2376
   -11.8056 -11.5865 -11.4577 -11.3601 -11.1798 -10.5776 -10.2710 -10.2274
   -10.1488 -10.1459  -9.6771  -9.3334  -9.0543  -9.0367  -8.6448  -8.6008
    -8.4642  -8.3922  -8.3856  -7.9242  -7.8993  -7.6387  -7.5303  -7.1502
    -7.0301  -6.8615  -6.3965  -6.2776  -5.9929  -5.7200  -5.6921  -5.6303
    -5.3869  -4.9291  -4.7416  -4.1403  -3.7936  -3.5297  -0.3699  -0.0931
     0.2900   0.8064   1.2738   1.3093   1.5483   1.6034   1.7185   2.0144
     2.4800   2.7675   2.8705   3.1767   3.2084   3.4366   3.4446   3.7516
     3.8895   3.9784   4.2163   4.3150   4.4264   4.4530   4.5159   4.6626
     5.0209   5.1461   5.3755   5.3964   5.4199   5.4729   5.5895   5.7266
     5.8064   5.9573   5.9905   6.0948   6.2063   6.2687   6.4277   6.4795
     6.5164   6.8297   6.9388   6.9407   6.9568   7.0432   7.1361   7.1735
     7.3144   7.3319   7.3703   7.4743   7.5341   7.6412   7.7030   7.7316
     7.8178   7.9571   8.0320   8.0508   8.1163   8.1918   8.3728   8.3852
     8.4613   8.5179   8.5352   8.6455   8.7824   8.7830   8.8028   8.9307
     8.9649   9.0792   9.1187   9.1279   9.2013   9.2146   9.5479   9.5654
     9.5664   9.5888   9.6312   9.7084   9.7263   9.8862   9.9130  10.0170
    10.1386  10.1505  10.1675  10.2096  10.2877  10.5456  10.6038  10.6530
    10.7841  10.9299  11.1286  11.1288  11.1437  11.2613  11.3289  11.3910
    11.4559  11.5200  11.5363  11.6034  11.7126  11.7150  11.7169  11.7487
    11.8503  11.8960  11.9062  11.9733  11.9892  12.1978  12.3413  12.3528
    12.4066  12.4271  12.4341  12.5378  12.5598  12.6309  12.7737  12.9194
    12.9359  13.1303  13.1347  13.1395  13.3394  13.4792  13.5378  13.6676
    13.6748  13.6794  13.6979  13.9277  14.1419  14.1959  14.2017  14.3253
    14.3627  14.4572  14.5396  14.5737  14.6045  14.6311  14.7529  14.7955
    14.8051  14.8734  14.9631  15.0445  15.0452  15.0774  15.1032  15.1938
    15.2452  15.3805  15.3997  15.4534  15.5284  15.6157  15.6445  15.7242
    15.9658  15.9770  15.9853  16.0633  16.0690  16.1479  16.2367  16.2725
    16.2790  16.3916  16.4428  16.4553  16.5011  16.5518  16.5786  16.5864
    16.6421  16.7071  16.7171  16.8153  16.8386  16.8641  16.8891  16.9371
    16.9588  17.0225  17.0412  17.2023  17.2470  17.3624  17.3829  17.4235
    17.5974  17.7003  17.7132  17.7480  17.7976  17.8491  17.8593  18.0198
    18.0647  18.0675  18.0886  18.1523  18.1579  18.1704  18.3883  18.4426
    18.5127  18.5180  18.5626  18.6138  18.7021  18.7478  18.8415  18.8727
    18.9524  18.9624  19.1712  19.4167  19.4834  19.4986  19.5528  19.5763
    19.6333  19.7179  19.8137  19.9418  19.9438  19.9683  20.0793  20.0985
    20.1358  20.1812  20.4028  20.4191  20.4510  20.4555  20.4787  20.5155
    20.5403  20.5547  20.5697  20.6400  20.7873  20.8478  20.8711  20.8797
    20.9057  20.9263  21.0199  21.0667  21.0808  21.1032  21.1140  21.1546
    21.2844  21.4857  21.5260  21.5278  21.5963  21.6270  21.6385  21.6871
    21.7451  21.8030  21.8179  21.9098  21.9430  21.9576  21.9582  21.9997
    22.0294  22.0308  22.0321  22.0749  22.1481  22.1597  22.2318  22.2801
    22.3376  22.3721  22.3811  22.4050  22.4313  22.5804  22.5934  22.6015
    22.6556  22.7030  22.7107  22.7492  22.7672  22.8130  22.8480  23.1111
    23.1124  23.1835  23.2110  23.3995  23.6231  23.6266  23.6394  23.7408
    23.7470  23.7670  23.7806  23.9156  23.9807  24.0779  24.0913  24.1174
    24.2395  24.2400  24.2670  24.3006  24.3695  24.3890  24.4221  24.5064
    24.5640  24.5655  24.6561  24.6627  24.7221  24.7253  24.8180  24.8604
    24.9409  25.0020  25.1007  25.2391  25.2918  25.3372  25.3444  25.5131
    25.5394  25.5803  25.5982  25.6060  25.8103  25.8191  25.9789  25.9973
    26.0875  26.1755  26.1767  26.2562  26.2953  26.3658  26.4764  26.5682
    26.6582  26.6708  26.7045  26.7251  26.7639  26.8190  26.8311  26.8631
    26.8690  27.0128  27.0997  27.1204  27.1551  27.1622  27.2235  27.2262
    27.2490  27.3106  27.4810  27.5296  27.5484  27.5629  27.6246  27.7344
    27.8163  27.8211  27.8703  27.9137  27.9469  27.9472  28.0148  28.0722
    28.0939  28.1097  28.1295  28.1701  28.1769  28.2369  28.2970  28.3413
    28.4658  28.4848  28.5482  28.5496  28.6202  28.7394  28.7617  28.8009
    28.8841  28.9396  28.9620  28.9717  29.0846  29.1322  29.1569  29.1954
    29.2076  29.2243  29.2845  29.3355  29.3855  29.4578  29.4728  29.4989
    29.5189  29.5731  29.6680  29.7883  29.8309  29.8454  29.9073  29.9608
    29.9643  30.0830  30.1332  30.1451

          k = 0.0000 0.0000 0.0610 ( 31496 PWs)   bands (ev):

   -29.4738 -29.4695 -28.3691 -28.3645 -21.1067 -20.8896 -20.3720 -19.6154
   -18.6373 -18.3544 -18.1598 -17.7584 -17.4259 -17.0568 -16.3470 -16.2633
   -14.6326 -14.5730 -13.9244 -13.5510 -13.1503 -12.6441 -12.5274 -12.3197
   -11.6952 -11.4714 -11.3600 -11.3145 -11.1851 -10.5280 -10.2543 -10.1542
   -10.1088 -10.1060  -9.6171  -9.2424  -9.1187  -8.9873  -8.5954  -8.5452
    -8.4371  -8.4237  -8.4121  -7.9416  -7.8390  -7.7002  -7.5804  -7.2479
    -6.9835  -6.9729  -6.5610  -6.3638  -5.9449  -5.8926  -5.7324  -5.6794
    -5.5537  -5.0226  -4.7803  -4.2854  -3.8142  -3.6358  -0.2785  -0.0916
     0.4329   0.9481   1.2618   1.5477   1.6276   1.7945   1.8585   2.0885
     2.5499   2.6588   2.9516   3.2269   3.2882   3.4956   3.5159   3.8309
     3.9680   4.0582   4.1986   4.3946   4.4258   4.5058   4.5590   4.7250
     5.0501   5.1742   5.3633   5.4082   5.4930   5.5509   5.5800   5.6338
     5.7612   5.8238   5.9097   6.0094   6.1800   6.2190   6.3223   6.4074
     6.5676   6.7566   6.8027   6.8600   6.9360   7.0081   7.0212   7.0307
     7.1128   7.2533   7.3854   7.4759   7.5257   7.5353   7.6117   7.7558
     7.8124   7.8547   7.8811   7.8822   7.9443   7.9646   8.2002   8.2659
     8.2670   8.3182   8.5965   8.6039   8.7208   8.7325   8.8591   8.9082
     8.9855   8.9939   9.0076   9.0180   9.0473   9.1557   9.3767   9.4842
     9.6214   9.6353   9.7048   9.7202   9.7761   9.8419   9.9625   9.9716
    10.0297  10.0470  10.1212  10.1572  10.2375  10.5449  10.6174  10.6614
    10.7912  11.0066  11.0262  11.1078  11.1084  11.2674  11.3002  11.3335
    11.3827  11.4467  11.5178  11.5279  11.5869  11.7612  11.7626  11.7929
    11.8834  11.9168  11.9521  11.9871  12.0244  12.1617  12.2088  12.2979
    12.3972  12.4829  12.4947  12.5959  12.5983  12.6925  12.8261  12.9504
    12.9930  13.0327  13.1318  13.1590  13.2591  13.3971  13.5074  13.5670
    13.6177  13.6212  13.6290  13.9022  14.0385  14.1007  14.1666  14.3405
    14.4274  14.5190  14.5336  14.6122  14.6273  14.6279  14.8361  14.8444
    14.8703  14.8886  14.9331  14.9841  15.0272  15.0569  15.1749  15.2494
    15.4392  15.4556  15.4795  15.4858  15.6189  15.6213  15.6572  15.7488
    15.9156  15.9818  15.9930  16.0162  16.0358  16.2142  16.2926  16.3525
    16.3635  16.4886  16.5618  16.5808  16.6458  16.6469  16.7045  16.7147
    16.7266  16.7666  16.8063  16.8341  16.8640  16.8719  17.0517  17.0796
    17.0904  17.1497  17.1802  17.2468  17.3022  17.3546  17.4708  17.5671
    17.6784  17.7301  17.7875  17.8036  17.8810  17.9730  17.9902  18.1761
    18.1846  18.2127  18.2339  18.2637  18.2738  18.3467  18.4299  18.4694
    18.5669  18.6199  18.6229  18.7524  18.7891  18.8109  18.8268  18.8373
    18.8942  18.9431  19.1734  19.3258  19.3724  19.5650  19.5851  19.6405
    19.8097  19.8898  19.9508  20.0223  20.0857  20.1469  20.1659  20.2325
    20.2786  20.3145  20.3458  20.3466  20.3936  20.4586  20.4676  20.4799
    20.5479  20.5973  20.6394  20.6461  20.6664  20.7451  20.7806  20.8745
    20.9084  20.9301  20.9609  21.0678  21.1940  21.2009  21.2651  21.3544
    21.4061  21.5429  21.5928  21.6278  21.6895  21.7052  21.7215  21.7545
    21.8104  21.8171  21.8865  21.8943  21.9063  21.9792  22.0490  22.0526
    22.0964  22.1290  22.1468  22.1836  22.2365  22.2905  22.2913  22.3069
    22.3894  22.3920  22.4475  22.4899  22.4994  22.5515  22.6512  22.7092
    22.7265  22.7585  22.8085  22.8145  22.8424  22.8856  22.9440  23.0402
    23.0696  23.2326  23.2966  23.4482  23.4741  23.6048  23.7006  23.7164
    23.7318  23.7627  23.8059  23.9156  24.0452  24.0662  24.1253  24.2096
    24.3029  24.3271  24.3607  24.4204  24.5745  24.5769  24.6014  24.6037
    24.6388  24.6704  24.6983  24.7289  24.7326  24.7879  24.8132  24.8857
    25.0355  25.0609  25.2704  25.3197  25.3676  25.3789  25.4681  25.4880
    25.4952  25.5016  25.5281  25.5800  25.7751  25.8323  25.9834  25.9925
    26.1383  26.2141  26.2580  26.2674  26.3429  26.3509  26.3686  26.4731
    26.5861  26.6357  26.6671  26.7021  26.7392  26.7623  26.8325  26.9397
    26.9428  26.9523  26.9636  27.1139  27.1290  27.2258  27.2858  27.3116
    27.3272  27.3347  27.3830  27.5153  27.5273  27.5572  27.5583  27.7005
    27.7051  27.7395  27.8618  27.9100  27.9259  27.9605  27.9625  28.0266
    28.0330  28.1404  28.1410  28.2356  28.2550  28.2767  28.3464  28.3549
    28.3824  28.3949  28.4703  28.5245  28.5281  28.5771  28.6157  28.7864
    28.7953  28.7986  28.8667  28.8696  28.9523  28.9655  29.0058  29.0152
    29.0630  29.1244  29.2380  29.2659  29.2663  29.2853  29.3679  29.3947
    29.4044  29.4463  29.5264  29.5644  29.6420  29.6466  29.7444  29.8347
    29.9446  29.9526  29.9696  29.9904

          k = 0.0000 0.0000 0.0657 ( 31474 PWs)   bands (ev):

   -29.4436 -29.4393 -28.4078 -28.4032 -21.0435 -20.8273 -20.3108 -19.5562
   -18.5952 -18.5150 -18.3016 -17.8903 -17.3958 -17.1930 -16.3716 -16.3328
   -14.6613 -14.6086 -13.8508 -13.6146 -13.0590 -12.4648 -12.3925 -12.2913
   -11.6121 -11.3630 -11.3352 -11.2499 -11.0947 -10.5431 -10.2119 -10.0669
   -10.0643 -10.0360  -9.5611  -9.1976  -9.1540  -8.9153  -8.5446  -8.5174
    -8.4835  -8.4307  -8.3659  -7.9927  -7.7738  -7.7368  -7.6349  -7.3521
    -7.1113  -6.9114  -6.7317  -6.4542  -6.0644  -5.9014  -5.7747  -5.7296
    -5.7113  -5.1675  -4.7646  -4.4330  -3.8317  -3.7412  -0.1865  -0.1005
     0.5880   0.9721   1.3681   1.7130   1.7868   1.8760   2.1186   2.1678
     2.5505   2.6241   3.0388   3.2789   3.3743   3.5484   3.6013   3.9164
     4.0529   4.1060   4.1441   4.4750   4.4805   4.5906   4.5984   4.7834
     5.0554   5.1740   5.3222   5.4188   5.4297   5.5457   5.6355   5.6736
     5.7109   5.7574   5.7870   6.0129   6.0851   6.1610   6.2842   6.4161
     6.5862   6.5875   6.6400   6.7297   6.8321   6.8780   6.8806   7.0344
     7.1107   7.1275   7.3262   7.3710   7.4683   7.5589   7.5947   7.6679
     7.6969   7.7351   7.7605   7.7946   7.8424   7.9522   8.0264   8.0616
     8.1476   8.1566   8.4033   8.6233   8.6809   8.7822   8.7876   8.8193
     8.8473   8.8520   8.9653   9.0008   9.1072   9.1601   9.2367   9.3508
     9.6898   9.7010   9.7442   9.7517   9.7708   9.7839   9.8685   9.8797
    10.0349  10.0768  10.0811  10.1717  10.1998  10.4909  10.6942  10.7148
    10.8100  10.8520  11.0864  11.0897  11.0948  11.1299  11.2476  11.2935
    11.3229  11.4091  11.4379  11.4431  11.5990  11.7294  11.7804  11.8379
    11.9192  11.9311  12.0574  12.0688  12.0823  12.0943  12.1088  12.2470
    12.3604  12.4857  12.5256  12.6346  12.6361  12.6382  12.8587  12.8703
    12.9949  13.0481  13.1268  13.2513  13.2702  13.2766  13.3876  13.4975
    13.5555  13.5729  13.6885  13.9450  13.9602  14.0019  14.1030  14.3749
    14.4252  14.4338  14.5398  14.5541  14.6190  14.7031  14.7185  14.7955
    14.8134  14.9225  14.9482  14.9883  15.0844  15.1532  15.2641  15.3682
    15.4574  15.4632  15.5012  15.6231  15.6407  15.6978  15.7321  15.8456
    15.8824  15.9668  15.9676  16.0686  16.1427  16.2444  16.2938  16.3309
    16.3814  16.5554  16.5796  16.6831  16.7032  16.7171  16.7332  16.7536
    16.7726  16.8636  16.8946  17.0507  17.0682  17.1234  17.1529  17.1806
    17.1968  17.2448  17.2681  17.3164  17.4810  17.5356  17.6136  17.6359
    17.7157  17.7639  17.8052  17.8271  18.0141  18.0313  18.1927  18.2423
    18.2660  18.2919  18.3207  18.4394  18.4989  18.5149  18.5635  18.6039
    18.6308  18.6364  18.7023  18.7100  18.8209  18.8480  18.9008  18.9498
    19.0063  19.1173  19.1229  19.3085  19.3197  19.5512  19.6027  19.7652
    19.9151  19.9173  19.9785  20.0740  20.1025  20.1554  20.1954  20.1966
    20.1994  20.3282  20.3686  20.4436  20.4613  20.5153  20.5782  20.5935
    20.6043  20.6315  20.6389  20.6754  20.6864  20.7446  20.8181  20.8850
    20.9263  20.9305  20.9944  21.1217  21.1414  21.2733  21.4268  21.4723
    21.5195  21.5504  21.6700  21.6710  21.7004  21.7357  21.7715  21.7818
    21.7882  21.8613  21.8666  21.9457  21.9785  21.9938  22.0312  22.1041
    22.1216  22.1607  22.2233  22.2663  22.2859  22.3723  22.3772  22.4162
    22.4712  22.4760  22.4989  22.5606  22.6285  22.7001  22.7122  22.8309
    22.8540  22.8780  22.8901  22.9297  22.9301  23.0940  23.1076  23.1284
    23.1300  23.2809  23.3275  23.3469  23.5243  23.6141  23.6249  23.6556
    23.7541  23.8144  23.8625  23.8786  23.9729  24.1046  24.1900  24.2044
    24.3129  24.3690  24.4175  24.5065  24.5401  24.5941  24.7031  24.7050
    24.7480  24.7653  24.7789  24.8043  24.8209  24.8894  25.0149  25.1082
    25.1155  25.2488  25.2967  25.3014  25.3836  25.4196  25.4554  25.4648
    25.5267  25.5368  25.7005  25.7775  25.7894  25.7895  25.8068  25.9183
    25.9904  26.0506  26.1425  26.2510  26.3388  26.3442  26.4235  26.4410
    26.5656  26.5779  26.6021  26.6765  26.8422  26.8487  26.8554  26.8916
[...]
     9.4309   9.5708   9.5746   9.6781   9.7172   9.8625   9.9362   9.9951
    10.0345  10.0524  10.0867  10.4493  10.4955  10.5269  10.6256  10.6530
    10.6842  10.7459  10.7875  10.8577  10.9054  10.9335  10.9621  10.9857
    11.0264  11.2513  11.3072  11.3751  11.4088  11.4707  11.5866  11.6748
    11.7184  11.7502  11.8707  11.8776  11.9194  11.9468  11.9796  12.2354
    12.2410  12.3585  12.4136  12.4929  12.5893  12.7061  12.7326  12.8605
    12.9297  12.9667  13.1870  13.2183  13.3370  13.4389  13.4560  13.4684
    13.5007  13.5361  13.5449  13.5735  13.7673  13.8604  13.9570  13.9997
    14.1825  14.3062  14.3201  14.3401  14.4036  14.5447  14.6077  14.6282
    14.6666  14.7094  14.8932  15.0711  15.1097  15.1306  15.1796  15.3629
    15.3820  15.4030  15.4428  15.7525  15.8402  15.8429  15.8435  15.9278
    15.9827  16.2616  16.3361  16.3837  16.4399  16.4461  16.4992  16.5248
    16.5341  16.5400  16.6412  16.7610  16.7843  17.0057  17.1331  17.1652
    17.2296  17.2851  17.3020  17.4092  17.5369  17.5508  17.5618  17.6838
    17.7855  17.9386  18.0230  18.0669  18.2525  18.2616  18.3231  18.3924
    18.4172  18.4319  18.4813  18.4930  18.6224  18.7413  18.7421  18.7685
    18.7976  18.8434  18.9827  19.0260  19.0797  19.1942  19.1985  19.2919
    19.4730  19.4998  19.5614  19.5807  19.7041  19.8275  19.8794  19.9000
    19.9512  20.0192  20.0649  20.1053  20.1484  20.2361  20.2726  20.3450
    20.3941  20.4024  20.4203  20.4548  20.4943  20.4995  20.6422  20.6819
    20.6930  20.7031  20.8093  20.8401  20.9273  20.9397  20.9622  20.9659
    20.9829  20.9874  21.0649  21.1382  21.1877  21.2054  21.2171  21.2273
    21.3673  21.3682  21.4912  21.5826  21.6056  21.6065  21.6415  21.6956
    21.7945  21.8754  21.8797  21.9306  21.9544  22.0108  22.0237  22.0557
    22.0901  22.1191  22.1427  22.1452  22.2013  22.3561  22.3965  22.4012
    22.4017  22.4464  22.5021  22.5504  22.5795  22.6408  22.6497  22.7467
    22.7801  22.8059  22.9049  22.9330  23.0461  23.1020  23.1461  23.1887
    23.2582  23.3033  23.3284  23.3461  23.4130  23.4751  23.5191  23.5817
    23.5931  23.6477  23.6517  23.6829  23.8306  23.8515  23.8890  23.9132
    23.9441  23.9442  23.9776  24.0271  24.0829  24.1486  24.2047  24.2591
    24.3040  24.3468  24.3552  24.4224  24.5200  24.5350  24.5684  24.6168
    24.7509  24.7548  24.7741  24.8194  24.8638  24.8878  24.9077  24.9640
    25.0003  25.0831  25.1470  25.1839  25.2100  25.2967  25.3253  25.3410
    25.3707  25.4101  25.5136  25.5446  25.5712  25.6236  25.6914  25.7087
    25.7557  25.8259  25.9437  25.9675  26.0145  26.0758  26.1515  26.2009
    26.2044  26.2359  26.2635  26.3247  26.3919  26.4028  26.4750  26.5307
    26.5529  26.5579  26.5669  26.6176  26.7632  26.8194  26.8562  26.9125
    26.9289  26.9313  26.9552  27.1156  27.1250  27.1461  27.2019  27.2663
    27.4400  27.4680  27.4975  27.5081  27.5876  27.7467  27.7569  27.7612
    27.8094  27.9051  27.9407  27.9643  28.0593  28.0659  28.1695  28.1834
    28.1868  28.2118  28.3165  28.3547  28.3821  28.4539  28.4701  28.5521
    28.5857  28.6007  28.6145  28.6563  28.6679  28.6777  28.7477  28.7796
    28.8703  28.8835  28.9327  28.9588  28.9817  29.0004  29.0873  29.1210
    29.1990  29.2386  29.3356  29.3379  29.3483  29.3616  29.3669  29.4079
    29.4229  29.4387  29.4575  29.4621

          k = 0.0000 0.0000 0.1080 ( 31502 PWs)   bands (ev):

   -29.1515 -29.1471 -28.7528 -28.7483 -20.2706 -20.0730 -19.8026 -19.6671
   -19.4941 -19.1219 -18.7829 -18.3803 -17.8209 -17.4358 -16.7723 -16.5018
   -14.9217 -14.6985 -13.8473 -13.5968 -12.7354 -12.4736 -11.8269 -11.4389
   -10.9964 -10.8833 -10.7452 -10.3933 -10.0322  -9.8935  -9.8122  -9.7075
    -9.7052  -9.2203  -9.0953  -9.0031  -8.8847  -8.8812  -8.8597  -8.8112
    -8.6452  -8.4848  -8.3702  -8.3048  -8.0172  -7.9940  -7.8932  -7.6191
    -7.5757  -7.4878  -7.3163  -7.1218  -6.9629  -6.5052  -6.1311  -6.0935
    -6.0878  -5.7172  -5.1691  -4.8501  -4.2147  -4.0748  -0.0172   0.1564
     0.9177   1.3184   2.1701   2.6833   2.7131   2.7335   3.0074   3.2996
     3.3131   3.5483   3.5875   3.9152   3.9456   3.9642   4.1409   4.1771
     4.3706   4.4230   4.5134   4.5697   4.6558   4.7869   4.9775   5.0112
     5.0730   5.1292   5.1344   5.2142   5.2909   5.2925   5.4964   5.5277
     5.6011   5.6116   5.6409   5.6866   5.7135   5.7487   5.7959   5.8630
     5.9091   6.1066   6.1098   6.1222   6.2350   6.3208   6.3390   6.3732
     6.4420   6.4826   6.6547   6.6808   6.7445   6.7512   6.8569   6.9537
     7.0405   7.0731   7.2688   7.2962   7.2983   7.3448   7.3634   7.4558
     7.6081   7.8545   7.9597   8.1695   8.1698   8.2099   8.4905   8.6266
     8.7561   8.7756   8.8181   8.8814   8.9706   9.1352   9.2567   9.3834
     9.4074   9.4440   9.6046   9.7001   9.7099   9.8066  10.0316  10.0686
    10.1156  10.1555  10.2151  10.3049  10.3771  10.5684  10.6421  10.7192
    10.7442  10.7581  10.7610  10.7884  10.8217  10.8544  10.9336  11.1239
    11.1340  11.1367  11.2103  11.3074  11.4433  11.5286  11.5614  11.5698
    11.6325  11.6678  11.7529  11.8633  11.9063  11.9240  12.1026  12.2431
    12.3305  12.3676  12.4006  12.5326  12.6632  12.6957  12.7342  12.7366
    13.0010  13.0413  13.1007  13.1994  13.3281  13.3796  13.4136  13.5086
    13.5334  13.5385  13.6324  13.6518  13.6636  13.7171  13.8823  14.0368
    14.1969  14.2410  14.2624  14.3516  14.4274  14.5556  14.6195  14.6660
    14.7103  14.7505  14.9510  15.0532  15.1000  15.1774  15.1833  15.3097
    15.3552  15.4332  15.4699  15.7114  15.7429  15.8148  15.8470  15.9203
    16.0541  16.2320  16.2678  16.2959  16.4258  16.4374  16.4438  16.5588
    16.6539  16.6651  16.7009  16.7174  16.8500  17.0026  17.0097  17.2093
    17.2235  17.2679  17.3051  17.3893  17.4011  17.5042  17.5886  17.6966
    17.8585  17.9876  17.9918  18.0810  18.2201  18.2724  18.2796  18.3632
    18.3715  18.4422  18.4453  18.4856  18.6579  18.6744  18.8580  18.8736
    18.9818  19.0800  19.1065  19.1387  19.2742  19.3244  19.3334  19.3687
    19.3982  19.4614  19.6579  19.7643  19.8369  19.9075  19.9247  19.9560
    20.0612  20.0990  20.1258  20.1542  20.2047  20.2816  20.3043  20.3379
    20.4064  20.4671  20.5052  20.5091  20.5357  20.5518  20.5941  20.6918
    20.7173  20.8318  20.8667  20.9205  20.9502  20.9620  21.0256  21.0486
    21.0606  21.1401  21.1432  21.1985  21.2317  21.3221  21.3279  21.3286
    21.3306  21.4251  21.4732  21.5354  21.5819  21.7015  21.7499  21.7856
    21.7925  21.8720  21.9226  21.9239  21.9851  21.9866  22.0399  22.0427
    22.0694  22.1178  22.1960  22.2220  22.2272  22.2687  22.4048  22.4332
    22.4392  22.5515  22.5609  22.5666  22.5738  22.6186  22.6523  22.7927
    22.8286  22.8437  22.8799  22.9791  23.0310  23.0594  23.1110  23.1492
    23.2238  23.2773  23.2882  23.2910  23.3312  23.3682  23.4275  23.4697
    23.5077  23.6039  23.6465  23.6490  23.7631  23.7918  23.8320  23.9122
    23.9366  23.9629  24.0314  24.0674  24.1033  24.1087  24.1124  24.1340
    24.2234  24.3428  24.3804  24.4186  24.5579  24.5590  24.6351  24.6407
    24.7048  24.7226  24.7319  24.7451  24.7658  24.8407  24.8723  24.9040
    24.9421  24.9635  25.0038  25.0688  25.1633  25.2094  25.2282  25.3003
    25.3278  25.4180  25.4800  25.5130  25.5456  25.5801  25.6641  25.8264
    25.9050  25.9220  25.9941  26.0179  26.0324  26.0733  26.1454  26.1849
    26.2204  26.2738  26.3467  26.4223  26.4754  26.4879  26.4905  26.5313
    26.5554  26.5734  26.6340  26.7025  26.7202  26.7363  26.7688  26.8346
    26.9292  26.9390  26.9700  26.9962  27.0217  27.1074  27.2775  27.2964
    27.3645  27.4147  27.4242  27.4650  27.6093  27.6689  27.7495  27.7870
    27.9526  27.9730  27.9837  28.0123  28.0368  28.0611  28.0630  28.1398
    28.2255  28.2850  28.3577  28.3631  28.4034  28.4582  28.5437  28.6324
    28.6562  28.6945  28.7179  28.7432  28.7494  28.7578  28.8337  28.8550
    28.8892  28.9193  28.9202  28.9325  28.9564  28.9681  28.9708  29.0408
    29.0838  29.1704  29.2008  29.2137  29.2688  29.2849  29.3206  29.4022
    29.4113  29.4586  29.4786  29.5331

          k = 0.0000 0.0000 0.1127 ( 31486 PWs)   bands (ev):

   -29.1344 -29.1300 -28.7715 -28.7669 -20.1634 -19.9894 -19.9026 -19.7459
   -19.4296 -19.2274 -18.6921 -18.4875 -17.7305 -17.5364 -16.7029 -16.5655
   -14.8767 -14.7622 -13.7859 -13.6563 -12.6733 -12.5356 -11.7402 -11.5418
   -10.9135 -10.8674 -10.6837 -10.4937  -9.8129  -9.7897  -9.7400  -9.6912
    -9.6889  -9.3685  -9.0960  -9.0389  -8.9019  -8.8984  -8.7989  -8.7544
    -8.6579  -8.5189  -8.4594  -8.4270  -7.9698  -7.9154  -7.8930  -7.6316
    -7.5260  -7.4959  -7.3952  -7.2487  -6.8565  -6.6238  -6.1038  -6.1010
    -6.0350  -5.8245  -5.0938  -4.9309  -4.1836  -4.1117   0.0212   0.1099
     1.0152   1.2199   2.3087   2.5896   2.7648   2.7885   3.0995   3.2938
     3.4693   3.4893   3.5603   3.8208   3.9064   3.9360   4.2849   4.3233
     4.3800   4.5055   4.5620   4.6232   4.6840   4.7613   4.8425   5.0427
     5.1131   5.1172   5.1318   5.1329   5.3056   5.3952   5.4141   5.4364
     5.6007   5.6167   5.6402   5.6495   5.7006   5.7219   5.8354   5.9269
     5.9330   5.9477   5.9664   6.1529   6.1665   6.1743   6.2458   6.3719
     6.4341   6.5645   6.7191   6.8001   6.8265   6.8377   6.8913   6.8931
     7.0119   7.0372   7.1078   7.1348   7.2143   7.2165   7.4358   7.5179
     7.6416   7.7564   7.8412   8.0315   8.3142   8.3549   8.6098   8.6187
     8.6607   8.7640   8.8794   8.9062   9.0230   9.0610   9.2291   9.2513
     9.3191   9.4841   9.5451   9.5742   9.8492   9.9372  10.0905  10.1480
    10.1765  10.2308  10.2526  10.2712  10.3528  10.4302  10.5773  10.6188
    10.6541  10.6907  10.7698  10.8614  10.8917  10.9919  11.0164  11.0802
    11.0990  11.1876  11.2535  11.2649  11.3291  11.4074  11.5101  11.5782
    11.6011  11.6634  11.7362  11.7844  11.8884  11.9213  12.2241  12.3023
    12.3549  12.3840  12.3982  12.5544  12.6502  12.6673  12.7059  12.7751
    12.8989  13.0141  13.1942  13.2354  13.3567  13.4123  13.4256  13.4489
    13.4609  13.4871  13.5656  13.6255  13.7629  13.8086  13.8675  14.0161
    14.0570  14.1132  14.3044  14.3728  14.5291  14.5373  14.6442  14.7417
    14.7975  14.8221  14.8728  14.9774  15.0302  15.0728  15.2170  15.4071
    15.4325  15.4878  15.4952  15.6107  15.7726  15.7823  15.8635  15.8666
    16.0779  16.1112  16.1613  16.2849  16.3910  16.4336  16.5483  16.5567
    16.6512  16.7727  16.7757  16.8500  16.8769  16.9470  16.9864  17.0864
    17.1824  17.2310  17.2754  17.3195  17.4933  17.4960  17.5728  17.6643
    17.9494  18.0095  18.0235  18.1020  18.2099  18.2219  18.2477  18.2607
    18.3733  18.4297  18.4433  18.4758  18.5653  18.5739  18.9484  18.9827
    19.1231  19.1854  19.2353  19.2889  19.3558  19.4382  19.4426  19.4787
    19.5455  19.5664  19.5810  19.7895  19.8415  19.9629  20.0167  20.0290
    20.1652  20.1894  20.2029  20.2383  20.2487  20.2934  20.3519  20.3688
    20.3772  20.3842  20.4121  20.4757  20.4860  20.5119  20.6281  20.6399
    20.7486  20.8212  20.8913  20.9017  20.9205  20.9705  20.9793  21.0609
    21.1751  21.1873  21.2281  21.2916  21.3800  21.3939  21.4306  21.4500
    21.4760  21.4833  21.5292  21.6511  21.6602  21.6722  21.6909  21.7159
    21.7243  21.8502  21.9116  21.9795  21.9947  22.0035  22.0222  22.0344
    22.1960  22.2166  22.2478  22.2990  22.3401  22.3517  22.3952  22.3990
    22.4214  22.4645  22.4908  22.5416  22.6415  22.6528  22.7159  22.7279
    22.7540  22.8150  22.9051  22.9244  22.9562  23.0227  23.0328  23.1459
    23.1588  23.1879  23.3359  23.3437  23.3806  23.4486  23.4691  23.5190
    23.5323  23.5404  23.6482  23.6608  23.7067  23.7138  23.7139  23.7770
    23.8008  23.8765  23.9207  23.9409  24.0364  24.0385  24.1726  24.1780
    24.2254  24.2675  24.2820  24.3193  24.5053  24.5487  24.5575  24.5734
    24.6707  24.7309  24.7736  24.7752  24.7951  24.8283  24.9321  24.9451
    24.9717  25.0021  25.0302  25.1291  25.1594  25.2407  25.2652  25.2713
    25.3237  25.3966  25.4710  25.4982  25.5432  25.6174  25.6802  25.7865
    25.7979  25.8572  25.9251  26.0343  26.0501  26.0569  26.0846  26.1921
    26.2123  26.2709  26.2863  26.3133  26.3519  26.3697  26.4745  26.5497
    26.6656  26.7167  26.7532  26.7655  26.8067  26.8086  26.8156  26.8827
    26.9056  26.9365  26.9898  27.0795  27.1501  27.2319  27.2446  27.3103
    27.3129  27.4037  27.5141  27.5500  27.5727  27.5916  27.7409  27.7576
    27.8519  27.9776  27.9785  27.9795  28.0756  28.1115  28.1232  28.1303
    28.1734  28.2229  28.3154  28.3301  28.3516  28.3684  28.4962  28.5057
    28.5247  28.6126  28.6700  28.7133  28.7513  28.7963  28.8213  28.8324
    28.9269  28.9336  28.9492  28.9571  28.9953  29.0412  29.0617  29.0864
    29.1097  29.1380  29.2471  29.2762  29.3394  29.4069  29.4483  29.4535
    29.4894  29.5279  29.5619  29.5628

          k = 0.0000 0.0000-0.1174 ( 31460 PWs)   bands (ev):

   -29.1282 -29.1238 -28.7781 -28.7736 -20.0550 -20.0548 -19.8474 -19.8467
   -19.3328 -19.3323 -18.5925 -18.5920 -17.6354 -17.6348 -16.6337 -16.6327
   -14.8232 -14.8221 -13.7212 -13.7205 -12.6051 -12.6042 -11.6440 -11.6426
   -10.8743 -10.8729 -10.5963 -10.5955  -9.7449  -9.7448  -9.6855  -9.6832
    -9.5696  -9.5695  -9.0779  -9.0777  -8.9077  -8.9042  -8.7563  -8.7554
    -8.5653  -8.5651  -8.5066  -8.5066  -7.9422  -7.9403  -7.7641  -7.7640
    -7.4660  -7.4651  -7.3751  -7.3749  -6.7421  -6.7419  -6.1066  -6.1060
    -5.9316  -5.9315  -5.0132  -5.0131  -4.1490  -4.1479   0.0637   0.0644
     1.1167   1.1178   2.4504   2.4513   2.8016   2.8028   3.1993   3.1996
     3.5166   3.5171   3.6488   3.6496   3.9087   3.9093   4.3962   4.3965
     4.4887   4.4888   4.5384   4.5389   4.6888   4.6888   4.9673   4.9674
     5.1227   5.1228   5.1635   5.1636   5.2788   5.2788   5.4447   5.4447
     5.5645   5.5646   5.6396   5.6397   5.7908   5.7908   5.8225   5.8226
     5.9910   5.9911   5.9911   5.9911   6.1319   6.1319   6.2685   6.2691
     6.5642   6.5643   6.7195   6.7197   6.9487   6.9487   6.9594   6.9595
     6.9806   6.9806   7.0428   7.0429   7.1138   7.1141   7.5544   7.5556
     7.6319   7.6321   7.9061   7.9066   8.4594   8.4595   8.5106   8.5106
     8.7442   8.7446   8.9059   8.9061   9.0668   9.0669   9.1749   9.1749
     9.3838   9.3840   9.5427   9.5439   9.9843   9.9849  10.0908  10.0913
    10.2035  10.2052  10.2966  10.2967  10.4437  10.4437  10.4870  10.4870
    10.6085  10.6086  10.8911  10.8911  10.9824  10.9824  11.0161  11.0162
    11.1823  11.1823  11.2301  11.2302  11.3748  11.3749  11.4433  11.4435
    11.6907  11.6925  11.7358  11.7358  11.8896  11.8897  12.3153  12.3160
    12.3653  12.3654  12.4557  12.4558  12.6686  12.6686  12.7481  12.7482
    12.9119  12.9123  13.2872  13.2876  13.4023  13.4023  13.4062  13.4063
    13.4427  13.4427  13.5477  13.5485  13.8865  13.8866  13.9447  13.9452
    13.9781  13.9786  14.3547  14.3548  14.5454  14.5463  14.7472  14.7473
    14.8170  14.8172  14.9363  14.9363  14.9485  14.9486  15.3439  15.3441
    15.4756  15.4756  15.5746  15.5760  15.7847  15.7848  15.8630  15.8634
    16.0101  16.0102  16.2502  16.2502  16.3847  16.3849  16.6009  16.6014
    16.6918  16.6920  16.8639  16.8643  16.9369  16.9370  17.0554  17.0555
    17.0911  17.0911  17.3097  17.3105  17.5264  17.5267  17.5908  17.5908
    18.0181  18.0182  18.0744  18.0749  18.1893  18.1893  18.2283  18.2285
    18.4012  18.4014  18.4672  18.4677  18.5227  18.5228  19.0365  19.0368
    19.1028  19.1028  19.2959  19.2960  19.4459  19.4462  19.5271  19.5276
    19.6532  19.6532  19.7764  19.7768  19.8669  19.8671  20.0731  20.0744
    20.1027  20.1027  20.2330  20.2333  20.2623  20.2624  20.2646  20.2647
    20.3870  20.3871  20.4582  20.4584  20.6379  20.6384  20.6586  20.6586
    20.7462  20.7464  20.8488  20.8488  20.9400  20.9402  20.9883  20.9885
    21.1686  21.1690  21.2908  21.2911  21.4327  21.4332  21.4587  21.4590
    21.5275  21.5277  21.5656  21.5662  21.6602  21.6608  21.7999  21.8002
    21.8950  21.8953  21.9235  21.9236  22.0137  22.0140  22.1019  22.1019
    22.1512  22.1512  22.2818  22.2818  22.3017  22.3017  22.4454  22.4455
    22.4547  22.4547  22.5124  22.5125  22.5639  22.5642  22.6089  22.6091
    22.8134  22.8134  22.8485  22.8487  23.0794  23.0796  23.1823  23.1823
    23.2607  23.2608  23.2623  23.2623  23.3799  23.3800  23.4803  23.4803
    23.5200  23.5203  23.6160  23.6161  23.6162  23.6164  23.7522  23.7523
    23.9110  23.9111  23.9772  23.9772  24.0109  24.0110  24.0961  24.0965
    24.1882  24.1883  24.3204  24.3205  24.3866  24.3868  24.4761  24.4761
    24.6634  24.6635  24.7909  24.7911  24.8762  24.8763  24.9755  24.9757
    25.0924  25.0927  25.0931  25.0932  25.2450  25.2451  25.3329  25.3329
    25.4513  25.4513  25.4879  25.4879  25.4999  25.5001  25.7256  25.7259
    25.8431  25.8431  25.9038  25.9041  25.9341  25.9342  25.9440  25.9440
    26.1526  26.1530  26.3392  26.3393  26.5517  26.5518  26.6563  26.6566
    26.6821  26.6821  26.7697  26.7698  26.8464  26.8464  26.8575  26.8576
    26.9287  26.9287  27.0120  27.0122  27.0254  27.0255  27.3163  27.3164
    27.4923  27.4925  27.6282  27.6283  27.6401  27.6404  27.7929  27.7929
    27.8312  27.8312  27.9166  27.9168  28.0157  28.0158  28.1122  28.1123
    28.2247  28.2248  28.2444  28.2444  28.3953  28.3953  28.4340  28.4341
    28.5235  28.5235  28.6414  28.6416  28.6760  28.6763  28.7905  28.7905
    28.9519  28.9520  28.9606  28.9606  29.0788  29.0789  29.2155  29.2156
    29.2352  29.2353  29.3532  29.3533  29.3815  29.3815  29.4321  29.4322
    29.5093  29.5094  29.5350  29.5352

     the Fermi energy is    -2.2353 ev

     Writing output data file F12.save/

     init_run     :      5.64s CPU      5.79s WALL (       1 calls)
     electrons    :   3354.25s CPU   3396.45s WALL (       1 calls)

     Called by init_run:
     wfcinit      :      0.00s CPU      0.01s WALL (       1 calls)
     potinit      :      0.33s CPU      0.36s WALL (       1 calls)
     hinit0       :      4.67s CPU      4.72s WALL (       1 calls)

     Called by electrons:
     c_bands      :   3354.23s CPU   3396.44s WALL (       1 calls)
     v_of_rho     :      0.27s CPU      0.28s WALL (       1 calls)
     newd         :      0.17s CPU      0.21s WALL (       1 calls)

     Called by c_bands:
     init_us_2    :      0.05s CPU      0.16s WALL (      26 calls)
     cegterg      :   3315.93s CPU   3356.61s WALL (      98 calls)

     Called by sum_band:

     Called by *egterg:
     h_psi        :    337.53s CPU    344.84s WALL (    1897 calls)
     s_psi        :     27.67s CPU     27.91s WALL (    1897 calls)
     g_psi        :      2.66s CPU      2.69s WALL (    1773 calls)
     cdiaghg      :   2384.93s CPU   2398.61s WALL (    1799 calls)

     Called by h_psi:
     h_psi:pot    :    334.77s CPU    340.34s WALL (    1897 calls)
     h_psi:calbec :     28.63s CPU     29.48s WALL (    1897 calls)
     vloc_psi     :    278.57s CPU    283.13s WALL (    1897 calls)
     add_vuspsi   :     27.55s CPU     27.72s WALL (    1897 calls)

     General routines
     calbec       :     28.62s CPU     29.47s WALL (    1897 calls)
     fft          :      0.25s CPU      0.27s WALL (      14 calls)
     ffts         :      0.00s CPU      0.00s WALL (       1 calls)
     fftw         :    250.99s CPU    255.12s WALL (  443516 calls)
     interpolate  :      0.01s CPU      0.02s WALL (       1 calls)
     davcio       :      0.01s CPU      0.74s WALL (      52 calls)

     Parallel routines
     fft_scatt_xy :     42.21s CPU     42.87s WALL (  443531 calls)
     fft_scatt_yz :     70.30s CPU     71.72s WALL (  443531 calls)

     PWSCF        : 56m 6.81s CPU    58m25.83s WALL


   This run was terminated on:   2:56:39  20Apr2021            

=------------------------------------------------------------------------------=
   JOB DONE.
=------------------------------------------------------------------------------=
