
     Program PWSCF v.6.3 starts on 15Apr2021 at 21: 1:53 

     This program is part of the open-source Quantum ESPRESSO suite
     for quantum simulation of materials; please cite
         "P. Giannozzi et al., J. Phys.:Condens. Matter 21 395502 (2009);
         "P. Giannozzi et al., J. Phys.:Condens. Matter 29 465901 (2017);
          URL http://www.quantum-espresso.org", 
     in publications or presentations arising from this work. More details at
     http://www.quantum-espresso.org/quote

     Parallel version (MPI), running on    16 processors
     R & G space division:  proc/nbgrp/npool/nimage =      16
     Waiting for input...
     Reading input from standard input
     Message from routine read_cards :
     DEPRECATED: no units specified in CELL_PARAMETERS card

     Current dimensions of program PWSCF are:
     Max number of different atomic species (ntypx) = 10
     Max number of k-points (npk) =  40000
     Max angular momentum in pseudopotentials (lmaxx) =  3

     Atomic positions and unit cell read from directory:
     /home/zfwang/scratch/GNRDATASET/AGNR/ANTI13-4-6/ANTI13-4-6.save/


     Subspace diagonalization in iterative solution of the eigenvalue problem:
     a serial algorithm will be used


     Parallelization info
     --------------------
     sticks:   dense  smooth     PW     G-vecs:    dense   smooth      PW
     Min        2556     852    226               191435    36836    5050
     Max        2557     853    228               191437    36837    5051
     Sum       40909   13645   3627              3062965   589389   80803



     bravais-lattice index     =            0
     lattice parameter (alat)  =       1.8897  a.u.
     unit-cell volume          =   17248.7430 (a.u.)^3
     number of atoms/cell      =           60
     number of atomic types    =            2
     number of electrons       =       198.00
     number of Kohn-Sham states=          500
     kinetic-energy cutoff     =      40.0000  Ry
     charge density cutoff     =     480.0000  Ry
     Exchange-correlation      = PBE ( 1  4  3  4 0 0)

     celldm(1)=  18.897261  celldm(2)=   3.000000  celldm(3)=   0.852000
     celldm(4)=   0.000000  celldm(5)=   0.000000  celldm(6)=   0.000000

     crystal axes: (cart. coord. in units of alat)
               a(1) = (  10.000000   0.000000   0.000000 )  
               a(2) = (   0.000000  30.000000   0.000000 )  
               a(3) = (   0.000000   0.000000   8.520000 )  

     reciprocal axes: (cart. coord. in units 2 pi/alat)
               b(1) = (  0.100000  0.000000  0.000000 )  
               b(2) = (  0.000000  0.033333  0.000000 )  
               b(3) = (  0.000000  0.000000  0.117371 )  


     PseudoPot. # 1 for C  read from file:
     /home/zfwang/hp_home/MySoftware/qe-6.3/pseudo/C.pbe-n-rrkjus_psl.0.1.UPF
     MD5 check sum: fff530ed632a789b3b184014e67dd7f1
     Pseudo is Ultrasoft + core correction, Zval =  4.0
     Generated using "atomic" code by A. Dal Corso v.5.0.2 svn rev. 9415
     Using radial grid of 1073 points,  4 beta functions with: 
                l(1) =   0
                l(2) =   0
                l(3) =   1
                l(4) =   1
     Q(r) pseudized with 0 coefficients 


     PseudoPot. # 2 for H  read from file:
     /home/zfwang/hp_home/MySoftware/qe-6.3/pseudo/H.pbe-rrkjus_psl.0.1.UPF
     MD5 check sum: e164a6907b691c6980f16942be34de84
     Pseudo is Ultrasoft, Zval =  1.0
     Generated using "atomic" code by A. Dal Corso v.5.0.2 svn rev. 9415
     Using radial grid of  929 points,  2 beta functions with: 
                l(1) =   0
                l(2) =   0
     Q(r) pseudized with 0 coefficients 


     atomic species   valence    mass     pseudopotential
        C              4.00    12.01070     C ( 1.00)
        H              1.00     1.00794     H ( 1.00)

     No symmetry found



   Cartesian axes

     site n.     atom                  positions (alat units)
         1           C   tau(   1) = (   4.9999941   7.5820799   2.8121926  )
         2           C   tau(   2) = (   4.9999832   8.7858736   3.5449702  )
         3           C   tau(   3) = (   4.9999929   7.5856798   1.4450247  )
         4           C   tau(   4) = (   4.9999843  10.0175881   2.8392661  )
         5           C   tau(   5) = (   4.9999857  11.2583971   3.5401888  )
         6           C   tau(   6) = (   4.9999913   8.7914429   0.7128545  )
         7           C   tau(   7) = (   4.9999917  10.0270225   1.4177461  )
         8           C   tau(   8) = (   4.9999965  12.4480761   2.8134298  )
         9           C   tau(   9) = (   4.9999985  11.2653353   0.7084827  )
        10           C   tau(  10) = (   5.0000038  12.4969288   1.4267309  )
        11           C   tau(  11) = (   5.0000159  13.7667208   0.7114487  )
        12           C   tau(  12) = (   5.0000209  15.0000267   1.3698711  )
        13           C   tau(  13) = (   5.0000192  17.5519046   2.8134236  )
        14           C   tau(  14) = (   5.0000016  18.7415905   3.5401411  )
        15           C   tau(  15) = (   5.0000213  16.2333219   0.7114520  )
        16           C   tau(  16) = (   5.0000174  17.5030793   1.4267414  )
        17           C   tau(  17) = (   4.9999981  19.9823975   2.8392714  )
        18           C   tau(  18) = (   4.9999936  21.2140927   3.5449249  )
        19           C   tau(  19) = (   5.0000110  18.7346713   0.7084988  )
        20           C   tau(  20) = (   5.0000046  19.9729592   1.4177463  )
        21           C   tau(  21) = (   4.9999900  22.4179273   2.8121818  )
        22           C   tau(  22) = (   5.0000020  21.2085443   0.7128798  )
        23           C   tau(  23) = (   4.9999960  22.4143080   1.4450290  )
        24           H   tau(  24) = (   5.0000060   6.6242377   3.3250049  )
        25           H   tau(  25) = (   4.9999944   6.6292162   0.9297416  )
        26           H   tau(  26) = (   4.9999815  23.3757507   3.3250233  )
        27           H   tau(  27) = (   4.9999952  23.3707665   0.9297021  )
        28           C   tau(  28) = (   4.9999949   7.5856976   7.0748479  )
        29           C   tau(  29) = (   4.9999913   8.7914255   7.8071875  )
        30           C   tau(  30) = (   4.9999837   7.5820956   5.7079575  )
        31           C   tau(  31) = (   4.9999882  10.0270354   7.1022083  )
        32           C   tau(  32) = (   4.9999985  11.2653282   7.8115338  )
        33           C   tau(  33) = (   4.9999783   8.7858546   4.9750038  )
        34           C   tau(  34) = (   4.9999815  10.0176049   5.6807901  )
        35           C   tau(  35) = (   5.0000071  12.4969282   7.0932369  )
        36           C   tau(  36) = (   5.0000180  13.7667214   7.8085508  )
        37           C   tau(  37) = (   4.9999867  11.2583750   4.9797983  )
        38           C   tau(  38) = (   5.0000021  12.4480838   5.7066079  )
        39           C   tau(  39) = (   5.0000193  15.0000221   7.1501068  )
        40           C   tau(  40) = (   5.0000157  16.2333244   7.8085486  )
        41           C   tau(  41) = (   5.0000058  17.5030768   7.0932038  )
        42           C   tau(  42) = (   5.0000084  18.7346755   7.8115152  )
        43           C   tau(  43) = (   4.9999897  17.5518940   5.7066227  )
        44           C   tau(  44) = (   5.0000036  19.9729481   7.1021769  )
        45           C   tau(  45) = (   5.0000041  21.2085595   7.8071669  )
        46           C   tau(  46) = (   4.9999954  18.7416226   4.9798327  )
        47           C   tau(  47) = (   5.0000009  19.9823668   5.6807989  )
        48           C   tau(  48) = (   5.0000024  22.4142905   7.0747747  )
        49           C   tau(  49) = (   4.9999984  21.2141277   4.9750272  )
        50           C   tau(  50) = (   4.9999992  22.4178982   5.7080146  )
        51           H   tau(  51) = (   5.0000102   6.6291920   7.5902890  )
        52           H   tau(  52) = (   4.9999837   6.6242108   5.1949949  )
        53           H   tau(  53) = (   4.9999982  23.3707982   7.5903246  )
        54           H   tau(  54) = (   4.9999970  23.3757861   5.1949531  )
        55           H   tau(  55) = (   4.9999951  13.3859221   3.3573450  )
        56           H   tau(  56) = (   5.0000157  15.0000615   2.4551088  )
        57           H   tau(  57) = (   5.0000352  16.6140769   3.3573493  )
        58           H   tau(  58) = (   5.0000139  13.3859193   5.1626539  )
        59           H   tau(  59) = (   5.0000187  15.0000641   6.0648809  )
        60           H   tau(  60) = (   4.9999699  16.6140809   5.1626360  )

     number of k points=    26  Marzari-Vanderbilt smearing, width (Ry)=  0.0100
                       cart. coord. in units 2pi/alat
        k(    1) = (   0.0000000   0.0000000   0.0000000), wk =   0.0400000
        k(    2) = (   0.0000000   0.0000000   0.0023474), wk =   0.0800000
        k(    3) = (   0.0000000   0.0000000   0.0046948), wk =   0.0800000
        k(    4) = (   0.0000000   0.0000000   0.0070423), wk =   0.0800000
        k(    5) = (   0.0000000   0.0000000   0.0093897), wk =   0.0800000
        k(    6) = (   0.0000000   0.0000000   0.0117371), wk =   0.0800000
        k(    7) = (   0.0000000   0.0000000   0.0140845), wk =   0.0800000
        k(    8) = (   0.0000000   0.0000000   0.0164319), wk =   0.0800000
        k(    9) = (   0.0000000   0.0000000   0.0187793), wk =   0.0800000
        k(   10) = (   0.0000000   0.0000000   0.0211268), wk =   0.0800000
        k(   11) = (   0.0000000   0.0000000   0.0234742), wk =   0.0800000
        k(   12) = (   0.0000000   0.0000000   0.0258216), wk =   0.0800000
        k(   13) = (   0.0000000   0.0000000   0.0281690), wk =   0.0800000
        k(   14) = (   0.0000000   0.0000000   0.0305164), wk =   0.0800000
        k(   15) = (   0.0000000   0.0000000   0.0328638), wk =   0.0800000
        k(   16) = (   0.0000000   0.0000000   0.0352113), wk =   0.0800000
        k(   17) = (   0.0000000   0.0000000   0.0375587), wk =   0.0800000
        k(   18) = (   0.0000000   0.0000000   0.0399061), wk =   0.0800000
        k(   19) = (   0.0000000   0.0000000   0.0422535), wk =   0.0800000
        k(   20) = (   0.0000000   0.0000000   0.0446009), wk =   0.0800000
        k(   21) = (   0.0000000   0.0000000   0.0469484), wk =   0.0800000
        k(   22) = (   0.0000000   0.0000000   0.0492958), wk =   0.0800000
        k(   23) = (   0.0000000   0.0000000   0.0516432), wk =   0.0800000
        k(   24) = (   0.0000000   0.0000000   0.0539906), wk =   0.0800000
        k(   25) = (   0.0000000   0.0000000   0.0563380), wk =   0.0800000
        k(   26) = (   0.0000000   0.0000000  -0.0586854), wk =   0.0400000

     Dense  grid:  3062965 G-vectors     FFT dimensions: ( 135, 400, 120)

     Smooth grid:   589389 G-vectors     FFT dimensions: (  80, 240,  72)

     Estimated max dynamical RAM per process >     731.96 MB

     Estimated total dynamical RAM >      11.44 GB

     The potential is recalculated from file :
     /home/zfwang/scratch/GNRDATASET/AGNR/ANTI13-4-6/ANTI13-4-6.save/charge-density.dat


     negative rho (up, down):  1.561E-04 0.000E+00
     Starting wfcs are  198 randomized atomic wfcs +  302 random wfcs

     Band Structure Calculation
     Davidson diagonalization with overlap
     c_bands:  1 eigenvalues not converged
     c_bands:  1 eigenvalues not converged

     ethr =  5.05E-09,  avg # of iterations = 50.1

     total cpu time spent up to now is     4968.0 secs

     End of band structure calculation

          k = 0.0000 0.0000 0.0000 ( 73589 PWs)   bands (ev):

   -21.1371 -21.0847 -20.3523 -19.8646 -19.7346 -19.7170 -19.4765 -19.4747
   -19.2156 -18.6858 -18.5561 -18.3662 -17.8815 -17.6749 -17.4106 -17.2180
   -16.8758 -16.4303 -16.1297 -15.8419 -15.8000 -15.1405 -15.0636 -15.0481
   -14.8892 -14.8534 -14.7632 -14.5147 -14.2423 -13.9963 -13.4093 -13.2183
   -12.6893 -12.4905 -12.3122 -12.1747 -12.0187 -11.9338 -11.7750 -11.3935
   -11.2784 -10.6282 -10.5787 -10.3188 -10.3065 -10.1641  -9.8114  -9.7839
    -9.5447  -9.4167  -9.2873  -9.2002  -9.1297  -8.9268  -8.8009  -8.7162
    -8.6782  -8.6737  -8.5655  -8.5641  -8.5127  -8.4293  -8.3389  -8.3075
    -8.3054  -8.0943  -8.0871  -7.9660  -7.7578  -7.6472  -7.6186  -7.5404
    -7.5013  -7.4673  -7.3709  -7.3092  -7.3034  -7.1582  -6.9754  -6.9710
    -6.7100  -6.4252  -6.2148  -6.0958  -5.8297  -5.6665  -5.6163  -5.6128
    -5.5103  -5.4718  -5.1593  -4.7710  -4.7570  -4.0628  -4.0178  -3.7699
    -3.6743  -2.2193  -2.1521  -2.0046  -1.9286  -0.8066  -0.6322  -0.6171
    -0.1779   0.1036   0.6156   0.7498   0.9582   1.0262   1.1650   1.3174
     1.4485   1.5150   1.5959   1.9139   2.0612   2.1653   2.3135   2.4378
     2.4841   2.4944   2.5202   2.6889   2.7795   2.8514   2.8834   2.8848
     3.0064   3.0633   3.2097   3.2482   3.2725   3.3488   3.4474   3.5289
     3.5320   3.5670   3.6453   3.7847   3.8681   3.8736   3.9116   3.9406
     3.9907   4.0549   4.0706   4.0747   4.2247   4.2648   4.2723   4.2796
     4.3875   4.4602   4.4914   4.5594   4.6795   4.6945   4.7111   4.7451
     4.7616   4.7917   4.8056   4.8264   4.8278   4.8432   4.9243   4.9607
     5.0076   5.0203   5.1173   5.1472   5.1598   5.2419   5.2720   5.3102
     5.3180   5.3958   5.4133   5.4780   5.5301   5.5559   5.6480   5.7026
     5.8365   5.8959   5.9042   5.9065   5.9348   5.9852   5.9918   6.0252
     6.0388   6.0972   6.1364   6.1459   6.1628   6.1657   6.2220   6.2245
     6.2522   6.2565   6.3482   6.4160   6.4389   6.5015   6.5167   6.5212
     6.6075   6.6107   6.7882   6.8679   6.9391   6.9563   6.9767   7.0205
     7.0448   7.0859   7.1384   7.1458   7.1501   7.1775   7.1783   7.1908
     7.2618   7.2828   7.2891   7.3566   7.4163   7.4664   7.5445   7.6033
     7.6059   7.6547   7.7077   7.7236   7.7903   7.8020   7.8147   7.8772
     7.9397   7.9598   7.9736   8.0752   8.1558   8.1669   8.2448   8.2857
     8.3188   8.3491   8.3801   8.4091   8.4485   8.4587   8.5732   8.6436
     8.6741   8.6922   8.7947   8.8516   8.8806   8.9047   8.9893   9.0296
     9.0344   9.0612   9.0801   9.0848   9.0906   9.1215   9.1668   9.1741
     9.1845   9.1927   9.1933   9.2986   9.3152   9.3253   9.3346   9.3585
     9.3680   9.4312   9.4767   9.4873   9.4974   9.5424   9.5434   9.6243
     9.6254   9.6827   9.6913   9.7022   9.7277   9.8117   9.8563   9.8652
     9.8662   9.8784   9.9538   9.9787  10.0044  10.0177  10.0290  10.0512
    10.0555  10.0650  10.1016  10.1838  10.1991  10.2117  10.2905  10.3070
    10.3111  10.3499  10.3908  10.4058  10.4063  10.4380  10.4707  10.5303
    10.5304  10.5982  10.6207  10.6430  10.6443  10.7078  10.7308  10.7495
    10.7651  10.7656  10.7691  10.8109  10.8814  10.9549  10.9906  11.0354
    11.0377  11.0414  11.0443  11.0460  11.0998  11.1073  11.1404  11.1882
    11.2084  11.2676  11.2775  11.2886  11.2971  11.3031  11.3163  11.4116
    11.4256  11.4437  11.4550  11.4679  11.4744  11.4828  11.4869  11.5077
    11.5174  11.5341  11.5554  11.5864  11.7136  11.7267  11.7686  11.8009
    11.8418  11.8574  11.8780  11.8863  11.8957  11.9657  11.9756  11.9943
    12.0198  12.0287  12.1054  12.1225  12.1595  12.1977  12.2004  12.2660
    12.2662  12.2700  12.2719  12.3101  12.3638  12.3813  12.4309  12.4585
    12.4843  12.5229  12.5502  12.6340  12.6763  12.7250  12.7335  12.7527
    12.7883  12.8013  12.8069  12.8307  12.9002  12.9362  12.9366  12.9437
    12.9940  13.0137  13.0509  13.1068  13.1073  13.1709  13.2550  13.3087
    13.3162  13.3684  13.3801  13.3849  13.3927  13.4248  13.4563  13.4778
    13.5172  13.5595  13.6363  13.6716  13.6850  13.6855  13.7085  13.7162
    13.7241  13.7660  13.7886  13.7938  13.8365  13.8512  13.8860  13.9029
    14.0314  14.1207  14.1361  14.1508  14.1620  14.2437  14.2465  14.2593
    14.2711  14.3214  14.3281  14.3525  14.3993  14.4095  14.4855  14.5247
    14.5704  14.5826  14.6164  14.6168  14.6387  14.7438  14.8045  14.8272
    14.8504  14.8801  14.8948  14.9379  14.9534  14.9658  14.9839  15.0021
    15.0093  15.0926  15.1460  15.1493  15.1745  15.2275  15.2360  15.2806
    15.2912  15.3167  15.3202  15.3304  15.3395  15.3951  15.3997  15.4081
    15.4154  15.4249  15.5106  15.5410  15.5826  15.5847  15.6133  15.6397
    15.7208  15.7828  15.8103  15.8142

          k = 0.0000 0.0000 0.0023 ( 73645 PWs)   bands (ev):

   -21.1365 -21.0842 -20.3525 -19.8672 -19.7441 -19.7246 -19.4659 -19.4630
   -19.2154 -18.6872 -18.5653 -18.3574 -17.8797 -17.6732 -17.4108 -17.2166
   -16.8781 -16.4284 -16.1314 -15.8528 -15.8114 -15.1421 -15.0611 -15.0533
   -14.8830 -14.8442 -14.7577 -14.5125 -14.2368 -13.9972 -13.4101 -13.2185
   -12.6937 -12.4956 -12.3082 -12.1714 -12.0150 -11.9389 -11.7709 -11.3889
   -11.2781 -10.6349 -10.5746 -10.3290 -10.3085 -10.1610  -9.8080  -9.7867
    -9.5471  -9.4079  -9.2903  -9.1996  -9.1291  -8.9492  -8.8081  -8.7014
    -8.6847  -8.6707  -8.6021  -8.5741  -8.4811  -8.4164  -8.3357  -8.3077
    -8.2935  -8.0910  -8.0846  -7.9713  -7.7587  -7.6495  -7.6203  -7.5340
    -7.5179  -7.4870  -7.3652  -7.2916  -7.2811  -7.1600  -6.9756  -6.9712
    -6.7093  -6.4262  -6.2334  -6.0778  -5.8306  -5.6652  -5.6180  -5.6134
    -5.5115  -5.4700  -5.1582  -4.7717  -4.7563  -4.0638  -4.0172  -3.7742
    -3.6782  -2.2376  -2.1896  -1.9674  -1.9106  -0.8056  -0.6272  -0.6122
    -0.1805   0.1072   0.6119   0.7514   0.9590   1.0270   1.1656   1.3132
     1.4467   1.5158   1.5960   1.9145   2.0544   2.1657   2.3227   2.4390
     2.4849   2.4957   2.5214   2.6899   2.7803   2.8241   2.8570   2.8822
     3.0360   3.0903   3.2105   3.2354   3.2488   3.3796   3.4527   3.4574
     3.5672   3.6101   3.6463   3.7819   3.8045   3.9030   3.9223   3.9250
     3.9798   4.0048   4.0978   4.0982   4.2255   4.2802   4.2821   4.3044
     4.3628   4.4460   4.5240   4.5476   4.6620   4.6687   4.6909   4.6989
     4.7578   4.7747   4.8174   4.8655   4.8728   4.8881   4.9050   4.9512
     5.0254   5.0393   5.1291   5.1481   5.1506   5.1843   5.2584   5.3337
     5.3591   5.3828   5.4136   5.4902   5.5504   5.5630   5.5972   5.7520
     5.7928   5.8495   5.9067   5.9367   5.9763   5.9897   5.9927   6.0059
     6.0321   6.0812   6.1181   6.1312   6.1614   6.1756   6.2269   6.2466
     6.2642   6.2794   6.3569   6.4192   6.4276   6.5044   6.5211   6.5292
     6.5834   6.6365   6.7905   6.8621   6.9399   6.9585   6.9701   6.9737
     7.0468   7.0789   7.1308   7.1375   7.1401   7.1976   7.1990   7.2279
     7.2692   7.2822   7.2962   7.3519   7.4162   7.4656   7.5393   7.6037
     7.6072   7.6619   7.7143   7.7240   7.7865   7.8027   7.8156   7.8749
     7.9098   7.9728   7.9839   8.0769   8.1394   8.1635   8.2602   8.2844
     8.2937   8.3494   8.3713   8.4089   8.4641   8.4864   8.5630   8.6190
     8.6908   8.7131   8.7918   8.8376   8.8807   8.9009   8.9828   8.9864
     9.0293   9.0347   9.0623   9.0803   9.1038   9.1338   9.1423   9.1616
     9.1811   9.1920   9.2147   9.2243   9.2894   9.3605   9.3663   9.3746
     9.4310   9.4561   9.4629   9.4789   9.5006   9.5010   9.6142   9.6200
     9.6238   9.6390   9.7040   9.7194   9.7196   9.8260   9.8403   9.8484
     9.8641   9.8798   9.9046   9.9485   9.9828   9.9902  10.0351  10.0574
    10.0614  10.1419  10.1740  10.1760  10.1846  10.1990  10.2390  10.2896
    10.3607  10.3750  10.3818  10.3881  10.4148  10.4471  10.4650  10.5200
    10.5206  10.5572  10.6269  10.6453  10.6633  10.6792  10.7445  10.7529
    10.7721  10.7854  10.7970  10.8275  10.8333  10.9853  10.9906  11.0013
    11.0057  11.0363  11.0599  11.0772  11.0820  11.1217  11.1394  11.1988
    11.2052  11.2673  11.2727  11.2995  11.3046  11.3094  11.3101  11.3942
    11.4184  11.4225  11.4372  11.4458  11.4486  11.4829  11.4976  11.5356
    11.5571  11.5633  11.5705  11.5759  11.7177  11.7200  11.7471  11.7856
    11.8414  11.8542  11.8867  11.9006  11.9247  11.9579  11.9766  11.9843
    11.9976  12.0041  12.0783  12.1328  12.1445  12.2007  12.2072  12.2429
    12.2804  12.3006  12.3326  12.3336  12.3550  12.3894  12.4344  12.4538
    12.5021  12.5283  12.5596  12.6236  12.6671  12.6877  12.7483  12.7678
    12.7955  12.8009  12.8290  12.8394  12.8759  12.8813  12.9685  12.9889
    12.9901  13.0079  13.0477  13.0985  13.1451  13.1608  13.2678  13.2875
    13.3047  13.3333  13.3379  13.4089  13.4223  13.4346  13.4565  13.4748
    13.5508  13.5611  13.6003  13.6338  13.6871  13.7041  13.7144  13.7216
    13.7217  13.7569  13.8052  13.8211  13.8338  13.8629  13.8999  13.9033
    14.0352  14.1227  14.1277  14.1570  14.1574  14.2375  14.2560  14.2609
    14.2642  14.3245  14.3342  14.3523  14.3998  14.4207  14.4926  14.5054
    14.5732  14.6026  14.6034  14.6113  14.6545  14.7448  14.7877  14.7904
    14.8264  14.8766  14.9345  14.9422  14.9431  14.9551  14.9975  15.0116
    15.0295  15.0756  15.1381  15.1500  15.1645  15.2123  15.2351  15.2499
    15.2871  15.3000  15.3120  15.3258  15.3451  15.3867  15.4209  15.4230
    15.4342  15.4390  15.4951  15.5245  15.5570  15.6044  15.6142  15.6763
    15.7382  15.7606  15.7767  15.8043

          k = 0.0000 0.0000 0.0047 ( 73689 PWs)   bands (ev):

   -21.1349 -21.0824 -20.3532 -19.8758 -19.7688 -19.7423 -19.4381 -19.4320
   -19.2149 -18.6912 -18.5892 -18.3348 -17.8744 -17.6681 -17.4112 -17.2124
   -16.8849 -16.4226 -16.1367 -15.8841 -15.8435 -15.1497 -15.0713 -15.0527
   -14.8625 -14.8168 -14.7420 -14.5061 -14.2208 -13.9996 -13.4128 -13.2191
   -12.7068 -12.5100 -12.2966 -12.1615 -12.0041 -11.9530 -11.7597 -11.3752
   -11.2772 -10.6531 -10.5639 -10.3573 -10.3139 -10.1535  -9.7984  -9.7954
    -9.5513  -9.3851  -9.2998  -9.1977  -9.1270  -8.9994  -8.8138  -8.7471
    -8.6716  -8.6678  -8.6163  -8.6048  -8.4416  -8.3803  -8.3253  -8.3082
    -8.2653  -8.0809  -8.0762  -7.9862  -7.7619  -7.6585  -7.6215  -7.5564
    -7.5283  -7.5156  -7.3498  -7.2503  -7.2314  -7.1654  -6.9763  -6.9716
    -6.7073  -6.4291  -6.2728  -6.0402  -5.8332  -5.6612  -5.6225  -5.6155
    -5.5151  -5.4646  -5.1547  -4.7738  -4.7542  -4.0667  -4.0154  -3.7873
    -3.6896  -2.2832  -2.2607  -1.8971  -1.8660  -0.8026  -0.6122  -0.5976
    -0.1879   0.1176   0.6016   0.7553   0.9613   1.0294   1.1674   1.3009
     1.4412   1.5183   1.5965   1.9165   2.0365   2.1667   2.3475   2.4427
     2.4873   2.4994   2.5254   2.6927   2.7659   2.7827   2.8011   2.8818
     3.0877   3.1472   3.1837   3.2128   3.2504   3.3780   3.4089   3.4971
     3.5679   3.6481   3.6923   3.7351   3.7690   3.8760   3.8825   3.9246
     3.9276   4.0146   4.1113   4.1481   4.2276   4.3037   4.3072   4.3188
     4.3601   4.4421   4.5231   4.5631   4.5985   4.6122   4.6261   4.6764
     4.7479   4.7860   4.8498   4.8784   4.9035   4.9409   4.9507   4.9596
     5.0621   5.0667   5.1171   5.1239   5.1506   5.1689   5.2302   5.2961
     5.4109   5.4135   5.4568   5.5002   5.5282   5.5541   5.6207   5.7280
     5.7818   5.8128   5.9177   5.9361   5.9874   5.9919   5.9955   6.0090
     6.0092   6.0613   6.1086   6.1229   6.1464   6.1997   6.2311   6.2851
     6.2948   6.2991   6.3833   6.4309   6.4399   6.4873   6.5353   6.5381
     6.5750   6.6657   6.7939   6.8449   6.8972   6.9435   6.9628   6.9629
     7.0081   7.0585   7.1105   7.1123   7.2127   7.2266   7.2284   7.2452
     7.2768   7.3067   7.3181   7.3400   7.4288   7.4620   7.5262   7.5968
     7.6187   7.6773   7.7250   7.7305   7.7770   7.8025   7.8181   7.8686
     7.8703   7.9756   8.0046   8.0811   8.1100   8.1534   8.2344   8.2905
     8.2935   8.3462   8.3501   8.4166   8.5001   8.5397   8.5471   8.5752
     8.7115   8.7600   8.7794   8.7941   8.8805   8.8883   8.9217   8.9437
     8.9881   9.0093   9.0242   9.0538   9.1010   9.1154   9.1167   9.1406
     9.1510   9.1887   9.1982   9.2248   9.3362   9.3849   9.4052   9.4155
     9.4291   9.4330   9.4795   9.5088   9.5140   9.5298   9.5761   9.6047
     9.6071   9.7041   9.7050   9.7200   9.7310   9.7893   9.7917   9.8145
     9.8439   9.8675   9.9169   9.9224   9.9601   9.9936  10.0169  10.0971
    10.1179  10.1244  10.1458  10.1710  10.1793  10.2072  10.2441  10.3276
    10.3473  10.3568  10.3845  10.4111  10.4283  10.4359  10.4705  10.4989
    10.5075  10.5534  10.6285  10.6354  10.6791  10.6837  10.6991  10.7505
    10.7700  10.7894  10.8389  10.8489  10.9261  10.9472  10.9590  10.9614
    10.9768  11.0054  11.0422  11.1053  11.1202  11.1390  11.1615  11.1803
    11.2377  11.2697  11.2787  11.2845  11.3001  11.3288  11.3420  11.3554
    11.3891  11.3901  11.4073  11.4335  11.4340  11.4504  11.4843  11.5734
    11.5757  11.6091  11.6113  11.6345  11.6709  11.7160  11.7173  11.7805
    11.8271  11.8725  11.8766  11.9017  11.9069  11.9656  11.9799  11.9907
    11.9974  12.0016  12.0505  12.1137  12.1277  12.1978  12.2067  12.2286
    12.3069  12.3490  12.3716  12.3864  12.3965  12.4081  12.4386  12.5077
    12.5137  12.5432  12.5784  12.5944  12.6311  12.6804  12.7620  12.7776
    12.7990  12.8208  12.8251  12.8269  12.8683  12.9071  12.9647  12.9670
    12.9923  13.0553  13.0780  13.0914  13.1495  13.2091  13.2542  13.2559
    13.2747  13.2985  13.3069  13.3994  13.4313  13.4589  13.4757  13.4795
    13.5351  13.5572  13.6115  13.6287  13.6787  13.6871  13.6972  13.7161
    13.7262  13.7929  13.8282  13.8390  13.8603  13.8948  13.9043  13.9372
    14.0407  14.1054  14.1279  14.1459  14.1747  14.2293  14.2400  14.2746
    14.2758  14.3360  14.3494  14.3518  14.4069  14.4452  14.4756  14.5082
    14.5732  14.5917  14.5936  14.6321  14.6718  14.7352  14.7560  14.7645
    14.7920  14.8558  14.8991  14.9548  14.9598  14.9831  15.0025  15.0094
    15.0532  15.0851  15.1041  15.1051  15.1833  15.1866  15.1919  15.2388
    15.2419  15.2518  15.3297  15.3499  15.3543  15.3596  15.4031  15.4511
    15.4564  15.4770  15.4909  15.4925  15.5822  15.6025  15.6152  15.7376
    15.7475  15.7564  15.7674  15.7725

          k = 0.0000 0.0000 0.0070 ( 73661 PWs)   bands (ev):

   -21.1323 -21.0795 -20.3544 -19.8928 -19.8021 -19.7605 -19.4000 -19.3890
   -19.2136 -18.6976 -18.6211 -18.3051 -17.8660 -17.6596 -17.4115 -17.2057
   -16.8958 -16.4136 -16.1457 -15.9318 -15.8916 -15.1663 -15.1032 -15.0382
   -14.8288 -14.7722 -14.7161 -14.4960 -14.1958 -14.0033 -13.4173 -13.2200
   -12.7279 -12.5316 -12.2783 -12.1452 -11.9870 -11.9735 -11.7437 -11.3532
   -11.2757 -10.6807 -10.5484 -10.4000 -10.3222 -10.1443  -9.8101  -9.7847
    -9.5522  -9.3549  -9.3165  -9.1945  -9.1235  -9.0548  -8.8150  -8.8000
    -8.7331  -8.6785  -8.6475  -8.5471  -8.4130  -8.3364  -8.3091  -8.3058
    -8.2301  -8.0630  -8.0602  -8.0086  -7.7690  -7.6743  -7.6188  -7.6033
    -7.5727  -7.4874  -7.3282  -7.1991  -7.1742  -7.1712  -6.9769  -6.9720
    -6.7040  -6.4338  -6.3186  -5.9978  -5.8375  -5.6548  -5.6297  -5.6195
    -5.5211  -5.4554  -5.1488  -4.7772  -4.7507  -4.0717  -4.0123  -3.8088
    -3.7082  -2.3427  -2.3394  -1.8198  -1.8082  -0.7975  -0.5875  -0.5737
    -0.1991   0.1337   0.5860   0.7600   0.9652   1.0334   1.1704   1.2809
     1.4327   1.5223   1.5974   1.9198   2.0120   2.1685   2.3829   2.4486
     2.4913   2.5054   2.5322   2.6974   2.6999   2.7367   2.7868   2.8821
     3.0848   3.1936   3.2064   3.2166   3.2532   3.3131   3.4209   3.5587
     3.5689   3.6522   3.6668   3.7317   3.7753   3.8240   3.8407   3.8516
     3.9260   4.0585   4.1191   4.2064   4.2280   4.2461   4.3397   4.3400
     4.4176   4.4445   4.5044   4.5390   4.5444   4.5593   4.5947   4.6451
     4.7390   4.8279   4.8653   4.8875   4.8913   4.9578   5.0331   5.0365
     5.0569   5.0683   5.0736   5.1461   5.1548   5.2171   5.2273   5.2439
     5.4065   5.4671   5.4907   5.5096   5.5338   5.5540   5.6614   5.6778
     5.7281   5.8492   5.8795   5.9380   5.9455   5.9676   5.9890   6.0029
     6.0390   6.0758   6.1161   6.1184   6.1694   6.2079   6.2363   6.2749
     6.3162   6.3507   6.4259   6.4590   6.4707   6.4951   6.5183   6.5383
     6.6017   6.6985   6.7928   6.8176   6.8242   6.9306   6.9396   6.9483
     6.9791   7.0701   7.1003   7.1060   7.2301   7.2472   7.2566   7.2599
     7.2904   7.3357   7.3403   7.3594   7.4519   7.4701   7.5117   7.5845
     7.6370   7.6913   7.7256   7.7360   7.7730   7.7951   7.8223   7.8388
     7.8595   7.9923   8.0043   8.0867   8.0914   8.1353   8.1761   8.3011
     8.3082   8.3248   8.3511   8.4338   8.5224   8.5371   8.5478   8.5946
     8.7184   8.7219   8.7507   8.8167   8.8531   8.8592   8.8786   8.8855
     8.9374   8.9782   8.9931   9.0062   9.0387   9.0924   9.1112   9.1128
     9.1262   9.1836   9.2358   9.2924   9.3028   9.3588   9.4288   9.4475
     9.4665   9.4720   9.4952   9.5066   9.5085   9.5167   9.5481   9.5852
     9.6282   9.6388   9.6808   9.7160   9.7606   9.7750   9.7823   9.7911
     9.8661   9.9024   9.9200   9.9334   9.9371   9.9664  10.0406  10.0734
    10.0921  10.1066  10.1411  10.1455  10.2099  10.2117  10.2649  10.2717
    10.2927  10.3879  10.3942  10.4005  10.4023  10.4839  10.5011  10.5203
    10.5471  10.5525  10.5769  10.6257  10.6682  10.7029  10.7493  10.7564
    10.7807  10.7908  10.8422  10.8591  10.8884  10.9102  10.9457  10.9510
    10.9601  10.9952  11.0917  11.1139  11.1318  11.1545  11.1873  11.2001
    11.2118  11.2546  11.2741  11.3005  11.3150  11.3219  11.3251  11.3614
    11.3676  11.3769  11.3818  11.3954  11.4452  11.4674  11.4747  11.5291
    11.6217  11.6275  11.6308  11.6342  11.6779  11.7162  11.7287  11.7352
    11.7877  11.8736  11.8978  11.9145  11.9291  11.9382  11.9755  11.9848
    12.0060  12.0407  12.0738  12.1385  12.1438  12.1461  12.1616  12.2391
    12.3267  12.3339  12.3699  12.4444  12.4490  12.4653  12.4844  12.5353
    12.5645  12.5678  12.5782  12.5924  12.6589  12.6604  12.7435  12.7518
    12.7957  12.8064  12.8505  12.8654  12.9167  12.9351  12.9487  12.9635
    12.9725  13.0814  13.1077  13.1254  13.1514  13.2193  13.2234  13.2368
    13.2534  13.3067  13.3108  13.3666  13.3947  13.4626  13.4699  13.5069
    13.5265  13.5762  13.6068  13.6215  13.6629  13.6837  13.7116  13.7130
    13.7464  13.8241  13.8378  13.8649  13.8972  13.9055  13.9340  13.9898
    14.0359  14.0756  14.1363  14.1392  14.1961  14.2183  14.2212  14.2818
    14.3018  14.3444  14.3649  14.3742  14.4251  14.4572  14.4636  14.5277
    14.5560  14.5630  14.5895  14.6441  14.6758  14.7222  14.7451  14.7659
    14.7808  14.8266  14.8400  14.9536  14.9636  14.9867  14.9868  14.9932
    15.0557  15.0762  15.0803  15.1280  15.1322  15.1514  15.1707  15.2142
    15.2150  15.2505  15.3160  15.3195  15.3492  15.3634  15.3857  15.4549
    15.4788  15.5074  15.5363  15.5413  15.5943  15.5970  15.6299  15.7017
    15.7283  15.7513  15.7735  15.8365

          k = 0.0000 0.0000 0.0094 ( 73645 PWs)   bands (ev):

   -21.1285 -21.0755 -20.3562 -19.9195 -19.8394 -19.7729 -19.3572 -19.3390
   -19.2104 -18.7061 -18.6571 -18.2723 -17.8549 -17.6475 -17.4111 -17.1968
   -16.9102 -16.4020 -16.1590 -15.9915 -15.9504 -15.1917 -15.1466 -15.0193
   -14.7910 -14.7127 -14.6763 -14.4828 -14.1640 -14.0075 -13.4238 -13.2215
   -12.7563 -12.5585 -12.2542 -12.1227 -11.9983 -11.9649 -11.7247 -11.3238
   -11.2738 -10.7168 -10.5287 -10.4540 -10.3321 -10.1353  -9.8299  -9.7702
    -9.5478  -9.3406  -9.3231  -9.1900  -9.1187  -9.1046  -8.8525  -8.8174
    -8.8000  -8.7175  -8.6669  -8.4782  -8.3976  -8.3105  -8.3013  -8.2758
    -8.1889  -8.0417  -8.0349  -8.0308  -7.7831  -7.6926  -7.6526  -7.6125
    -7.6115  -7.4518  -7.3041  -7.1864  -7.1453  -7.1062  -6.9765  -6.9709
    -6.6996  -6.4397  -6.3664  -5.9551  -5.8437  -5.6466  -5.6393  -5.6253
    -5.5294  -5.4422  -5.1402  -4.7819  -4.7459  -4.0791  -4.0082  -3.8383
    -3.7332  -2.4206  -2.4087  -1.7446  -1.7405  -0.7905  -0.5536  -0.5409
    -0.2129   0.1545   0.5666   0.7638   0.9706   1.0389   1.1746   1.2539
     1.4219   1.5279   1.5985   1.9244   1.9839   2.1709   2.4245   2.4566
     2.4969   2.5132   2.5425   2.6323   2.6700   2.7040   2.7926   2.8808
     3.0330   3.2033   3.2218   3.2567   3.2583   3.3162   3.4282   3.5704
     3.5887   3.6362   3.6578   3.6671   3.7488   3.7705   3.8411   3.8599
     3.9312   4.0919   4.1258   4.1739   4.2390   4.2733   4.3167   4.3827
     4.4209   4.4486   4.4492   4.4778   4.5477   4.5628   4.6013   4.6121
     4.7347   4.8556   4.8655   4.8881   4.9083   4.9665   5.0297   5.0328
     5.0774   5.1130   5.1155   5.1609   5.1652   5.2241   5.2403   5.3055
     5.3653   5.4431   5.5184   5.5529   5.5724   5.5942   5.6142   5.6435
     5.7634   5.8331   5.8549   5.8681   5.9040   5.9847   5.9918   6.0265
     6.0655   6.0714   6.1149   6.1466   6.1843   6.2007   6.2390   6.2860
     6.3555   6.3855   6.4559   6.4824   6.4884   6.5118   6.5377   6.5690
     6.6293   6.7340   6.7523   6.7825   6.7865   6.8633   6.9045   6.9552
     6.9868   7.0807   7.0953   7.1280   7.2191   7.2295   7.2447   7.2897
     7.3474   7.3530   7.3685   7.4102   7.4332   7.5023   7.5332   7.5680
     7.6605   7.7005   7.7136   7.7236   7.7599   7.7773   7.8281   7.8464
     7.8502   7.9812   8.0259   8.0925   8.0952   8.0986   8.1317   8.2627
     8.3108   8.3522   8.3604   8.4545   8.4629   8.5334   8.6000   8.6220
     8.6399   8.6889   8.7165   8.7810   8.7997   8.8614   8.8635   8.8762
     8.8997   8.9100   8.9327   9.0081   9.0390   9.0401   9.0716   9.1186
     9.1348   9.1828   9.2279   9.2657   9.3254   9.3624   9.4271   9.4272
     9.4290   9.4674   9.4968   9.5019   9.5322   9.5455   9.5548   9.5913
     9.5946   9.6371   9.6410   9.6689   9.7332   9.7462   9.7642   9.8721
     9.8784   9.9061   9.9148   9.9529   9.9684   9.9774  10.0221  10.0340
    10.0654  10.0916  10.1367  10.1490  10.1909  10.2045  10.2151  10.2900
    10.3151  10.3697  10.3734  10.3816  10.3956  10.4470  10.4551  10.5652
    10.5814  10.6251  10.6520  10.6817  10.6863  10.7032  10.7198  10.7625
    10.7808  10.7902  10.8104  10.8206  10.8512  10.8540  10.9497  10.9914
    10.9923  11.0180  11.0835  11.1151  11.1371  11.1809  11.1842  11.2076
    11.2118  11.2160  11.2721  11.2768  11.3052  11.3116  11.3323  11.3526
    11.3567  11.3689  11.3838  11.4087  11.4550  11.4659  11.4891  11.5324
    11.5751  11.5933  11.6418  11.6491  11.6917  11.6943  11.7212  11.7431
    11.8055  11.8397  11.9070  11.9303  11.9544  11.9807  11.9910  12.0105
    12.0133  12.0529  12.1006  12.1017  12.1450  12.1578  12.1838  12.2355
    12.3145  12.3362  12.3909  12.3976  12.4814  12.4917  12.5040  12.5795
    12.6026  12.6135  12.6253  12.6463  12.6787  12.6865  12.6963  12.7498
    12.7663  12.8646  12.8846  12.9121  12.9236  12.9266  12.9380  12.9601
    13.0201  13.0895  13.1183  13.1360  13.1813  13.1928  13.1983  13.2611
    13.2644  13.2680  13.3503  13.3684  13.3949  13.4069  13.4699  13.5102
    13.5548  13.5557  13.5705  13.6333  13.6502  13.7098  13.7189  13.7395
    13.7810  13.8240  13.8783  13.8901  13.9067  13.9239  13.9671  14.0225
    14.0432  14.0520  14.1427  14.1505  14.2006  14.2066  14.2141  14.2699
    14.3360  14.3405  14.3934  14.4085  14.4526  14.4536  14.4691  14.5212
    14.5309  14.5597  14.5926  14.6417  14.6604  14.7285  14.7395  14.7586
    14.7789  14.7949  14.8160  14.9287  14.9404  14.9455  14.9669  14.9812
    15.0586  15.0731  15.0755  15.0839  15.1152  15.1235  15.1579  15.2027
    15.2238  15.2320  15.2423  15.2826  15.3654  15.3674  15.4101  15.4877
    15.5068  15.5541  15.5641  15.5765  15.5997  15.6032  15.6711  15.6738
    15.7148  15.7539  15.7551  15.8163

          k = 0.0000 0.0000 0.0117 ( 73667 PWs)   bands (ev):

   -21.1238 -21.0703 -20.3587 -19.9541 -19.8778 -19.7788 -19.3151 -19.2845
   -19.2027 -18.7162 -18.6950 -18.2388 -17.8420 -17.6318 -17.4094 -17.1860
   -16.9275 -16.3887 -16.1783 -16.0592 -16.0139 -15.2244 -15.1980 -14.9978
   -14.7584 -14.6417 -14.6185 -14.4669 -14.1287 -14.0104 -13.4324 -13.2236
   -12.7911 -12.5886 -12.2247 -12.0945 -12.0261 -11.9390 -11.7038 -11.2881
   -11.2714 -10.7607 -10.5169 -10.5054 -10.3426 -10.1284  -9.8526  -9.7594
    -9.5385  -9.3696  -9.2954  -9.1843  -9.1448  -9.1124  -8.8997  -8.8801
    -8.8076  -8.7746  -8.6718  -8.4195  -8.3902  -8.3126  -8.2829  -8.2357
    -8.1427  -8.0684  -8.0002  -7.9997  -7.8080  -7.7088  -7.7020  -7.6390
    -7.6038  -7.4109  -7.2809  -7.2016  -7.0946  -7.0383  -6.9737  -6.9652
    -6.6942  -6.4464  -6.4149  -5.9141  -5.8517  -5.6515  -5.6371  -5.6332
    -5.5401  -5.4244  -5.1287  -4.7877  -4.7398  -4.0893  -4.0031  -3.8753
    -3.7637  -2.5028  -2.4781  -1.6782  -1.6607  -0.7816  -0.5109  -0.5002
    -0.2279   0.1787   0.5446   0.7651   0.9776   1.0461   1.1799   1.2207
     1.4098   1.5352   1.6000   1.9304   1.9543   2.1739   2.4663   2.4680
     2.5041   2.5223   2.5578   2.5649   2.6030   2.7123   2.7999   2.8722
     2.9843   3.1404   3.2282   3.2607   3.3277   3.3827   3.4334   3.5315
     3.5701   3.5918   3.6538   3.6649   3.6710   3.7469   3.8414   3.9388
     3.9458   4.1075   4.1169   4.1329   4.2457   4.2650   4.3467   4.3584
     4.3843   4.4086   4.4197   4.4577   4.5605   4.5990   4.6242   4.6265
     4.7333   4.8072   4.8750   4.8823   4.9500   4.9586   5.0398   5.0424
     5.0609   5.1263   5.1672   5.1781   5.1953   5.2752   5.3038   5.3105
     5.3777   5.4445   5.5137   5.5308   5.5559   5.5987   5.6554   5.6940
     5.7474   5.7996   5.8309   5.8558   5.8672   5.9939   5.9962   6.0354
     6.0831   6.1053   6.1226   6.1272   6.1887   6.2102   6.2379   6.3464
     6.3921   6.4063   6.4615   6.4633   6.5318   6.5379   6.5813   6.6284
     6.6677   6.6827   6.7427   6.7614   6.7817   6.8018   6.8641   6.9640
     6.9975   7.0840   7.0962   7.1665   7.1860   7.2224   7.2367   7.3169
     7.3561   7.3767   7.4076   7.4460   7.4515   7.5004   7.5520   7.6032
     7.6767   7.6866   7.7070   7.7155   7.7308   7.7542   7.8352   7.8452
     7.8799   7.9584   8.0454   8.0608   8.1030   8.1032   8.1173   8.2137
     8.3224   8.3534   8.3808   8.3980   8.4744   8.5206   8.5337   8.6135
     8.6630   8.6632   8.6636   8.7084   8.7369   8.8230   8.8381   8.8466
     8.8908   8.9307   8.9347   8.9885   9.0107   9.0412   9.0432   9.1298
     9.1453   9.1524   9.1762   9.2537   9.2680   9.3408   9.3740   9.4251
     9.4505   9.4531   9.4827   9.5028   9.5183   9.5253   9.5682   9.5891
     9.6253   9.6398   9.6489   9.6663   9.6783   9.7234   9.7525   9.8044
     9.8716   9.8965   9.9372   9.9496   9.9656   9.9941  10.0283  10.0447
    10.0760  10.0952  10.1070  10.1250  10.1700  10.2171  10.2488  10.2628
    10.3295  10.3304  10.3458  10.3884  10.4030  10.4048  10.4836  10.5966
    10.5979  10.6085  10.6671  10.6805  10.6885  10.7417  10.7441  10.7548
    10.7790  10.7920  10.8182  10.8242  10.8377  10.8717  10.9635  11.0109
    11.0425  11.0449  11.0450  11.0465  11.1167  11.1550  11.1660  11.2060
    11.2398  11.2443  11.2590  11.2606  11.2657  11.2723  11.3214  11.3393
    11.3676  11.3743  11.4175  11.4252  11.4603  11.4673  11.5285  11.5348
    11.5403  11.5598  11.6340  11.6711  11.6969  11.7072  11.7493  11.7581
    11.7787  11.8210  11.8933  11.9477  11.9549  11.9926  12.0245  12.0500
    12.0531  12.0644  12.1022  12.1039  12.1169  12.2097  12.2437  12.2479
    12.2893  12.3574  12.3624  12.4313  12.4388  12.4643  12.5154  12.5880
    12.5933  12.6382  12.6463  12.6933  12.7254  12.7405  12.7518  12.7830
    12.8245  12.8505  12.9074  12.9186  12.9295  12.9351  12.9689  12.9902
    13.0499  13.0517  13.1521  13.1811  13.1852  13.1899  13.2059  13.2197
    13.2810  13.3183  13.3412  13.3550  13.4228  13.4317  13.4780  13.4979
    13.5229  13.5272  13.5332  13.6254  13.7063  13.7273  13.7314  13.7819
    13.8151  13.8297  13.8773  13.8948  13.9077  13.9811  13.9864  14.0100
    14.0303  14.1153  14.1516  14.1723  14.1748  14.1897  14.2033  14.2677
    14.3361  14.3755  14.4087  14.4141  14.4525  14.4616  14.5000  14.5073
    14.5086  14.5891  14.6065  14.6300  14.6500  14.6958  14.7384  14.7388
    14.7629  14.7664  14.8600  14.8690  14.9076  14.9257  14.9513  14.9835
    15.0294  15.0377  15.0723  15.0859  15.0893  15.1037  15.1325  15.1966
    15.2057  15.2082  15.2454  15.2564  15.3681  15.3746  15.4220  15.5351
    15.5358  15.5523  15.5667  15.6298  15.6302  15.6468  15.6577  15.7169
    15.7266  15.7274  15.7627  15.7975

          k = 0.0000 0.0000 0.0141 ( 73613 PWs)   bands (ev):

   -21.1179 -21.0640 -20.3623 -19.9936 -19.9160 -19.7798 -19.2816 -19.2270
   -19.1841 -18.7338 -18.7274 -18.2058 -17.8280 -17.6122 -17.4055 -17.1736
   -16.9472 -16.3752 -16.2075 -16.1311 -16.0752 -15.2630 -15.2551 -14.9741
   -14.7323 -14.5625 -14.5452 -14.4485 -14.0961 -14.0071 -13.4431 -13.2269
   -12.8311 -12.6204 -12.1902 -12.0653 -12.0517 -11.9101 -11.6815 -11.2689
   -11.2471 -10.8112 -10.5870 -10.4801 -10.3519 -10.1258  -9.8747  -9.7580
    -9.5252  -9.3972  -9.2792  -9.1774  -9.1758  -9.1048  -8.9561  -8.9381
    -8.8307  -8.8020  -8.6761  -8.4065  -8.3556  -8.3155  -8.2782  -8.1869
    -8.1011  -8.1007  -7.9564  -7.9557  -7.8440  -7.7502  -7.7187  -7.6539
    -7.5931  -7.3664  -7.2613  -7.2197  -7.0564  -6.9683  -6.9666  -6.9466
    -6.6879  -6.4633  -6.4533  -5.8757  -5.8616  -5.6661  -5.6429  -5.6270
    -5.5530  -5.4019  -5.1139  -4.7944  -4.7326  -4.1029  -3.9971  -3.9191
    -3.7983  -2.5857  -2.5493  -1.6108  -1.5809  -0.7706  -0.4601  -0.4526
    -0.2427   0.2057   0.5206   0.7628   0.9860   1.0549   1.1822   1.1864
     1.3973   1.5441   1.6017   1.9237   1.9376   2.1776   2.4776   2.4983
     2.5082   2.5129   2.5320   2.5365   2.5821   2.7221   2.8089   2.8456
     2.9553   3.0717   3.2354   3.2639   3.3820   3.4323   3.4574   3.4914
     3.5060   3.5571   3.5770   3.6382   3.6737   3.8003   3.8462   3.9489
     4.0326   4.0421   4.1378   4.1407   4.2025   4.2543   4.2839   4.3228
     4.3421   4.4125   4.4339   4.4666   4.5524   4.6335   4.6549   4.7010
     4.7333   4.7510   4.8284   4.8907   4.9311   5.0132   5.0343   5.0675
     5.0759   5.1237   5.1758   5.2192   5.2263   5.2893   5.3407   5.4008
     5.4307   5.4520   5.4696   5.4933   5.5653   5.5831   5.7020   5.7274
     5.7451   5.7705   5.7759   5.8342   5.9372   5.9976   6.0042   6.0223
     6.0825   6.0827   6.1485   6.1499   6.1973   6.2145   6.2733   6.4041
     6.4128   6.4223   6.4381   6.5089   6.5197   6.5876   6.6101   6.6494
     6.6636   6.7012   6.7141   6.7500   6.7887   6.7974   6.8245   6.9748
     7.0113   7.0810   7.1019   7.1519   7.2087   7.2194   7.2204   7.3412
     7.3624   7.3910   7.4127   7.4526   7.5179   7.5212   7.5442   7.6329
     7.6564   7.6981   7.7009   7.7104   7.7246   7.7385   7.8434   7.8494
     7.8918   7.9724   7.9951   8.0745   8.0754   8.1177   8.1635   8.1681
     8.3245   8.3279   8.3354   8.3552   8.4841   8.5007   8.5173   8.5360
     8.5951   8.6251   8.6560   8.6825   8.7339   8.7672   8.7804   8.8315
     8.8867   8.9407   8.9576   8.9820   9.0068   9.0363   9.0466   9.0800
     9.1434   9.1481   9.1605   9.1656   9.2207   9.2835   9.3700   9.4229
     9.4354   9.4357   9.4472   9.4887   9.5029   9.5195   9.5500   9.5640
     9.6197   9.6302   9.6606   9.6918   9.7075   9.7333   9.7433   9.7696
     9.8157   9.8189   9.8517   9.9726   9.9847   9.9983  10.0148  10.0635
    10.0666  10.0764  10.1100  10.1131  10.1894  10.2456  10.2463  10.2882
    10.3121  10.3361  10.3614  10.3654  10.4302  10.4666  10.4725  10.4921
    10.5963  10.6154  10.6342  10.6661  10.6811  10.7152  10.7377  10.7735
    10.8094  10.8162  10.8572  10.8682  10.9314  10.9348  10.9618  10.9741
    10.9783  11.0293  11.0819  11.0950  11.0957  11.1092  11.1132  11.1775
    11.2121  11.2133  11.2143  11.2479  11.2634  11.3004  11.3179  11.3258
    11.3659  11.4005  11.4301  11.4301  11.4909  11.5109  11.5166  11.5416
    11.5594  11.5851  11.6184  11.6918  11.7059  11.7148  11.7293  11.7732
    11.8298  11.8458  11.8512  11.9277  11.9278  11.9821  11.9858  12.0396
    12.0711  12.1155  12.1280  12.1994  12.2015  12.2132  12.2257  12.2576
    12.3201  12.3748  12.3898  12.4002  12.4068  12.4849  12.4918  12.5496
    12.6044  12.6068  12.6306  12.7283  12.7746  12.8158  12.8296  12.8498
    12.8533  12.9056  12.9169  12.9256  12.9419  12.9473  12.9905  13.0109
    13.0482  13.0789  13.1530  13.1823  13.2203  13.2255  13.2409  13.2489
    13.2834  13.3001  13.3608  13.3740  13.4469  13.4512  13.4739  13.4922
    13.4995  13.5080  13.5184  13.6306  13.7437  13.7458  13.7619  13.8121
    13.8350  13.8425  13.8689  13.8878  13.9063  13.9763  14.0091  14.0501
    14.0632  14.1172  14.1488  14.1623  14.1863  14.1939  14.2052  14.2772
    14.3338  14.3482  14.4109  14.4187  14.4245  14.4741  14.5000  14.5372
    14.5535  14.5552  14.6277  14.6327  14.6484  14.6674  14.7179  14.7461
    14.7475  14.7573  14.8086  14.8569  14.9062  14.9186  14.9538  14.9880
    15.0041  15.0127  15.0442  15.0588  15.0680  15.1107  15.1344  15.1901
    15.1929  15.2140  15.2181  15.2783  15.3479  15.3865  15.4320  15.5303
    15.5707  15.5767  15.5895  15.6379  15.6596  15.6659  15.6848  15.7230
    15.7331  15.7435  15.7859  15.7895

          k = 0.0000 0.0000 0.0164 ( 73623 PWs)   bands (ev):

   -21.1110 -21.0565 -20.3670 -20.0357 -19.9529 -19.7775 -19.2633 -19.1672
   -19.1489 -18.7728 -18.7393 -18.1740 -17.8139 -17.5888 -17.3989 -17.1601
   -16.9689 -16.3649 -16.2531 -16.2026 -16.1256 -15.3162 -15.3063 -14.9486
   -14.7097 -14.4806 -14.4616 -14.4249 -14.0774 -13.9873 -13.4559 -13.2318
   -12.8756 -12.6525 -12.1510 -12.0899 -12.0199 -11.8788 -11.6581 -11.2663
   -11.2019 -10.8674 -10.6631 -10.4569 -10.3561 -10.1306  -9.8921  -9.7718
    -9.5092  -9.4155  -9.2820  -9.2000  -9.1692  -9.0958  -9.0340  -8.9704
    -8.8733  -8.7940  -8.6812  -8.4187  -8.3195  -8.3115  -8.2817  -8.1375
    -8.1302  -8.0733  -7.9057  -7.9014  -7.8880  -7.7965  -7.7181  -7.6591
    -7.5808  -7.3197  -7.2481  -7.2396  -7.0390  -6.9535  -6.9076  -6.8967
    -6.6809  -6.5113  -6.4597  -5.8735  -5.8406  -5.6832  -5.6546  -5.6167
    -5.5683  -5.3745  -5.0958  -4.8018  -4.7244  -4.1210  -3.9908  -3.9688
    -3.8354  -2.6687  -2.6215  -1.5432  -1.5013  -0.7577  -0.4019  -0.4009
    -0.2548   0.2346   0.4952   0.7562   0.9960   1.0652   1.1393   1.1939
     1.3856   1.5545   1.6038   1.8925   1.9462   2.1816   2.4330   2.4709
     2.4903   2.5233   2.5394   2.5418   2.6199   2.7329   2.8000   2.8194
     2.9479   3.0032   3.2419   3.2628   3.3616   3.4280   3.4428   3.4606
     3.5001   3.5331   3.5800   3.6068   3.6840   3.8532   3.8685   3.9625
     3.9788   4.1196   4.1364   4.1494   4.1573   4.2083   4.2640   4.2643
     4.2788   4.3822   4.4772   4.5039   4.5851   4.6414   4.6817   4.7083
     4.7340   4.7638   4.7826   4.9025   4.9208   4.9694   5.1043   5.1069
     5.1086   5.1341   5.1656   5.1949   5.2514   5.3639   5.3994   5.4129
     5.4229   5.4632   5.4930   5.5273   5.5487   5.6140   5.6664   5.6704
     5.7075   5.8109   5.8263   5.8585   5.9866   5.9927   6.0042   6.0274
     6.0484   6.0809   6.1675   6.1717   6.2041   6.2593   6.3013   6.4099
     6.4268   6.4349   6.4790   6.4966   6.5495   6.5785   6.6221   6.6421
     6.6631   6.6725   6.7427   6.7819   6.7989   6.8253   6.8298   6.9873
     7.0269   7.0815   7.1112   7.1170   7.1884   7.2163   7.2468   7.3625
     7.3699   7.3846   7.4352   7.4573   7.5282   7.5513   7.5901   7.5911
     7.6572   7.6708   7.6716   7.7242   7.7320   7.7916   7.8526   7.8654
     7.8868   7.9554   8.0167   8.0475   8.0725   8.1135   8.1357   8.2165
     8.2322   8.2569   8.3499   8.3523   8.4223   8.4737   8.5269   8.5282
     8.5386   8.5639   8.6229   8.6305   8.6980   8.7366   8.7895   8.8114
     8.8789   8.8925   8.9832   8.9956   9.0045   9.0252   9.0493   9.0604
     9.0628   9.1136   9.1519   9.1779   9.1851   9.2596   9.3383   9.3705
     9.3816   9.4179   9.4238   9.4430   9.4512   9.5536   9.5613   9.5660
     9.5816   9.6257   9.6304   9.6505   9.7152   9.7438   9.7497   9.7593
     9.7933   9.7990   9.8249   9.9179   9.9565   9.9623   9.9801  10.0447
    10.0534  10.0675  10.1567  10.1725  10.2178  10.2316  10.2523  10.2738
    10.3088  10.3672  10.3760  10.3789  10.4062  10.4563  10.5008  10.5428
    10.5531  10.5850  10.6150  10.6479  10.6796  10.7026  10.7313  10.7722
    10.8468  10.8780  10.8830  10.8837  10.8969  10.9588  10.9603  10.9877
    11.0053  11.0060  11.0670  11.0715  11.0844  11.1189  11.1307  11.1523
    11.1577  11.1846  11.1914  11.2368  11.2509  11.2723  11.3205  11.3750
    11.3794  11.4255  11.4458  11.4675  11.4733  11.5132  11.5573  11.5752
    11.5994  11.6055  11.6057  11.6779  11.7188  11.7293  11.7718  11.7860
    11.7972  11.8498  11.8578  11.8867  11.9023  11.9902  11.9972  12.0161
    12.1263  12.1572  12.1592  12.1646  12.2141  12.2319  12.2795  12.2994
    12.3299  12.3485  12.3698  12.4194  12.4660  12.4705  12.5261  12.5286
    12.5722  12.6157  12.6240  12.7111  12.7544  12.8435  12.8812  12.8887
    12.9295  12.9325  12.9412  12.9826  12.9847  12.9850  13.0029  13.0522
    13.0923  13.1210  13.1475  13.1938  13.2274  13.2570  13.2733  13.2737
    13.3098  13.3134  13.3857  13.3896  13.4038  13.4280  13.4832  13.5034
    13.5048  13.5432  13.5604  13.6328  13.7536  13.7712  13.7713  13.8118
    13.8353  13.8628  13.8943  13.8947  13.9194  13.9428  14.0529  14.0711
    14.0968  14.0969  14.1215  14.1787  14.1883  14.2227  14.2451  14.2733
    14.2854  14.3316  14.3514  14.4257  14.4420  14.4609  14.5093  14.5405
    14.5594  14.5862  14.5923  14.6409  14.6561  14.6596  14.7046  14.7527
    14.7580  14.7663  14.7962  14.8024  14.8802  14.9243  14.9381  14.9652
    15.0081  15.0131  15.0253  15.0507  15.0706  15.1474  15.1488  15.1936
    15.1944  15.2062  15.2226  15.3002  15.3302  15.3842  15.4535  15.5112
    15.5844  15.5928  15.6079  15.6410  15.6428  15.6786  15.6944  15.7099
    15.7283  15.7614  15.7870  15.7993

          k = 0.0000 0.0000 0.0188 ( 73613 PWs)   bands (ev):

   -21.1031 -21.0479 -20.3733 -20.0788 -19.9877 -19.7730 -19.2564 -19.1055
   -19.1014 -18.8115 -18.7510 -18.1439 -17.8005 -17.5615 -17.3889 -17.1455
   -16.9920 -16.3694 -16.3163 -16.2607 -16.1623 -15.3804 -15.3533 -14.9212
   -14.6886 -14.4243 -14.3715 -14.3700 -14.0749 -13.9492 -13.4705 -13.2391
   -12.9236 -12.6834 -12.1232 -12.1077 -11.9761 -11.8457 -11.6335 -11.2639
   -11.1538 -10.9283 -10.7437 -10.4436 -10.3475 -10.1456  -9.9011  -9.8028
    -9.4914  -9.4209  -9.3067  -9.2199  -9.1598  -9.1122  -9.0855  -9.0119
    -8.8840  -8.7836  -8.6876  -8.4379  -8.3250  -8.2898  -8.2721  -8.1695
    -8.0778  -8.0637  -7.9362  -7.8479  -7.8413  -7.8403  -7.7036  -7.6583
    -7.5672  -7.2812  -7.2517  -7.2425  -7.0362  -6.9333  -6.8554  -6.8236
    -6.6733  -6.5587  -6.4645  -5.8875  -5.8093  -5.7027  -5.6683  -5.6068
    -5.5857  -5.3421  -5.0741  -4.8095  -4.7153  -4.1448  -4.0252  -3.9828
    -3.8729  -2.7519  -2.6942  -1.4758  -1.4222  -0.7428  -0.3534  -0.3371
    -0.2561   0.2649   0.4688   0.7444   1.0076   1.0771   1.0931   1.2025
     1.3755   1.5666   1.6061   1.8608   1.9561   2.1858   2.3695   2.4063
     2.5042   2.5353   2.5512   2.5631   2.6689   2.7436   2.7468   2.8316
     2.9357   2.9513   3.2413   3.2447   3.3047   3.3678   3.3710   3.4421
     3.5032   3.5836   3.6060   3.6316   3.6960   3.8611   3.9201   3.9292
     3.9847   4.0702   4.1334   4.1589   4.1758   4.1878   4.2088   4.2354
     4.2775   4.3354   4.4895   4.5729   4.6245   4.6344   4.6488   4.7043
     4.7281   4.7358   4.8577   4.8762   4.9243   4.9729   5.0898   5.1305
     5.1498   5.1499   5.1922   5.2170   5.2856   5.3421   5.3665   5.4333
     5.4829   5.5087   5.5106   5.5691   5.5851   5.6046   5.6367   5.6480
     5.6943   5.7854   5.9122   5.9408   5.9581   5.9829   6.0070   6.0090
     6.0812   6.1091   6.1896   6.1966   6.2087   6.2874   6.3179   6.4265
     6.4323   6.4455   6.4681   6.5055   6.5276   6.5857   6.6369   6.6456
     6.6515   6.6711   6.7564   6.7872   6.8258   6.8788   6.9141   7.0016
     7.0374   7.0793   7.0937   7.1236   7.1480   7.2115   7.2666   7.3627
     7.3804   7.3812   7.4404   7.5062   7.5184   7.5505   7.5712   7.6284
     7.6400   7.6426   7.6615   7.7192   7.7424   7.8637   7.8707   7.8928
     7.8948   7.9275   8.0243   8.0329   8.0464   8.0650   8.1303   8.1602
     8.1980   8.2825   8.3216   8.3656   8.3795   8.4290   8.4651   8.4965
     8.5378   8.5778   8.5801   8.5816   8.6332   8.6902   8.7834   8.7871
     8.8652   8.8745   8.9365   9.0015   9.0020   9.0072   9.0350   9.0670
     9.0719   9.0747   9.0779   9.2196   9.2240   9.2452   9.2596   9.3002
     9.3152   9.3872   9.4005   9.4265   9.4265   9.5071   9.5345   9.5722
     9.5779   9.5846   9.5960   9.6242   9.6525   9.6966   9.7419   9.7883
     9.7890   9.8259   9.8578   9.8608   9.8907   9.9188   9.9928  10.0594
    10.0626  10.0723  10.1597  10.1878  10.2190  10.2328  10.2520  10.2538
    10.2690  10.3515  10.3741  10.3755  10.4224  10.4652  10.5330  10.5464
    10.5874  10.6212  10.6326  10.6402  10.6486  10.7100  10.7583  10.7644
    10.7870  10.8670  10.8726  10.9025  10.9037  10.9492  10.9578  10.9619
    11.0003  11.0254  11.0428  11.0517  11.0750  11.1127  11.1181  11.1256
    11.1507  11.1887  11.2384  11.2594  11.2730  11.3000  11.3253  11.3956
    11.4165  11.4185  11.4554  11.4636  11.4980  11.5545  11.5645  11.5853
    11.5996  11.6182  11.6512  11.6943  11.7050  11.7266  11.7518  11.7673
    11.8203  11.8500  11.8622  11.8678  11.9252  12.0038  12.0062  12.0713
    12.1051  12.1358  12.1786  12.1883  12.2079  12.2320  12.2736  12.2960
    12.3339  12.3705  12.4130  12.4141  12.5105  12.5118  12.5173  12.5707
    12.5746  12.5870  12.6403  12.6957  12.7509  12.8356  12.8630  12.9074
    12.9199  12.9594  12.9818  13.0436  13.0730  13.0771  13.0845  13.0978
    13.1340  13.1415  13.1964  13.2036  13.2119  13.2656  13.2974  13.3094
    13.3190  13.3364  13.3588  13.3894  13.4221  13.4242  13.5143  13.5376
    13.5492  13.5768  13.5979  13.6311  13.7269  13.7634  13.7904  13.8249
    13.8535  13.8591  13.8923  13.9103  13.9558  13.9601  14.0350  14.0615
    14.1056  14.1240  14.1733  14.1766  14.2008  14.2069  14.2303  14.2754
    14.2905  14.2913  14.3357  14.4124  14.4185  14.4584  14.5104  14.5157
    14.5708  14.5916  14.6027  14.6433  14.6553  14.6884  14.7045  14.7170
    14.7565  14.7626  14.7745  14.8126  14.8741  14.9003  14.9333  14.9447
    14.9894  15.0083  15.0314  15.0779  15.1352  15.1499  15.1918  15.2043
    15.2171  15.2216  15.2421  15.3209  15.3220  15.3609  15.4898  15.4907
    15.5657  15.6035  15.6083  15.6131  15.6301  15.6451  15.6810  15.6827
    15.7644  15.7702  15.7864  15.8265

          k = 0.0000 0.0000 0.0211 ( 73583 PWs)   bands (ev):

   -21.0942 -21.0381 -20.3815 -20.1223 -20.0200 -19.7667 -19.2549 -19.0485
   -19.0425 -18.8496 -18.7618 -18.1158 -17.7886 -17.5303 -17.3748 -17.1303
   -17.0164 -16.4130 -16.3905 -16.2806 -16.1906 -15.4467 -15.4033 -14.8921
   -14.6679 -14.3984 -14.2803 -14.2772 -14.0796 -13.9021 -13.4867 -13.2496
   -12.9745 -12.7121 -12.1578 -12.0606 -11.9277 -11.8109 -11.6080 -11.2623
   -11.1043 -10.9925 -10.8271 -10.4447 -10.3224 -10.1715  -9.9006  -9.8476
    -9.4727  -9.4168  -9.3493  -9.2377  -9.1878  -9.1492  -9.0737  -9.0648
    -8.8642  -8.7712  -8.6956  -8.4617  -8.3324  -8.3004  -8.2356  -8.2037
    -8.0695  -8.0270  -7.9863  -7.8811  -7.7835  -7.7830  -7.6727  -7.6535
    -7.5523  -7.2947  -7.2444  -7.2123  -7.0399  -6.9062  -6.7992  -6.7492
    -6.6655  -6.6053  -6.4664  -5.9036  -5.7818  -5.7246  -5.6839  -5.6054
    -5.5977  -5.3051  -5.0488  -4.8173  -4.7054  -4.1757  -4.0854  -3.9753
    -3.9087  -2.8350  -2.7670  -1.4092  -1.3436  -0.7258  -0.3323  -0.2662
    -0.2249   0.2961   0.4416   0.7271   1.0206   1.0445   1.0906   1.2121
     1.3678   1.5803   1.6088   1.8284   1.9672   2.1889   2.3089   2.3429
     2.5189   2.5489   2.5601   2.5841   2.6922   2.7236   2.7522   2.8444
     2.8705   2.9593   3.1935   3.2047   3.2438   3.3176   3.3447   3.4120
     3.5018   3.5872   3.6680   3.6986   3.7096   3.8684   3.8729   3.9658
     4.0065   4.0265   4.0601   4.1463   4.1568   4.1690   4.1865   4.2885
     4.3006   4.3093   4.5034   4.5624   4.6233   4.6422   4.6560   4.6866
     4.7305   4.7459   4.8363   4.9321   4.9419   5.0046   5.0303   5.1361
     5.1710   5.2036   5.2133   5.2826   5.2910   5.3162   5.3431   5.4679
     5.4692   5.5185   5.5422   5.5957   5.5961   5.6074   5.6369   5.6812
     5.7611   5.7703   5.9187   5.9404   5.9979   6.0120   6.0154   6.0193
     6.0873   6.1821   6.2115   6.2197   6.2244   6.2839   6.3246   6.3922
     6.4266   6.4652   6.4833   6.5035   6.5249   6.5387   6.6384   6.6682
     6.6825   6.6945   6.7722   6.7731   6.9104   6.9472   6.9877   7.0176
     7.0414   7.0513   7.1022   7.1067   7.1385   7.2063   7.2714   7.3231
     7.3938   7.4000   7.4384   7.5061   7.5349   7.5506   7.5893   7.5913
     7.6225   7.6279   7.6957   7.7074   7.7633   7.8763   7.9018   7.9085
     7.9388   7.9437   7.9453   7.9821   8.0141   8.0195   8.1493   8.1751
     8.1846   8.2232   8.3502   8.3564   8.3804   8.3820   8.4174   8.4716
     8.5209   8.5282   8.5371   8.5815   8.5845   8.6453   8.7231   8.7592
     8.8429   8.8699   8.8996   8.9764   8.9835   9.0022   9.0168   9.0449
     9.0655   9.0762   9.0781   9.1696   9.2279   9.2296   9.2526   9.2684
     9.2780   9.3281   9.3808   9.3967   9.4340   9.4633   9.4691   9.5125
     9.5236   9.5513   9.5822   9.5981   9.6603   9.6643   9.6804   9.7273
     9.8074   9.8364   9.8444   9.8533   9.8960   9.9558  10.0302  10.0317
    10.0777  10.0886  10.1057  10.1435  10.1747  10.1979  10.2419  10.2835
    10.3085  10.3458  10.3665  10.3870  10.4008  10.4767  10.5051  10.5292
    10.6151  10.6296  10.6461  10.6992  10.7097  10.7197  10.7528  10.7534
    10.7743  10.8245  10.8422  10.8706  10.9131  10.9309  10.9347  10.9445
    10.9658  10.9743  11.0537  11.0724  11.0762  11.1138  11.1152  11.1398
    11.1849  11.2074  11.2592  11.2726  11.3313  11.3375  11.3455  11.4134
    11.4580  11.4595  11.4635  11.4732  11.4977  11.5448  11.5701  11.5956
    11.6066  11.6370  11.6397  11.6881  11.6898  11.7110  11.7331  11.7937
    11.8490  11.8618  11.8831  11.8897  11.9758  11.9995  12.0141  12.0775
    12.1037  12.1099  12.1440  12.1716  12.2242  12.2282  12.2950  12.3342
    12.3465  12.3983  12.4072  12.4425  12.4969  12.5025  12.5070  12.5504
    12.6120  12.6576  12.6593  12.7301  12.7842  12.7925  12.8853  12.8993
    12.9404  12.9959  13.0139  13.0405  13.1018  13.1246  13.1550  13.1668
    13.1928  13.2011  13.2098  13.2237  13.2675  13.2717  13.2846  13.2908
    13.3626  13.3631  13.3766  13.4289  13.4388  13.4478  13.5308  13.5590
    13.5778  13.6000  13.6259  13.6652  13.7085  13.7681  13.7755  13.8125
    13.8753  13.8808  13.8886  13.9253  13.9868  13.9927  14.0260  14.0850
    14.0910  14.1254  14.1609  14.1897  14.2072  14.2203  14.2264  14.2274
    14.2924  14.3195  14.3415  14.3872  14.4051  14.4401  14.4966  14.5540
    14.5557  14.5838  14.5942  14.6587  14.6740  14.6798  14.6833  14.7042
    14.7324  14.7568  14.7656  14.8159  14.8561  14.9222  14.9610  14.9652
    14.9791  14.9996  15.0508  15.0999  15.1671  15.1989  15.2021  15.2255
    15.2560  15.2564  15.2763  15.3254  15.3408  15.3521  15.4608  15.5313
    15.5500  15.5501  15.5935  15.5952  15.5995  15.6347  15.6691  15.6927
    15.7564  15.7603  15.8057  15.8416

          k = 0.0000 0.0000 0.0235 ( 73607 PWs)   bands (ev):

   -21.0843 -21.0272 -20.3919 -20.1656 -20.0491 -19.7591 -19.2560 -18.9946
   -18.9794 -18.8858 -18.7700 -18.0899 -17.7788 -17.4955 -17.3566 -17.1145
   -17.0419 -16.4834 -16.4696 -16.2740 -16.2156 -15.5146 -15.4556 -14.8615
   -14.6470 -14.3762 -14.1838 -14.1814 -14.0852 -13.8512 -13.5044 -13.2640
   -13.0275 -12.7375 -12.1935 -12.0106 -11.8753 -11.7747 -11.5814 -11.2627
   -11.0586 -11.0583 -10.9084 -10.4551 -10.2870 -10.2066  -9.9002  -9.8920
    -9.4562  -9.4145  -9.4015  -9.2675  -9.2404  -9.1374  -9.1204  -9.0606
    -8.8283  -8.7572  -8.7051  -8.4887  -8.3420  -8.3119  -8.2381  -8.2002
    -8.0862  -8.0369  -7.9819  -7.9183  -7.7343  -7.7138  -7.6461  -7.6238
    -7.5364  -7.3211  -7.2524  -7.1608  -7.0468  -6.8731  -6.7445  -6.6736
    -6.6574  -6.6510  -6.4632  -5.9219  -5.7580  -5.7488  -5.7015  -5.6272
    -5.5896  -5.2642  -5.0200  -4.8246  -4.6948  -4.2148  -4.1499  -3.9676
    -3.9409  -2.9180  -2.8396  -1.3436  -1.2656  -0.7069  -0.3362  -0.1902
    -0.1631   0.3276   0.4141   0.7043   0.9944   1.0351   1.1057   1.2226
     1.3629   1.5956   1.6117   1.7955   1.9795   2.1866   2.2554   2.2808
     2.5337   2.5641   2.5688   2.6050   2.6387   2.7548   2.7808   2.8039
     2.8618   2.9695   3.1192   3.1259   3.1835   3.3135   3.3459   3.3650
     3.5116   3.5900   3.6951   3.7245   3.7758   3.8583   3.8715   3.9488
     3.9870   3.9886   4.0731   4.0937   4.1095   4.1709   4.1794   4.3051
     4.3051   4.3961   4.5007   4.5191   4.5809   4.6504   4.6635   4.7022
     4.7173   4.7742   4.8352   4.9681   4.9712   4.9959   5.0391   5.1267
     5.1987   5.2248   5.2297   5.2625   5.3186   5.3705   5.3726   5.4245
     5.4864   5.4875   5.5010   5.6188   5.6296   5.6402   5.6815   5.7498
     5.7758   5.8544   5.8803   5.8979   6.0178   6.0249   6.0723   6.0810
     6.1202   6.2051   6.2421   6.2571   6.2581   6.2802   6.3268   6.3392
     6.3932   6.4481   6.4947   6.5012   6.5216   6.5640   6.6273   6.6692
     6.7023   6.7510   6.7657   6.8436   6.9778   6.9959   7.0194   7.0353
     7.0413   7.0580   7.0883   7.1250   7.1557   7.2013   7.2592   7.2850
     7.4008   7.4051   7.4295   7.4755   7.5417   7.5463   7.5732   7.5988
     7.6375   7.6461   7.6634   7.7411   7.7961   7.8216   7.8604   7.8687
     7.8969   7.9379   7.9746   8.0015   8.0182   8.0330   8.1564   8.1644
     8.1816   8.2108   8.3041   8.3226   8.3821   8.3980   8.4112   8.4372
     8.4722   8.4772   8.5221   8.5300   8.5656   8.6080   8.7014   8.7294
     8.8087   8.8169   8.9029   8.9283   8.9460   8.9487   9.0310   9.0347
     9.0601   9.0680   9.0771   9.1227   9.1657   9.2063   9.2168   9.2721
     9.3019   9.3417   9.3477   9.3525   9.3859   9.4279   9.4352   9.4419
     9.4931   9.5282   9.5354   9.5660   9.5974   9.6475   9.6678   9.7491
     9.7657   9.7791   9.8092   9.9105   9.9326   9.9686  10.0073  10.0099
    10.0376  10.0910  10.1182  10.1299  10.1843  10.2049  10.2055  10.2221
    10.3313  10.3478  10.3951  10.4100  10.4199  10.4408  10.4429  10.5544
    10.5961  10.6128  10.6592  10.6659  10.7261  10.7262  10.7717  10.7763
    10.7769  10.8168  10.8436  10.8457  10.8969  10.9163  10.9195  10.9433
    10.9452  10.9538  11.0026  11.0783  11.1105  11.1428  11.1690  11.1738
    11.2274  11.2332  11.2848  11.2861  11.3233  11.3520  11.3749  11.4308
    11.4663  11.4688  11.4947  11.5050  11.5123  11.5429  11.5560  11.5969
    11.6102  11.6217  11.6459  11.6846  11.6961  11.7245  11.7408  11.8334
    11.8517  11.8787  11.8875  11.9403  12.0007  12.0266  12.0279  12.0431
    12.0752  12.0822  12.1195  12.1445  12.2236  12.2961  12.3046  12.3838
    12.3997  12.4020  12.4055  12.4470  12.4530  12.5005  12.5123  12.5127
    12.5953  12.6943  12.7504  12.7668  12.7760  12.8799  12.9068  12.9168
    12.9483  13.0017  13.0288  13.0657  13.0974  13.1294  13.1369  13.2032
    13.2247  13.2302  13.2443  13.2538  13.2641  13.3342  13.3554  13.3721
    13.3803  13.3985  13.4273  13.4358  13.4730  13.5163  13.5169  13.5487
    13.5828  13.6149  13.6179  13.7214  13.7517  13.7659  13.7688  13.7945
    13.8517  13.9017  13.9165  13.9582  13.9915  14.0165  14.0205  14.0678
    14.1108  14.1222  14.1442  14.2121  14.2126  14.2185  14.2344  14.2370
    14.2904  14.3430  14.3496  14.3656  14.3989  14.4382  14.5178  14.5282
    14.5376  14.5851  14.6010  14.6182  14.6645  14.6897  14.6940  14.6968
    14.7074  14.7734  14.7923  14.8197  14.8389  14.9420  14.9424  14.9902
    15.0123  15.0538  15.0713  15.1162  15.1968  15.2012  15.2227  15.2589
    15.2637  15.2910  15.3166  15.3516  15.3597  15.4036  15.4331  15.4732
    15.5100  15.5708  15.5772  15.5983  15.6082  15.6199  15.6333  15.7267
    15.7268  15.7338  15.7776  15.8156

          k = 0.0000 0.0000 0.0258 ( 73582 PWs)   bands (ev):

   -21.0734 -21.0151 -20.4048 -20.2085 -20.0747 -19.7504 -19.2585 -18.9438
   -18.9376 -18.8985 -18.7727 -18.0661 -17.7713 -17.4575 -17.3342 -17.0984
   -17.0683 -16.5604 -16.5506 -16.2603 -16.2395 -15.5836 -15.5096 -14.8295
   -14.6260 -14.3543 -14.1093 -14.0848 -14.0655 -13.7983 -13.5232 -13.2827
   -13.0821 -12.7589 -12.2300 -11.9586 -11.8192 -11.7371 -11.5536 -11.2684
   -11.1214 -11.0535 -10.9506 -10.4695 -10.2483 -10.2482  -9.9545  -9.8781
    -9.4784  -9.4371  -9.4236  -9.3081  -9.2520  -9.1737  -9.1244  -9.0462
    -8.7854  -8.7426  -8.7158  -8.5171  -8.3542  -8.3233  -8.2717  -8.1660
    -8.1098  -8.0874  -7.9515  -7.9433  -7.6962  -7.6404  -7.6368  -7.5619
    -7.5198  -7.3495  -7.2642  -7.1073  -7.0554  -6.8355  -6.6959  -6.6957
    -6.6493  -6.5970  -6.4515  -5.9425  -5.7751  -5.7374  -5.7210  -5.6510
    -5.5825  -5.2206  -4.9878  -4.8307  -4.6838  -4.2623  -4.2179  -3.9687
    -3.9598  -3.0006  -2.9118  -1.2794  -1.1885  -0.6860  -0.3472  -0.1096
    -0.0890   0.3588   0.3865   0.6760   0.9442   1.0510   1.1224   1.2339
     1.3608   1.6126   1.6150   1.7620   1.9928   2.1614   2.2200   2.2266
     2.5465   2.5787   2.5807   2.5878   2.6267   2.7411   2.7446   2.8385
     2.8786   2.9801   3.0195   3.0646   3.1253   3.3143   3.3250   3.3559
     3.5261   3.5905   3.6708   3.7410   3.8547   3.8579   3.8825   3.9082
     3.9192   4.0047   4.0565   4.0698   4.0955   4.1499   4.1895   4.3220
     4.3463   4.4403   4.4802   4.5207   4.5395   4.6364   4.6721   4.6954
     4.7144   4.7769   4.9047   4.9155   4.9973   5.0242   5.0647   5.1280
     5.1722   5.2330   5.2470   5.3149   5.3322   5.3888   5.4132   5.4144
     5.4454   5.4781   5.5127   5.6384   5.6416   5.6465   5.7646   5.7834
     5.8468   5.8490   5.8704   5.9501   6.0241   6.0357   6.0913   6.1512
     6.1845   6.1989   6.2262   6.2975   6.2981   6.3154   6.3181   6.3219
     6.3737   6.3900   6.4636   6.5259   6.5462   6.5638   6.6282   6.7079
     6.7119   6.7715   6.8267   6.9240   6.9348   7.0086   7.0287   7.0533
     7.0828   7.0968   7.1008   7.1749   7.1930   7.2011   7.2179   7.2670
     7.3649   7.3987   7.4358   7.4674   7.4980   7.5387   7.5751   7.5948
     7.6311   7.6668   7.7084   7.7175   7.7523   7.7567   7.8157   7.8423
     7.9131   7.9466   7.9571   8.0272   8.0682   8.0722   8.1128   8.1234
     8.2087   8.2436   8.2694   8.2970   8.3696   8.3768   8.3952   8.4028
     8.4118   8.4344   8.4683   8.5537   8.5700   8.5835   8.6914   8.7031
     8.7586   8.7616   8.8571   8.8977   8.9081   8.9297   8.9406   9.0291
     9.0305   9.0541   9.1086   9.1122   9.1163   9.1874   9.2000   9.2277
     9.3021   9.3112   9.3167   9.3267   9.3525   9.3784   9.3889   9.4096
     9.4676   9.5067   9.5215   9.5567   9.6106   9.6385   9.6479   9.6964
     9.7226   9.7662   9.8132   9.8155   9.9206   9.9557   9.9921  10.0165
    10.0283  10.0761  10.1257  10.1703  10.1718  10.1889  10.2035  10.2628
    10.3246  10.3333  10.3520  10.3645  10.4162  10.4306  10.4902  10.5380
    10.5660  10.5996  10.6393  10.6930  10.7177  10.7181  10.7566  10.7653
    10.7660  10.8037  10.8195  10.8242  10.8601  10.8944  10.9274  10.9296
    10.9853  11.0164  11.0584  11.0863  11.1349  11.1779  11.2155  11.2159
    11.2469  11.2619  11.2862  11.2921  11.3272  11.3648  11.3936  11.4036
    11.4466  11.4919  11.5158  11.5228  11.5259  11.5359  11.5534  11.6081
    11.6145  11.6286  11.6543  11.6632  11.7344  11.7462  11.7966  11.8326
    11.8702  11.8747  11.9036  11.9461  12.0031  12.0089  12.0523  12.0620
    12.0747  12.0842  12.0851  12.1509  12.2540  12.2600  12.3500  12.3709
    12.3875  12.4041  12.4465  12.4738  12.4799  12.4922  12.5183  12.5444
    12.5693  12.6762  12.7794  12.8053  12.8697  12.9158  12.9206  12.9398
    12.9947  12.9978  13.0098  13.0932  13.1006  13.1070  13.1519  13.2002
    13.2420  13.2517  13.2630  13.2781  13.3231  13.3407  13.3800  13.4232
    13.4334  13.4719  13.4800  13.4859  13.4935  13.4940  13.5643  13.5788
    13.6036  13.6096  13.6342  13.7309  13.7456  13.7703  13.8113  13.8168
    13.8539  13.9260  13.9298  13.9314  13.9460  13.9896  14.0704  14.0833
    14.1552  14.1554  14.1753  14.1982  14.2193  14.2220  14.2287  14.2669
    14.2839  14.3473  14.3578  14.3768  14.4082  14.4336  14.4360  14.5037
    14.5780  14.5924  14.6222  14.6324  14.6672  14.6707  14.6868  14.7077
    14.7225  14.8063  14.8123  14.8130  14.8412  14.9090  14.9657  15.0285
    15.0313  15.0998  15.1243  15.1398  15.2112  15.2259  15.2301  15.2326
    15.2767  15.3242  15.3664  15.3767  15.3992  15.4035  15.4150  15.4743
    15.4790  15.5430  15.5628  15.5810  15.6007  15.6044  15.6786  15.7028
    15.7030  15.7137  15.7649  15.7848

          k = 0.0000 0.0000 0.0282 ( 73614 PWs)   bands (ev):

   -21.0616 -21.0020 -20.4204 -20.2507 -20.0965 -19.7407 -19.2619 -18.9654
   -18.9031 -18.8395 -18.7629 -18.0444 -17.7663 -17.4167 -17.3082 -17.0958
   -17.0822 -16.6379 -16.6317 -16.2630 -16.2451 -15.6533 -15.5647 -14.7965
   -14.6048 -14.3320 -14.1076 -13.9844 -13.9734 -13.7443 -13.5428 -13.3056
   -13.1376 -12.7759 -12.2671 -11.9060 -11.7602 -11.6979 -11.5245 -11.2888
   -11.1716 -11.1273 -10.9153 -10.4858 -10.2939 -10.2138 -10.0029  -9.8612
    -9.5445  -9.4968  -9.4104  -9.3225  -9.2500  -9.2208  -9.1104  -9.0303
    -8.7480  -8.7298  -8.7198  -8.5441  -8.3694  -8.3337  -8.3049  -8.1375
    -8.1373  -8.1321  -7.9804  -7.9110  -7.6651  -7.6259  -7.5657  -7.5029
    -7.4964  -7.3783  -7.2757  -7.0651  -7.0530  -6.7946  -6.7392  -6.6580
    -6.6414  -6.5193  -6.4272  -5.9655  -5.8036  -5.7424  -5.7197  -5.6768
    -5.5764  -5.1760  -4.9527  -4.8345  -4.6724  -4.3174  -4.2887  -3.9921
    -3.9522  -3.0829  -2.9833  -1.2169  -1.1123  -0.6629  -0.3596  -0.0253
    -0.0092   0.3594   0.3884   0.6428   0.8953   1.0684   1.1407   1.2459
     1.3614   1.6187   1.6311   1.7278   2.0063   2.1130   2.1606   2.2225
     2.5406   2.5547   2.5911   2.5987   2.6496   2.6799   2.7141   2.8806
     2.8972   2.9314   2.9869   3.0232   3.0730   3.2642   3.3415   3.3699
     3.5432   3.5862   3.6233   3.7593   3.8211   3.8519   3.8887   3.8894
     3.9280   4.0201   4.0426   4.0634   4.0731   4.1672   4.1983   4.3404
     4.3821   4.4037   4.4619   4.5340   4.5833   4.5961   4.6691   4.6857
     4.7361   4.7838   4.8661   4.9867   4.9998   5.0272   5.0685   5.1352
     5.1618   5.2642   5.2658   5.3194   5.3615   5.3743   5.3761   5.4549
     5.4586   5.4976   5.5695   5.6254   5.6491   5.6595   5.8091   5.8102
     5.8425   5.8643   5.9644   6.0307   6.0412   6.0479   6.1094   6.1661
     6.1881   6.2001   6.2424   6.2915   6.3122   6.3313   6.3462   6.3553
     6.3627   6.3991   6.4459   6.5191   6.5320   6.5753   6.6664   6.7126
     6.7605   6.8075   6.8893   6.9035   6.9627   7.0083   7.0110   7.0734
     7.0861   7.1652   7.1683   7.1691   7.1926   7.1960   7.2577   7.2842
     7.3261   7.3855   7.3968   7.4481   7.5039   7.5142   7.5716   7.5763
     7.6031   7.6350   7.6552   7.6984   7.7505   7.7662   7.7887   7.8913
     7.9301   7.9333   7.9544   8.0341   8.0396   8.0446   8.1423   8.1444
     8.2208   8.2301   8.2592   8.2842   8.3218   8.3506   8.3508   8.3591
     8.4060   8.4353   8.4517   8.5338   8.5735   8.5949   8.6690   8.7030
     8.7049   8.7084   8.7911   8.8379   8.8385   8.8745   8.9544   8.9968
     9.0075   9.0368   9.0679   9.0770   9.1159   9.1798   9.1921   9.2013
     9.2486   9.2518   9.2721   9.2901   9.3011   9.3094   9.3770   9.4712
     9.4777   9.4850   9.5577   9.5655   9.6221   9.6323   9.6351   9.6505
     9.6751   9.7097   9.7241   9.8232   9.8518   9.9075   9.9198  10.0146
    10.0904  10.1016  10.1122  10.1204  10.2077  10.2134  10.2222  10.2547
    10.3017  10.3108  10.3498  10.3509  10.3696  10.3993  10.4884  10.5167
    10.5859  10.6286  10.6391  10.6712  10.6988  10.7171  10.7302  10.7439
    10.7663  10.7984  10.8003  10.8011  10.8317  10.8589  10.9350  10.9364
    11.0474  11.0758  11.1199  11.1232  11.1813  11.2112  11.2216  11.2235
    11.2620  11.2660  11.2938  11.3032  11.3239  11.3800  11.4093  11.4221
    11.4601  11.4834  11.5216  11.5265  11.5632  11.5688  11.5765  11.5929
    11.5980  11.6272  11.6392  11.6604  11.7091  11.7816  11.8349  11.8603
    11.8639  11.9031  11.9142  11.9557  11.9662  12.0118  12.0386  12.0834
    12.0955  12.1077  12.1271  12.1823  12.2158  12.2737  12.2826  12.3280
    12.4111  12.4444  12.4571  12.5075  12.5088  12.5403  12.5528  12.5704
    12.5749  12.6818  12.7998  12.8368  12.8682  12.8914  12.9183  12.9976
    13.0017  13.0255  13.0497  13.0508  13.1133  13.1369  13.1879  13.1901
    13.2558  13.2893  13.3034  13.3133  13.3251  13.3346  13.4078  13.4112
    13.4359  13.4411  13.5095  13.5459  13.5706  13.5749  13.5802  13.5913
    13.6297  13.6559  13.7076  13.7370  13.7588  13.7712  13.8043  13.8285
    13.8453  13.9058  13.9121  13.9553  13.9740  14.0220  14.0959  14.0973
    14.1742  14.1805  14.1923  14.1999  14.2278  14.2390  14.2726  14.2738
    14.2753  14.2924  14.3693  14.3900  14.3946  14.4372  14.4426  14.5052
    14.5803  14.6331  14.6370  14.6532  14.6560  14.6902  14.6944  14.7282
    14.7501  14.8224  14.8313  14.8423  14.8430  14.8958  14.9724  15.0483
    15.0802  15.1340  15.1443  15.1963  15.1973  15.2354  15.2446  15.2499
    15.2725  15.3126  15.3518  15.3912  15.3920  15.4401  15.4453  15.4542
    15.4974  15.5136  15.5348  15.5644  15.5717  15.6050  15.6769  15.6833
    15.6843  15.7143  15.7616  15.7944

          k = 0.0000 0.0000 0.0305 ( 73610 PWs)   bands (ev):

   -21.0489 -20.9877 -20.4386 -20.2920 -20.1146 -19.7301 -19.2659 -18.9996
   -18.8809 -18.7719 -18.7327 -18.0248 -17.7636 -17.3743 -17.2795 -17.1243
   -17.0658 -16.7135 -16.7116 -16.2867 -16.2300 -15.7233 -15.6203 -14.7628
   -14.5836 -14.3092 -14.1120 -13.8839 -13.8738 -13.6890 -13.5631 -13.3319
   -13.1935 -12.7885 -12.3046 -11.8548 -11.6990 -11.6574 -11.4937 -11.3338
   -11.2206 -11.1969 -10.8620 -10.5028 -10.3422 -10.1982 -10.0301  -9.8433
    -9.6176  -9.5736  -9.4027  -9.3304  -9.2551  -9.2358  -9.0953  -9.0132
    -8.7515  -8.7236  -8.6843  -8.5644  -8.3877  -8.3425  -8.3375  -8.1865
    -8.1671  -8.0987  -8.0047  -7.8847  -7.6388  -7.6136  -7.4955  -7.4858
    -7.4393  -7.4025  -7.2781  -7.0755  -6.9981  -6.7814  -6.7514  -6.6339
    -6.6331  -6.4407  -6.3886  -5.9910  -5.8342  -5.7656  -5.7044  -5.7043
    -5.5710  -5.1326  -4.9150  -4.8341  -4.6607  -4.3786  -4.3617  -4.0119
    -3.9450  -3.1645  -3.0539  -1.1566  -1.0372  -0.6376  -0.3715   0.0613
     0.0739   0.3337   0.4148   0.6053   0.8502   1.0871   1.1605   1.2585
     1.3643   1.6228   1.6513   1.6932   2.0163   2.0641   2.1026   2.2233
     2.4985   2.5563   2.6001   2.6100   2.6284   2.6680   2.6736   2.7983
     2.9175   2.9659   2.9743   3.0065   3.0412   3.2169   3.3607   3.3858
     3.5623   3.5699   3.5742   3.7791   3.7839   3.7871   3.8560   3.8687
     3.9584   4.0318   4.0427   4.0714   4.1184   4.1927   4.2032   4.3280
     4.3604   4.4045   4.4630   4.5536   4.5548   4.6296   4.6412   4.7198
     4.7572   4.8001   4.8314   4.9553   5.0143   5.0574   5.0912   5.1231
     5.1989   5.2764   5.2787   5.2857   5.3204   5.3998   5.4058   5.5003
     5.5068   5.5218   5.5774   5.6519   5.6700   5.6750   5.7750   5.7876
     5.9113   5.9478   6.0378   6.0534   6.0585   6.1315   6.1321   6.1337
     6.1728   6.1730   6.2617   6.2748   6.2890   6.3739   6.3748   6.3811
     6.4071   6.4323   6.4731   6.4990   6.5063   6.6093   6.7077   6.7328
     6.7767   6.8396   6.8879   6.9338   6.9781   6.9833   7.0683   7.0686
     7.0934   7.1286   7.1885   7.1968   7.2188   7.2518   7.2729   7.2918
     7.3628   7.3632   7.3705   7.3988   7.4405   7.5016   7.5303   7.5606
     7.5766   7.6032   7.6580   7.7178   7.7247   7.7294   7.8454   7.9175
     7.9245   7.9374   7.9461   8.0033   8.0251   8.0368   8.1323   8.1471
     8.1946   8.2124   8.2584   8.2958   8.2978   8.3036   8.3327   8.3450
     8.4308   8.4368   8.4681   8.5004   8.5754   8.5763   8.6241   8.6501
     8.6800   8.7090   8.7378   8.7598   8.7785   8.8287   8.9528   8.9645
     8.9767   9.0204   9.0307   9.0439   9.0936   9.1275   9.1748   9.1830
     9.1832   9.1945   9.2043   9.2502   9.2849   9.3437   9.3877   9.4617
     9.5082   9.5176   9.5595   9.5846   9.5937   9.6081   9.6128   9.6333
     9.6585   9.6674   9.6982   9.7358   9.7904   9.8690   9.8967   9.9808
    10.0420  10.1125  10.1379  10.1471  10.1815  10.1980  10.2169  10.2383
    10.2509  10.3181  10.3285  10.3369  10.3462  10.4334  10.4977  10.5299
    10.5801  10.6015  10.6160  10.6458  10.7060  10.7060  10.7228  10.7371
    10.7572  10.7631  10.7843  10.8098  10.8630  10.8844  10.9473  10.9504
    11.0764  11.0788  11.0791  11.1657  11.2079  11.2169  11.2465  11.2513
    11.2686  11.2949  11.2995  11.3590  11.3719  11.4040  11.4141  11.4278
    11.4708  11.5026  11.5273  11.5485  11.5579  11.5628  11.5778  11.6061
    11.6276  11.6326  11.6668  11.6727  11.6887  11.7228  11.8167  11.8410
    11.8705  11.9048  11.9457  11.9684  12.0088  12.0272  12.0620  12.0986
    12.1000  12.1362  12.1581  12.1928  12.1956  12.2627  12.2792  12.2846
    12.4314  12.4612  12.4786  12.4939  12.5400  12.5893  12.5971  12.5986
    12.6422  12.7274  12.8178  12.8237  12.8374  12.8614  12.8955  12.9923
    13.0037  13.0063  13.0990  13.1118  13.1365  13.1680  13.1926  13.1942
    13.2580  13.2666  13.3187  13.3220  13.3298  13.3829  13.4056  13.4193
    13.4505  13.4635  13.5505  13.5708  13.5769  13.6000  13.6079  13.6381
    13.6590  13.6967  13.6976  13.7550  13.7739  13.8130  13.8420  13.8760
    13.8783  13.9034  13.9228  13.9808  14.0149  14.0590  14.0902  14.0903
    14.1754  14.1771  14.2004  14.2026  14.2434  14.2470  14.2502  14.2570
    14.2871  14.3074  14.3795  14.4022  14.4359  14.4740  14.4768  14.5220
    14.5901  14.6322  14.6368  14.6502  14.6888  14.7087  14.7561  14.7564
    14.7682  14.8217  14.8585  14.8737  14.8776  14.9291  14.9832  15.0633
    15.1305  15.1442  15.1538  15.1897  15.2191  15.2297  15.2578  15.2641
    15.2677  15.2744  15.3659  15.4022  15.4023  15.4166  15.4214  15.4324
    15.4979  15.5105  15.5288  15.5376  15.5776  15.5976  15.6645  15.6847
    15.6894  15.6919  15.7555  15.7854

          k = 0.0000 0.0000 0.0329 ( 73596 PWs)   bands (ev):

   -21.0353 -20.9723 -20.4592 -20.3325 -20.1291 -19.7188 -19.2703 -19.0333
   -18.8751 -18.7025 -18.6842 -18.0069 -17.7630 -17.3322 -17.2497 -17.1533
   -17.0496 -16.7884 -16.7849 -16.3106 -16.2160 -15.7931 -15.6760 -14.7288
   -14.5629 -14.2857 -14.1148 -13.7851 -13.7758 -13.6315 -13.5838 -13.3598
   -13.2490 -12.7972 -12.3424 -11.8087 -11.6367 -11.6167 -11.4611 -11.3918
   -11.3185 -11.2046 -10.8053 -10.5200 -10.3919 -10.2175 -10.0204  -9.8263
    -9.6941  -9.6552  -9.4120  -9.3400  -9.2671  -9.2136  -9.0791  -8.9947
    -8.7674  -8.7309  -8.6404  -8.5712  -8.4089  -8.3693  -8.3490  -8.2346
    -8.1964  -8.0657  -8.0245  -7.8644  -7.6172  -7.6003  -7.4704  -7.4660
    -7.4077  -7.3863  -7.2541  -7.0862  -6.9429  -6.8223  -6.7067  -6.6269
    -6.6193  -6.3613  -6.3378  -6.0190  -5.8667  -5.7904  -5.7339  -5.6910
    -5.5662  -5.0941  -4.8753  -4.8270  -4.6490  -4.4445  -4.4360  -4.0289
    -3.9386  -3.2453  -3.1234  -1.0987  -0.9634  -0.6100  -0.3823   0.1469
     0.1583   0.3125   0.4351   0.5640   0.8126   1.1072   1.1819   1.2716
     1.3691   1.6274   1.6583   1.6731   1.9930   2.0460   2.0490   2.2230
     2.4634   2.5360   2.5589   2.5804   2.6425   2.6535   2.6847   2.7053
     2.9323   2.9394   3.0086   3.0236   3.0367   3.1762   3.3819   3.4019
     3.5152   3.5529   3.5832   3.7251   3.7545   3.7985   3.8105   3.8428
     3.9247   4.0350   4.0729   4.1233   4.1927   4.1977   4.2168   4.2836
     4.3489   4.3819   4.4857   4.5465   4.5659   4.6138   4.6399   4.7540
     4.7775   4.8262   4.8465   4.9055   4.9724   5.0879   5.0946   5.1841
     5.2284   5.2285   5.2649   5.2851   5.3080   5.4371   5.4631   5.5007
     5.5553   5.5559   5.5977   5.6465   5.6887   5.7530   5.7541   5.7683
     5.9643   6.0320   6.0471   6.0637   6.0667   6.1483   6.1516   6.1616
[...]
     3.8323   3.9505   4.0306   4.0483   4.1098   4.2460   4.2678   4.3018
     4.4198   4.5244   4.5435   4.6075   4.6083   4.6714   4.7052   4.7533
     4.8053   4.8448   4.8522   4.8980   4.9174   5.0235   5.2176   5.2876
     5.3012   5.3587   5.3672   5.4124   5.4990   5.5344   5.6076   5.6167
     5.6288   5.6487   5.7129   5.7608   5.8311   5.8452   5.8455   5.9685
     6.0097   6.0219   6.1109   6.1187   6.1713   6.2185   6.2804   6.2879
     6.2917   6.3279   6.3677   6.3759   6.4604   6.5191   6.5602   6.6094
     6.6356   6.6373   6.6808   6.7061   6.7383   6.7799   6.7923   6.8048
     6.8391   6.8489   6.8973   6.9325   6.9568   6.9638   7.0033   7.0458
     7.0727   7.1281   7.1536   7.1913   7.2823   7.2967   7.3048   7.3219
     7.3510   7.3627   7.3860   7.3987   7.4286   7.4763   7.5012   7.5705
     7.6110   7.6658   7.6774   7.6921   7.7061   7.7317   7.7422   7.7466
     7.8226   7.8667   7.8682   7.8715   7.8731   7.8781   7.9042   7.9303
     8.0013   8.0203   8.1348   8.1544   8.1638   8.1646   8.2404   8.2838
     8.2965   8.3269   8.3600   8.3603   8.3777   8.4486   8.4507   8.4907
     8.5529   8.5942   8.6442   8.6969   8.7153   8.7271   8.7651   8.7990
     8.8053   8.8318   8.8560   8.9306   8.9315   8.9529   8.9950   9.0102
     9.0333   9.0840   9.1049   9.1287   9.1629   9.2082   9.2677   9.3268
     9.3360   9.3562   9.3776   9.4054   9.4146   9.4565   9.4910   9.5598
     9.6026   9.6300   9.6625   9.7693   9.7876   9.7994   9.8116   9.8461
     9.8665   9.8994   9.9096   9.9272   9.9383  10.0330  10.0643  10.1210
    10.1411  10.1591  10.1603  10.1904  10.2222  10.2377  10.3427  10.3471
    10.4001  10.4855  10.4914  10.5575  10.6213  10.6218  10.7364  10.8787
    10.8805  10.9320  10.9586  11.0123  11.0312  11.0611  11.0840  11.0914
    11.1380  11.1975  11.1978  11.2030  11.2387  11.2774  11.2906  11.2975
    11.3580  11.3694  11.3720  11.4168  11.4529  11.4550  11.4772  11.4789
    11.5007  11.5272  11.5396  11.5827  11.6674  11.7142  11.7234  11.7252
    11.7421  11.7583  11.7823  11.7876  11.8132  11.8453  11.8854  11.9408
    11.9732  11.9804  11.9831  12.0240  12.0436  12.0878  12.1057  12.1066
    12.1271  12.2610  12.2659  12.3117  12.3252  12.3312  12.3566  12.3749
    12.4047  12.4284  12.4402  12.4905  12.5020  12.5238  12.5947  12.6147
    12.6303  12.6448  12.6471  12.7953  12.8024  12.8188  12.8256  12.9145
    13.0349  13.0733  13.0778  13.1089  13.1228  13.1494  13.2914  13.3310
    13.3991  13.4154  13.4338  13.4410  13.4704  13.4958  13.5075  13.5111
    13.5572  13.6017  13.6716  13.7341  13.7471  13.7538  13.8080  13.8180
    13.8390  13.8793  13.8941  13.9067  13.9275  13.9853  13.9934  14.0493
    14.0516  14.0782  14.0810  14.1597  14.1833  14.2207  14.2283  14.2552
    14.3180  14.3421  14.4411  14.4456  14.4559  14.4709  14.5030  14.5186
    14.5894  14.5923  14.6372  14.6726  14.6731  14.6923  14.7189  14.7341
    14.7465  14.7559  14.7863  14.7899  14.8659  14.8782  14.8898  14.8948
    14.9067  14.9593  14.9766  14.9855  15.0343  15.0595  15.1007  15.1263
    15.1471  15.2344  15.2418  15.2676  15.2863  15.2995  15.3025  15.3026
    15.3460  15.3589  15.4056  15.4315  15.4575  15.4874  15.4978  15.5071
    15.5246  15.5697  15.5834  15.5892  15.5907  15.6276  15.6573  15.6950
    15.6973  15.7261  15.7274  15.7526

          k = 0.0000 0.0000 0.0540 ( 73714 PWs)   bands (ev):

   -20.9015 -20.7947 -20.6585 -20.6398 -20.1693 -19.6175 -19.3053 -19.2515
   -18.9115 -18.1278 -18.0350 -17.9168 -17.8365 -17.7215 -17.4668 -17.1599
   -16.9428 -16.7983 -16.7420 -16.5489 -16.4644 -16.0903 -16.0603 -14.4911
   -14.4582 -14.0152 -13.9498 -13.8442 -13.7684 -13.6833 -13.2998 -12.8269
   -12.7470 -12.7390 -12.6242 -12.3412 -12.2908 -11.4296 -11.2420 -11.1922
   -11.0030 -10.9331 -10.7829 -10.6461 -10.5619 -10.4973 -10.4138 -10.2231
    -9.9536  -9.5677  -9.5329  -9.3889  -9.1133  -9.0374  -9.0073  -8.9213
    -8.8905  -8.7783  -8.6494  -8.6316  -8.6044  -8.5922  -8.4000  -8.3187
    -8.0810  -8.0398  -7.9361  -7.8168  -7.7660  -7.6581  -7.4748  -7.4630
    -7.3263  -7.1591  -7.0877  -6.8260  -6.6566  -6.6428  -6.6134  -6.4383
    -6.3908  -6.3114  -6.2353  -6.0427  -6.0149  -5.8520  -5.6468  -5.6066
    -5.4453  -5.2884  -5.0921  -4.9146  -4.5878  -4.5074  -4.3645  -4.1113
    -4.0619  -3.7765  -3.6043  -0.7692  -0.5485  -0.2854  -0.2394   0.0851
     0.0938   0.1618   0.7230   1.0491   1.2170   1.2958   1.3866   1.4070
     1.4183   1.4454   1.5558   1.6029   1.6904   1.7110   1.7166   1.9414
     1.9861   2.1034   2.3123   2.4483   2.5418   2.5504   2.7841   2.9081
     2.9321   2.9999   3.0690   3.0991   3.1688   3.2089   3.2635   3.3227
     3.3691   3.4171   3.4949   3.5731   3.6392   3.6926   3.7894   3.8213
     3.8485   3.9249   4.0072   4.0663   4.0848   4.2251   4.2732   4.3347
     4.4362   4.4883   4.5098   4.6300   4.6421   4.6761   4.7107   4.7301
     4.7944   4.8171   4.8649   4.9380   4.9584   5.0417   5.2107   5.2698
     5.3006   5.3478   5.3645   5.4075   5.5363   5.5645   5.5824   5.6296
     5.6363   5.6928   5.7434   5.7637   5.8021   5.8406   5.8444   5.9696
     6.0164   6.0528   6.1006   6.1191   6.1557   6.2556   6.2672   6.2906
     6.3023   6.3643   6.3773   6.4120   6.4373   6.5224   6.5386   6.6311
     6.6450   6.6490   6.6888   6.6934   6.7178   6.7325   6.7483   6.7692
     6.8887   6.8901   6.8930   6.8940   6.9830   7.0039   7.0313   7.0654
     7.0947   7.1147   7.1584   7.2599   7.2733   7.2820   7.3156   7.3377
     7.3634   7.3788   7.3905   7.4294   7.4352   7.4972   7.5180   7.5212
     7.6237   7.6594   7.6629   7.6771   7.6882   7.7100   7.7121   7.7258
     7.7511   7.8051   7.8174   7.8377   7.9013   7.9098   7.9202   7.9314
     7.9658   7.9916   8.0942   8.1523   8.1781   8.1895   8.2288   8.2365
     8.3168   8.3490   8.3796   8.3880   8.4470   8.4634   8.4906   8.4987
     8.5216   8.5714   8.5987   8.6596   8.6676   8.7334   8.7776   8.7904
     8.8327   8.8370   8.8441   8.8583   8.9094   8.9290   8.9917   9.0023
     9.0407   9.0607   9.1146   9.1267   9.1606   9.2405   9.2578   9.3113
     9.3330   9.3592   9.3904   9.4127   9.4204   9.4412   9.4617   9.5984
     9.6238   9.6398   9.6701   9.7498   9.7525   9.7558   9.7990   9.8530
     9.8787   9.8873   9.9206   9.9223   9.9367   9.9543  10.0767  10.1213
    10.1338  10.1366  10.1530  10.1756  10.2140  10.2213  10.3468  10.3941
    10.4131  10.4617  10.5040  10.5438  10.5754  10.5767  10.7479  10.8203
    10.9407  10.9411  10.9797  11.0291  11.0364  11.0370  11.0900  11.1094
    11.1275  11.1802  11.2027  11.2268  11.2328  11.2609  11.2748  11.2963
    11.3639  11.3749  11.4013  11.4461  11.4530  11.4961  11.4991  11.5160
    11.5167  11.5389  11.5552  11.6032  11.6800  11.6937  11.7069  11.7470
    11.7519  11.7660  11.7990  11.8197  11.8213  11.8370  11.8700  11.9049
    11.9638  11.9792  11.9861  12.0083  12.0228  12.0420  12.1124  12.1337
    12.1645  12.2429  12.2653  12.2900  12.2960  12.3213  12.3750  12.3976
    12.4035  12.4081  12.4611  12.4765  12.5139  12.5352  12.5783  12.6112
    12.6325  12.6496  12.6617  12.7890  12.8247  12.8270  12.8297  12.8570
    13.0083  13.0289  13.0609  13.0611  13.0967  13.1599  13.2991  13.3232
    13.4118  13.4208  13.4429  13.4757  13.5005  13.5113  13.5251  13.5514
    13.6036  13.6040  13.6618  13.6932  13.7647  13.7958  13.8297  13.8434
    13.8811  13.9035  13.9194  13.9227  13.9572  13.9631  13.9920  14.0573
    14.0637  14.1065  14.1458  14.1954  14.1996  14.2365  14.2451  14.2491
    14.3294  14.3394  14.4152  14.4299  14.4315  14.4401  14.5124  14.5190
    14.5774  14.6358  14.6499  14.6580  14.6681  14.6799  14.7157  14.7343
    14.7365  14.7956  14.7964  14.7990  14.8716  14.9050  14.9076  14.9087
    14.9137  14.9395  14.9614  15.0081  15.0109  15.0789  15.1639  15.1642
    15.1729  15.1947  15.2156  15.2462  15.2603  15.2819  15.3062  15.3385
    15.3588  15.3727  15.4445  15.4522  15.4566  15.4900  15.5048  15.5346
    15.5387  15.5751  15.5972  15.6216  15.6542  15.6543  15.6734  15.6914
    15.6914  15.7010  15.7484  15.7638

          k = 0.0000 0.0000 0.0563 ( 73732 PWs)   bands (ev):

   -20.8939 -20.7781 -20.6684 -20.6597 -20.1696 -19.6129 -19.3065 -19.2591
   -18.9127 -18.0892 -17.9590 -17.9142 -17.8531 -17.7974 -17.4908 -17.1645
   -16.9395 -16.7713 -16.6844 -16.5705 -16.5247 -16.0893 -16.0735 -14.4831
   -14.4564 -13.9780 -13.9106 -13.8842 -13.8152 -13.6895 -13.2865 -12.8109
   -12.6599 -12.6443 -12.6195 -12.4412 -12.4016 -11.4201 -11.2278 -11.1911
   -10.9578 -10.8770 -10.8067 -10.6668 -10.5537 -10.5353 -10.4660 -10.2036
    -9.9822  -9.5465  -9.5303  -9.3811  -9.1407  -9.0270  -9.0015  -8.9124
    -8.8877  -8.7566  -8.6669  -8.6429  -8.6300  -8.6002  -8.4016  -8.3022
    -8.0815  -8.0090  -7.9484  -7.8062  -7.7943  -7.6661  -7.4687  -7.4612
    -7.3226  -7.1614  -7.0973  -6.7937  -6.6697  -6.6138  -6.5846  -6.4412
    -6.3873  -6.2850  -6.2832  -6.0668  -6.0247  -5.8341  -5.6341  -5.5404
    -5.4195  -5.3597  -5.1367  -4.9222  -4.5836  -4.4943  -4.3078  -4.1136
    -4.1111  -3.7861  -3.6227  -0.7600  -0.5442  -0.2620  -0.1986   0.0414
     0.0803   0.1437   0.7374   1.1232   1.2862   1.3035   1.3643   1.4243
     1.4442   1.4825   1.5220   1.5612   1.5862   1.6608   1.7207   1.9751
     1.9790   2.0610   2.3356   2.4367   2.5403   2.5418   2.7693   2.9451
     2.9713   3.0274   3.0390   3.0577   3.1282   3.2463   3.2946   3.3270
     3.3532   3.3810   3.4595   3.6105   3.6517   3.7235   3.7539   3.8039
     3.8834   3.9109   3.9683   4.0675   4.1032   4.1839   4.2954   4.3658
     4.4399   4.4608   4.4858   4.6496   4.6748   4.6781   4.7141   4.7143
     4.7638   4.7900   4.8832   4.9585   5.0076   5.0539   5.2246   5.2505
     5.2999   5.3143   5.3303   5.4490   5.5372   5.5630   5.5926   5.6455
     5.6480   5.6756   5.7767   5.7795   5.7990   5.8513   5.8916   5.9755
     5.9865   6.0123   6.0795   6.1471   6.1745   6.1789   6.2260   6.3226
     6.3793   6.4045   6.4260   6.4320   6.4751   6.5003   6.5255   6.6126
     6.6328   6.6355   6.6419   6.6457   6.6661   6.7557   6.7636   6.8084
     6.8433   6.8914   6.9060   6.9302   6.9838   7.0226   7.0414   7.0968
     7.0992   7.1585   7.1716   7.2473   7.2481   7.3041   7.3122   7.3572
     7.3618   7.3620   7.4069   7.4305   7.4988   7.5088   7.5650   7.5742
     7.5835   7.6089   7.6219   7.6425   7.6769   7.6831   7.6921   7.7207
     7.7284   7.7357   7.7991   7.8282   7.8702   7.9047   7.9525   7.9589
     7.9698   8.0521   8.0597   8.0740   8.1343   8.2153   8.2175   8.2503
     8.3300   8.3705   8.4163   8.4183   8.4514   8.5011   8.5012   8.5330
     8.5382   8.5478   8.5903   8.6032   8.6484   8.7298   8.7337   8.7447
     8.7999   8.8275   8.8443   8.8540   8.9291   8.9316   8.9985   9.0108
     9.0120   9.0821   9.0991   9.1016   9.2011   9.2505   9.2658   9.3084
     9.3120   9.3249   9.3537   9.4083   9.4211   9.4688   9.5339   9.6492
     9.6504   9.6504   9.6761   9.6902   9.7074   9.7147   9.7772   9.8039
     9.8821   9.9038   9.9088   9.9276   9.9537   9.9637  10.0788  10.1088
    10.1192  10.1421  10.1459  10.1638  10.1943  10.2098  10.3672  10.3898
    10.4498  10.4698  10.4772  10.5186  10.5569  10.5887  10.7510  10.7546
    10.9587  10.9989  11.0062  11.0099  11.0417  11.0475  11.0970  11.1042
    11.1048  11.1677  11.1831  11.2095  11.2193  11.2495  11.2595  11.3549
    11.3628  11.3998  11.4034  11.4267  11.4884  11.4988  11.5242  11.5527
    11.5592  11.5673  11.5964  11.6042  11.6682  11.6734  11.6872  11.7295
    11.7375  11.7916  11.8008  11.8164  11.8273  11.8273  11.8840  11.9167
    11.9477  11.9697  11.9711  12.0006  12.0209  12.0581  12.1010  12.1566
    12.1971  12.2096  12.2323  12.2349  12.2561  12.3579  12.3606  12.3880
    12.4077  12.4469  12.4526  12.4761  12.5429  12.5454  12.5615  12.6373
    12.6572  12.6625  12.6795  12.7763  12.8115  12.8317  12.8375  12.8391
    12.9375  12.9660  13.0223  13.0774  13.1077  13.1679  13.2818  13.3630
    13.4041  13.4354  13.4421  13.4824  13.4922  13.5371  13.5441  13.5754
    13.6067  13.6422  13.6488  13.6582  13.7744  13.8393  13.8552  13.8694
    13.9001  13.9137  13.9218  13.9287  13.9517  13.9603  14.0431  14.0441
    14.0718  14.1323  14.1753  14.1983  14.2233  14.2476  14.2549  14.2846
    14.3439  14.3461  14.3852  14.4022  14.4290  14.4472  14.5054  14.5152
    14.5352  14.5770  14.6359  14.6384  14.6460  14.6652  14.7367  14.7480
    14.7749  14.7985  14.8314  14.8489  14.8909  14.8916  14.9118  14.9201
    14.9286  14.9712  14.9909  14.9952  15.0037  15.0739  15.1269  15.1351
    15.1800  15.1896  15.2066  15.2088  15.2356  15.3197  15.3317  15.3322
    15.3758  15.3831  15.4279  15.4420  15.5001  15.5094  15.5167  15.5714
    15.5864  15.5998  15.6321  15.6421  15.6575  15.6697  15.6822  15.6953
    15.6959  15.7181  15.7465  15.7818

          k = 0.0000 0.0000-0.0587 ( 73736 PWs)   bands (ev):

   -20.8912 -20.7712 -20.6718 -20.6678 -20.1698 -19.6113 -19.3069 -19.2617
   -18.9131 -18.0741 -17.9150 -17.8980 -17.8606 -17.8568 -17.4991 -17.1661
   -16.9384 -16.7607 -16.6500 -16.5792 -16.5600 -16.0889 -16.0780 -14.4804
   -14.4559 -13.9532 -13.9101 -13.8805 -13.8478 -13.6915 -13.2819 -12.8082
   -12.6424 -12.5887 -12.5264 -12.5139 -12.5005 -11.4169 -11.2228 -11.1907
   -10.9400 -10.8456 -10.8242 -10.6761 -10.5522 -10.5439 -10.4908 -10.1941
    -9.9938  -9.5395  -9.5294  -9.3772  -9.1513  -9.0237  -8.9994  -8.9092
    -8.8860  -8.7471  -8.6735  -8.6469  -8.6409  -8.6029  -8.4021  -8.2963
    -8.0816  -7.9965  -7.9530  -7.8059  -7.8023  -7.6690  -7.4666  -7.4606
    -7.3213  -7.1621  -7.1006  -6.7807  -6.6762  -6.6139  -6.5511  -6.4721
    -6.3474  -6.3221  -6.2748  -6.0763  -6.0281  -5.8282  -5.6324  -5.4927
    -5.4083  -5.4067  -5.1542  -4.9246  -4.5823  -4.4896  -4.2798  -4.1369
    -4.1143  -3.7890  -3.6290  -0.7569  -0.5430  -0.2534  -0.1806   0.0225
     0.0747   0.1379   0.7423   1.1560   1.3060   1.3095   1.3496   1.4616
     1.4800   1.5013   1.5019   1.5206   1.5215   1.6431   1.7222   1.9713
     2.0117   2.0267   2.3464   2.4290   2.5398   2.5401   2.7641   2.9755
     2.9954   3.0023   3.0257   3.0677   3.0989   3.2806   3.2911   3.3148
     3.3593   3.3696   3.4414   3.6316   3.6517   3.7382   3.7408   3.7906
     3.9070   3.9081   3.9422   4.0613   4.1349   4.1508   4.3047   4.3833
     4.4323   4.4497   4.4800   4.6583   4.6785   4.6940   4.7088   4.7165
     4.7433   4.7789   4.8900   4.9655   5.0288   5.0572   5.2415   5.2475
     5.2792   5.2997   5.3222   5.4862   5.4987   5.5737   5.6074   5.6436
     5.6559   5.6635   5.7702   5.7801   5.8233   5.8877   5.9152   5.9345
     5.9883   6.0204   6.0422   6.1361   6.1649   6.1966   6.2016   6.3508
     6.4036   6.4224   6.4255   6.4672   6.4825   6.4979   6.5469   6.5916
     6.5920   6.6012   6.6329   6.6386   6.6491   6.7488   6.7884   6.8114
     6.8880   6.8921   6.8939   6.9434   6.9464   7.0196   7.0359   7.0914
     7.1641   7.1904   7.2091   7.2256   7.2332   7.2564   7.2848   7.3347
     7.3514   7.3924   7.4764   7.4810   7.4917   7.5155   7.5604   7.5618
     7.5699   7.6070   7.6180   7.6504   7.6515   7.6597   7.6806   7.6959
     7.7234   7.7641   7.7658   7.7730   7.9037   7.9343   7.9716   7.9749
     7.9770   7.9990   8.0202   8.1223   8.1360   8.1738   8.2224   8.2246
     8.3880   8.3966   8.4092   8.4326   8.4594   8.4862   8.4943   8.5180
     8.5289   8.5481   8.6281   8.6420   8.6624   8.6843   8.6933   8.7095
     8.7980   8.8139   8.8336   8.8445   8.9572   8.9627   8.9706   9.0062
     9.0582   9.0585   9.0884   9.0906   9.2114   9.2591   9.2757   9.2821
     9.3229   9.3232   9.3410   9.3937   9.4057   9.4927   9.6183   9.6202
     9.6543   9.6762   9.6784   9.6856   9.6863   9.7100   9.7236   9.7671
     9.8809   9.9045   9.9243   9.9310   9.9603   9.9802  10.0729  10.1042
    10.1153  10.1430  10.1464  10.1580  10.1821  10.2057  10.3883  10.3891
    10.4394  10.4643  10.4655  10.5241  10.5715  10.5934  10.7118  10.7567
    10.9712  10.9963  11.0236  11.0437  11.0441  11.0530  11.0643  11.0879
    11.1175  11.1611  11.1630  11.2074  11.2247  11.2376  11.2547  11.3507
    11.3966  11.4029  11.4057  11.4333  11.4970  11.4985  11.5032  11.5814
    11.5869  11.5957  11.6114  11.6205  11.6427  11.6503  11.6898  11.7070
    11.7343  11.7761  11.8034  11.8254  11.8338  11.8494  11.8813  11.8906
    11.9220  11.9615  11.9655  12.0424  12.0813  12.0904  12.0910  12.0992
    12.1348  12.2187  12.2195  12.2326  12.2875  12.3117  12.3703  12.3925
    12.4134  12.4495  12.4718  12.4769  12.5367  12.5495  12.5656  12.6397
    12.6564  12.6611  12.7720  12.7720  12.7730  12.7920  12.8323  12.8500
    12.9275  12.9379  13.0018  13.0832  13.1105  13.1709  13.2774  13.3874
    13.4000  13.4392  13.4411  13.4665  13.4967  13.5464  13.5536  13.5845
    13.6118  13.6292  13.6426  13.6668  13.7773  13.8741  13.8792  13.8851
    13.8851  13.8944  13.9064  13.9260  13.9698  13.9842  14.0268  14.0487
    14.0778  14.1340  14.1738  14.1950  14.2223  14.2822  14.2911  14.3155
    14.3253  14.3868  14.3929  14.3935  14.4055  14.4314  14.4520  14.4987
    14.5085  14.5808  14.6302  14.6310  14.6314  14.6658  14.7589  14.7622
    14.7968  14.8022  14.8052  14.8741  14.8754  14.9158  14.9245  14.9437
    14.9652  14.9791  14.9818  15.0044  15.0263  15.0361  15.0492  15.1147
    15.1575  15.1974  15.1989  15.2185  15.2631  15.3086  15.3423  15.3512
    15.3818  15.3993  15.4014  15.4223  15.5075  15.5202  15.5871  15.6032
    15.6088  15.6217  15.6234  15.6345  15.6345  15.6504  15.6755  15.6987
    15.7122  15.7142  15.7335  15.7567

     the Fermi energy is    -2.1109 ev

     Writing output data file ANTI13-4-6.save/

     init_run     :      9.70s CPU      9.99s WALL (       1 calls)
     electrons    :   4898.26s CPU   4957.27s WALL (       1 calls)

     Called by init_run:
     wfcinit      :      0.00s CPU      0.00s WALL (       1 calls)
     potinit      :      0.72s CPU      0.78s WALL (       1 calls)
     hinit0       :      7.20s CPU      7.28s WALL (       1 calls)

     Called by electrons:
     c_bands      :   4898.24s CPU   4957.13s WALL (       1 calls)
     v_of_rho     :      0.56s CPU      0.58s WALL (       1 calls)
     newd         :      0.41s CPU      0.53s WALL (       1 calls)

     Called by c_bands:
     init_us_2    :      0.43s CPU      0.53s WALL (      26 calls)
     cegterg      :   4793.69s CPU   4845.61s WALL (      83 calls)

     Called by sum_band:

     Called by *egterg:
     h_psi        :   1151.37s CPU   1169.54s WALL (    1412 calls)
     s_psi        :    126.14s CPU    126.78s WALL (    1412 calls)
     g_psi        :      7.18s CPU      7.22s WALL (    1303 calls)
     cdiaghg      :   2041.68s CPU   2050.65s WALL (    1329 calls)

     Called by h_psi:
     h_psi:pot    :   1141.83s CPU   1156.68s WALL (    1412 calls)
     h_psi:calbec :    116.03s CPU    118.02s WALL (    1412 calls)
     vloc_psi     :    896.77s CPU    908.85s WALL (    1412 calls)
     add_vuspsi   :    129.01s CPU    129.76s WALL (    1412 calls)

     General routines
     calbec       :    116.02s CPU    117.99s WALL (    1412 calls)
     fft          :      0.58s CPU      0.63s WALL (      14 calls)
     ffts         :      0.00s CPU      0.00s WALL (       1 calls)
     fftw         :    720.94s CPU    730.91s WALL (  478024 calls)
     interpolate  :      0.04s CPU      0.04s WALL (       1 calls)
     davcio       :      0.00s CPU      5.08s WALL (      52 calls)

     Parallel routines
     fft_scatt_xy :    128.22s CPU    129.77s WALL (  478039 calls)
     fft_scatt_yz :    147.13s CPU    149.69s WALL (  478039 calls)

     PWSCF        :     1h21m CPU       21h 1m WALL

      26h

   This run was terminated on:  22:28: 0  15Apr2021            

=------------------------------------------------------------------------------=
   JOB DONE.
=------------------------------------------------------------------------------=
