
     Program PWSCF v.6.3 starts on 15Apr2021 at 23:15:44 

     This program is part of the open-source Quantum ESPRESSO suite
     for quantum simulation of materials; please cite
         "P. Giannozzi et al., J. Phys.:Condens. Matter 21 395502 (2009);
         "P. Giannozzi et al., J. Phys.:Condens. Matter 29 465901 (2017);
          URL http://www.quantum-espresso.org", 
     in publications or presentations arising from this work. More details at
     http://www.quantum-espresso.org/quote

     Parallel version (MPI), running on    16 processors
     R & G space division:  proc/nbgrp/npool/nimage =      16
     Waiting for input...
     Reading input from standard input
     Message from routine read_cards :
     DEPRECATED: no units specified in CELL_PARAMETERS card

     Current dimensions of program PWSCF are:
     Max number of different atomic species (ntypx) = 10
     Max number of k-points (npk) =  40000
     Max angular momentum in pseudopotentials (lmaxx) =  3

     Atomic positions and unit cell read from directory:
     /home/zfwang/scratch/GNRDATASET/AGNR/ANTI13-6-6/ANTI13-6-6.save/


     Subspace diagonalization in iterative solution of the eigenvalue problem:
     a serial algorithm will be used


     Parallelization info
     --------------------
     sticks:   dense  smooth     PW     G-vecs:    dense   smooth      PW
     Min        2556     852    221               287136    55262    7339
     Max        2558     854    222               287139    55263    7342
     Sum       40909   13645   3551              4594185   884201  117443



     bravais-lattice index     =            0
     lattice parameter (alat)  =       1.8897  a.u.
     unit-cell volume          =   25873.1145 (a.u.)^3
     number of atoms/cell      =           90
     number of atomic types    =            2
     number of electrons       =       306.00
     number of Kohn-Sham states=          500
     kinetic-energy cutoff     =      40.0000  Ry
     charge density cutoff     =     480.0000  Ry
     Exchange-correlation      = PBE ( 1  4  3  4 0 0)

     celldm(1)=  18.897261  celldm(2)=   3.000000  celldm(3)=   1.278000
     celldm(4)=   0.000000  celldm(5)=   0.000000  celldm(6)=   0.000000

     crystal axes: (cart. coord. in units of alat)
               a(1) = (  10.000000   0.000000   0.000000 )  
               a(2) = (   0.000000  30.000000   0.000000 )  
               a(3) = (   0.000000   0.000000  12.780000 )  

     reciprocal axes: (cart. coord. in units 2 pi/alat)
               b(1) = (  0.100000  0.000000  0.000000 )  
               b(2) = (  0.000000  0.033333  0.000000 )  
               b(3) = (  0.000000  0.000000  0.078247 )  


     PseudoPot. # 1 for C  read from file:
     /home/zfwang/hp_home/MySoftware/qe-6.3/pseudo/C.pbe-n-rrkjus_psl.0.1.UPF
     MD5 check sum: fff530ed632a789b3b184014e67dd7f1
     Pseudo is Ultrasoft + core correction, Zval =  4.0
     Generated using "atomic" code by A. Dal Corso v.5.0.2 svn rev. 9415
     Using radial grid of 1073 points,  4 beta functions with: 
                l(1) =   0
                l(2) =   0
                l(3) =   1
                l(4) =   1
     Q(r) pseudized with 0 coefficients 


     PseudoPot. # 2 for H  read from file:
     /home/zfwang/hp_home/MySoftware/qe-6.3/pseudo/H.pbe-rrkjus_psl.0.1.UPF
     MD5 check sum: e164a6907b691c6980f16942be34de84
     Pseudo is Ultrasoft, Zval =  1.0
     Generated using "atomic" code by A. Dal Corso v.5.0.2 svn rev. 9415
     Using radial grid of  929 points,  2 beta functions with: 
                l(1) =   0
                l(2) =   0
     Q(r) pseudized with 0 coefficients 


     atomic species   valence    mass     pseudopotential
        C              4.00    12.01070     C ( 1.00)
        H              1.00     1.00794     H ( 1.00)

     No symmetry found



   Cartesian axes

     site n.     atom                  positions (alat units)
         1           C   tau(   1) = (   4.9999998   7.6076698   0.6821472  )
         2           C   tau(   2) = (   5.0000036   8.8144067   1.4134095  )
         3           C   tau(   3) = (   4.9999947  10.0487754   0.7109544  )
         4           C   tau(   4) = (   4.9999948  11.2858304   1.4171206  )
         5           C   tau(   5) = (   4.9999860  12.5230640   0.7080857  )
         6           C   tau(   6) = (   4.9999848  13.7624843   1.4140858  )
         7           C   tau(   7) = (   4.9999805  14.9999690   0.7127151  )
         8           C   tau(   8) = (   4.9999756  16.2374898   1.4140355  )
         9           C   tau(   9) = (   4.9999820  17.4769591   0.7081571  )
        10           C   tau(  10) = (   4.9999947  18.7142020   1.4171666  )
        11           C   tau(  11) = (   5.0000072  19.9513015   0.7110113  )
        12           C   tau(  12) = (   5.0000250  21.1856622   1.4134465  )
        13           C   tau(  13) = (   5.0000206  22.3923812   0.6822934  )
        14           C   tau(  14) = (   5.0000142   7.5995796   4.9401065  )
        15           C   tau(  15) = (   5.0000129   8.8019051   5.6729622  )
        16           C   tau(  16) = (   5.0000161   7.6033433   3.5716169  )
        17           C   tau(  17) = (   5.0000167  10.0326159   4.9667331  )
        18           C   tau(  18) = (   5.0000134  11.2745195   5.6682665  )
        19           C   tau(  19) = (   5.0000138   8.8084508   2.8403160  )
        20           C   tau(  20) = (   5.0000150  10.0424995   3.5450011  )
        21           C   tau(  21) = (   5.0000097  12.4600842   4.9416929  )
        22           C   tau(  22) = (   5.0000058  11.2799670   2.8330490  )
        23           C   tau(  23) = (   5.0000029  12.5087019   3.5520682  )
        24           C   tau(  24) = (   4.9999888  13.7709242   2.8363440  )
        25           C   tau(  25) = (   4.9999803  15.0000037   3.4963393  )
        26           C   tau(  26) = (   4.9999842  17.5399054   4.9417116  )
        27           C   tau(  27) = (   5.0000067  18.7254582   5.6683158  )
        28           C   tau(  28) = (   4.9999731  16.2290809   2.8363564  )
        29           C   tau(  29) = (   4.9999810  17.4913055   3.5520307  )
        30           C   tau(  30) = (   5.0000259  19.9673974   4.9667446  )
        31           C   tau(  31) = (   5.0000317  21.1980670   5.6730184  )
        32           C   tau(  32) = (   4.9999988  18.7200438   2.8330303  )
        33           C   tau(  33) = (   5.0000236  19.9575397   3.5450428  )
        34           C   tau(  34) = (   5.0000333  22.4003813   4.9401580  )
        35           C   tau(  35) = (   5.0000359  21.1915592   2.8403269  )
        36           C   tau(  36) = (   5.0000393  22.3966200   3.5716495  )
        37           C   tau(  37) = (   4.9999898   7.6033610   9.2084190  )
        38           C   tau(  38) = (   4.9999880   8.8084663   9.9396705  )
        39           C   tau(  39) = (   4.9999945   7.5995762   7.8398679  )
        40           C   tau(  40) = (   4.9999881  10.0425054   9.2350019  )
        41           C   tau(  41) = (   4.9999830  11.2799683   9.9469449  )
        42           C   tau(  42) = (   5.0000024   8.8019134   7.1070341  )
        43           C   tau(  43) = (   4.9999976  10.0326170   7.8132314  )
        44           C   tau(  44) = (   4.9999888  12.5086988   9.2279147  )
        45           C   tau(  45) = (   4.9999889  13.7709288   9.9436481  )
        46           C   tau(  46) = (   5.0000047  11.2745355   7.1117046  )
        47           C   tau(  47) = (   5.0000017  12.4600776   7.8382785  )
        48           C   tau(  48) = (   4.9999935  15.0000062   9.2836453  )
        49           C   tau(  49) = (   4.9999947  16.2290830   9.9436447  )
        50           C   tau(  50) = (   4.9999973  17.4913148   9.2279629  )
        51           C   tau(  51) = (   4.9999984  18.7200441   9.9469793  )
        52           C   tau(  52) = (   4.9999973  17.5399163   7.8382730  )
        53           C   tau(  53) = (   5.0000013  19.9575354   9.2349695  )
        54           C   tau(  54) = (   4.9999954  21.1915423   9.9396787  )
        55           C   tau(  55) = (   5.0000063  18.7254453   7.1116661  )
        56           C   tau(  56) = (   5.0000107  19.9673978   7.8132328  )
        57           C   tau(  57) = (   4.9999891  22.3966046   9.2083972  )
        58           C   tau(  58) = (   5.0000182  21.1980626   7.1069898  )
        59           C   tau(  59) = (   5.0000015  22.4003830   7.8398319  )
        60           C   tau(  60) = (   4.9999947   7.6076802  12.0978467  )
        61           C   tau(  61) = (   4.9999887   8.8144187  11.3665966  )
        62           C   tau(  62) = (   4.9999859  10.0487787  12.0690569  )
        63           C   tau(  63) = (   4.9999807  11.2858321  11.3628795  )
        64           C   tau(  64) = (   4.9999819  12.5230627  12.0719189  )
        65           C   tau(  65) = (   4.9999857  13.7624849  11.3659046  )
        66           C   tau(  66) = (   4.9999862  14.9999704  12.0672898  )
        67           C   tau(  67) = (   4.9999901  16.2374884  11.3659654  )
        68           C   tau(  68) = (   4.9999880  17.4769591  12.0718589  )
        69           C   tau(  69) = (   4.9999946  18.7142010  11.3628507  )
        70           C   tau(  70) = (   4.9999996  19.9512935  12.0690169  )
        71           C   tau(  71) = (   4.9999984  21.1856506  11.3665722  )
        72           C   tau(  72) = (   5.0000045  22.3923674  12.0977110  )
        73           H   tau(  73) = (   4.9999975   6.6521219  11.5807224  )
        74           H   tau(  74) = (   4.9999989  23.3478929  11.5807526  )
        75           H   tau(  75) = (   5.0000073  13.3982348   5.4849147  )
        76           H   tau(  76) = (   4.9999868  15.0000266   4.5811306  )
        77           H   tau(  77) = (   4.9999713  16.6017117   5.4848452  )
        78           H   tau(  78) = (   5.0000126  13.3982532   7.2950721  )
        79           H   tau(  79) = (   4.9999920  15.0000417   8.1988441  )
        80           H   tau(  80) = (   4.9999888  16.6017033   7.2951532  )
        81           H   tau(  81) = (   5.0000012   6.6521028   1.1992491  )
        82           H   tau(  82) = (   5.0000280  23.3479167   1.1992217  )
        83           H   tau(  83) = (   5.0000118   6.6415596   5.4539120  )
        84           H   tau(  84) = (   5.0000156   6.6468787   3.0560603  )
        85           H   tau(  85) = (   5.0000196  23.3583675   5.4539647  )
        86           H   tau(  86) = (   5.0000339  23.3530358   3.0560715  )
        87           H   tau(  87) = (   4.9999908   6.6469028   9.7239640  )
        88           H   tau(  88) = (   4.9999943   6.6415592   7.3261144  )
        89           H   tau(  89) = (   4.9999735  23.3530117   9.7239676  )
        90           H   tau(  90) = (   4.9999955  23.3583676   7.3260761  )

     number of k points=    26  Marzari-Vanderbilt smearing, width (Ry)=  0.0100
                       cart. coord. in units 2pi/alat
        k(    1) = (   0.0000000   0.0000000   0.0000000), wk =   0.0400000
        k(    2) = (   0.0000000   0.0000000   0.0015649), wk =   0.0800000
        k(    3) = (   0.0000000   0.0000000   0.0031299), wk =   0.0800000
        k(    4) = (   0.0000000   0.0000000   0.0046948), wk =   0.0800000
        k(    5) = (   0.0000000   0.0000000   0.0062598), wk =   0.0800000
        k(    6) = (   0.0000000   0.0000000   0.0078247), wk =   0.0800000
        k(    7) = (   0.0000000   0.0000000   0.0093897), wk =   0.0800000
        k(    8) = (   0.0000000   0.0000000   0.0109546), wk =   0.0800000
        k(    9) = (   0.0000000   0.0000000   0.0125196), wk =   0.0800000
        k(   10) = (   0.0000000   0.0000000   0.0140845), wk =   0.0800000
        k(   11) = (   0.0000000   0.0000000   0.0156495), wk =   0.0800000
        k(   12) = (   0.0000000   0.0000000   0.0172144), wk =   0.0800000
        k(   13) = (   0.0000000   0.0000000   0.0187793), wk =   0.0800000
        k(   14) = (   0.0000000   0.0000000   0.0203443), wk =   0.0800000
        k(   15) = (   0.0000000   0.0000000   0.0219092), wk =   0.0800000
        k(   16) = (   0.0000000   0.0000000   0.0234742), wk =   0.0800000
        k(   17) = (   0.0000000   0.0000000   0.0250391), wk =   0.0800000
        k(   18) = (   0.0000000   0.0000000   0.0266041), wk =   0.0800000
        k(   19) = (   0.0000000   0.0000000   0.0281690), wk =   0.0800000
        k(   20) = (   0.0000000   0.0000000   0.0297340), wk =   0.0800000
        k(   21) = (   0.0000000   0.0000000   0.0312989), wk =   0.0800000
        k(   22) = (   0.0000000   0.0000000   0.0328638), wk =   0.0800000
        k(   23) = (   0.0000000   0.0000000   0.0344288), wk =   0.0800000
        k(   24) = (   0.0000000   0.0000000   0.0359937), wk =   0.0800000
        k(   25) = (   0.0000000   0.0000000   0.0375587), wk =   0.0800000
        k(   26) = (   0.0000000   0.0000000  -0.0391236), wk =   0.0400000

     Dense  grid:  4594185 G-vectors     FFT dimensions: ( 135, 400, 180)

     Smooth grid:   884201 G-vectors     FFT dimensions: (  80, 240, 100)

     Estimated max dynamical RAM per process >       1.01 GB

     Estimated total dynamical RAM >      16.08 GB

     The potential is recalculated from file :
     /home/zfwang/scratch/GNRDATASET/AGNR/ANTI13-6-6/ANTI13-6-6.save/charge-density.dat


     negative rho (up, down):  2.414E-04 0.000E+00
     Starting wfcs are  306 randomized atomic wfcs +  194 random wfcs

     Band Structure Calculation
     Davidson diagonalization with overlap
     c_bands:  1 eigenvalues not converged

     ethr =  3.27E-09,  avg # of iterations = 81.5

     total cpu time spent up to now is    10362.7 secs

     End of band structure calculation

          k = 0.0000 0.0000 0.0000 (110425 PWs)   bands (ev):

   -21.2328 -21.0688 -20.6740 -20.5752 -20.4462 -20.3886 -20.2635 -19.8874
   -19.8677 -19.4174 -19.3080 -19.1049 -18.9557 -18.6471 -18.5997 -18.4900
   -18.4865 -18.4732 -18.1242 -18.0744 -17.7318 -17.3991 -17.3828 -17.1688
   -17.1391 -16.9595 -16.9591 -16.8303 -16.5258 -16.1846 -16.1773 -16.1451
   -15.8158 -15.7130 -15.0695 -14.9501 -14.9226 -14.8452 -14.8027 -14.6164
   -14.5464 -14.4944 -14.3587 -14.1481 -13.9591 -13.6975 -13.6579 -13.3255
   -13.2877 -12.9797 -12.6703 -12.5886 -12.2863 -12.2019 -12.1091 -11.8752
   -11.8040 -11.6934 -11.6340 -11.5952 -11.5066 -11.4926 -11.3751 -11.1029
   -10.9281 -10.9114 -10.5767 -10.3978 -10.3069 -10.2763 -10.1818  -9.9843
    -9.8740  -9.8519  -9.8008  -9.7430  -9.7191  -9.5097  -9.4754  -9.3170
    -9.3038  -9.2364  -9.1146  -9.1118  -9.0395  -8.8732  -8.7850  -8.7141
    -8.6422  -8.5533  -8.5335  -8.5127  -8.4642  -8.4063  -8.3939  -8.3641
    -8.3356  -8.3116  -8.2249  -8.1787  -8.1396  -8.0983  -8.0196  -7.7744
    -7.7725  -7.7325  -7.7203  -7.6951  -7.6139  -7.4278  -7.3911  -7.2478
    -7.1732  -7.1536  -7.1054  -7.0543  -7.0530  -6.8980  -6.8944  -6.7847
    -6.7473  -6.7237  -6.7200  -6.4964  -6.4486  -6.4406  -6.3209  -6.3039
    -6.1201  -6.1174  -6.1130  -5.8085  -5.7469  -5.7391  -5.5949  -5.4063
    -5.3763  -5.3729  -5.1039  -5.0891  -4.8408  -4.7514  -4.6670  -4.6392
    -4.5460  -4.2573  -4.0970  -3.9942  -3.7435  -3.7369  -3.5006  -2.2399
    -2.2014  -1.8288  -1.7978  -0.7204  -0.5605  -0.5421  -0.3214  -0.3161
    -0.1080   0.1576   0.3200   0.3937   0.6844   0.8227   1.0158   1.0257
     1.0389   1.0824   1.1352   1.2235   1.5688   1.5694   1.8954   1.9024
     1.9373   1.9519   1.9582   1.9587   2.0387   2.1053   2.1721   2.2295
     2.3806   2.3846   2.4326   2.4552   2.4610   2.4674   2.5001   2.5369
     2.5402   2.5762   2.7978   2.8278   2.8409   2.8918   2.9277   2.9807
     3.1095   3.1989   3.2596   3.3229   3.3829   3.4223   3.4315   3.4734
     3.4789   3.4862   3.5372   3.6699   3.6885   3.6894   3.6994   3.7157
     3.7224   3.7874   3.8210   3.8421   3.9524   3.9619   4.0991   4.1797
     4.1853   4.2036   4.2380   4.2497   4.2788   4.2956   4.3126   4.3170
     4.4618   4.4636   4.4897   4.4979   4.5075   4.5653   4.6108   4.6754
     4.7032   4.7872   4.7922   4.8144   4.8398   4.8764   4.8993   4.9012
     4.9193   4.9931   5.0109   5.0258   5.0417   5.1210   5.1239   5.1390
     5.1707   5.1955   5.2170   5.2192   5.2221   5.2747   5.4190   5.4340
     5.4742   5.4972   5.4988   5.5654   5.5771   5.5890   5.6543   5.7451
     5.7648   5.7663   5.8293   5.8382   5.8714   5.8749   5.8787   5.9705
     5.9827   6.0191   6.0319   6.0477   6.0644   6.0650   6.0698   6.1175
     6.1313   6.1326   6.1516   6.1518   6.2114   6.2187   6.2345   6.2456
     6.2768   6.2966   6.3313   6.3657   6.3948   6.4032   6.4241   6.4250
     6.4525   6.4948   6.4997   6.5162   6.5573   6.5783   6.5789   6.6216
     6.6330   6.6676   6.7253   6.7298   6.7514   6.7756   6.7815   6.8103
     6.8177   6.8452   6.8483   6.8564   6.9557   6.9579   6.9849   6.9968
     7.0622   7.0655   7.0799   7.1235   7.1482   7.2024   7.2248   7.2305
     7.2306   7.2528   7.2590   7.2749   7.2949   7.3376   7.3403   7.3756
     7.3847   7.4019   7.4844   7.5029   7.5176   7.5325   7.5341   7.5911
     7.6062   7.6136   7.6427   7.6677   7.6854   7.7084   7.7166   7.7793
     7.8018   7.8377   7.8680   7.8765   7.9329   7.9638   7.9713   7.9891
     8.0442   8.0685   8.0761   8.0834   8.1236   8.1259   8.1316   8.1368
     8.1437   8.1591   8.1701   8.1787   8.2222   8.2528   8.2539   8.3037
     8.3353   8.4139   8.4360   8.4391   8.4521   8.4688   8.5238   8.6121
     8.6260   8.6264   8.6394   8.6470   8.6562   8.7214   8.7387   8.7440
     8.7922   8.8009   8.8446   8.8542   8.8563   8.8692   8.8789   8.9213
     8.9216   8.9480   8.9489   8.9928   9.0273   9.0278   9.0769   9.0918
     9.0936   9.1006   9.1042   9.1809   9.1815   9.2093   9.2260   9.2559
     9.2783   9.2812   9.3413   9.3488   9.3727   9.3775   9.3864   9.3931
     9.4193   9.4272   9.4442   9.4444   9.4831   9.4904   9.5535   9.5583
     9.5774   9.5789   9.6378   9.6750   9.6959   9.7004   9.7535   9.7954
     9.7994   9.8433   9.8509   9.8633   9.9093   9.9241   9.9504   9.9615
     9.9692  10.0210  10.0552  10.0607  10.0672  10.0840  10.1157  10.1172
    10.1234  10.1267  10.1382  10.1499  10.1684  10.2165  10.2622  10.2704
    10.2860  10.3243  10.3693  10.4056  10.4419  10.4749  10.4749  10.4781
    10.4795  10.5354  10.5429  10.6048  10.6129  10.6224  10.6249  10.6358
    10.6525  10.6567  10.6649  10.6700  10.7420  10.7512  10.7623  10.7640
    10.7748  10.7945  10.8060  10.8281

          k = 0.0000 0.0000 0.0016 (110415 PWs)   bands (ev):

   -21.2326 -21.0686 -20.6759 -20.5738 -20.4553 -20.3789 -20.2627 -19.8872
   -19.8678 -19.4166 -19.3103 -19.1021 -18.9558 -18.6598 -18.5964 -18.5287
   -18.4822 -18.4306 -18.1241 -18.0723 -17.7347 -17.3979 -17.3843 -17.1680
   -17.1406 -16.9591 -16.9550 -16.8317 -16.5238 -16.1848 -16.1812 -16.1423
   -15.8205 -15.7176 -15.0706 -14.9509 -14.9181 -14.8594 -14.7853 -14.6131
   -14.5473 -14.4947 -14.3577 -14.1490 -13.9566 -13.6971 -13.6588 -13.3260
   -13.2867 -12.9818 -12.6681 -12.5900 -12.2852 -12.2046 -12.1095 -11.8766
   -11.8107 -11.7059 -11.6401 -11.5771 -11.5489 -11.4423 -11.3714 -11.1032
   -10.9506 -10.8878 -10.5764 -10.4073 -10.3125 -10.2653 -10.1811  -9.9936
    -9.8772  -9.8690  -9.7774  -9.7406  -9.7174  -9.5067  -9.4708  -9.3175
    -9.3036  -9.2363  -9.1152  -9.1115  -9.0437  -8.8693  -8.7969  -8.7031
    -8.6446  -8.5522  -8.5317  -8.5142  -8.4702  -8.4180  -8.3822  -8.3773
    -8.3298  -8.2978  -8.2304  -8.1777  -8.1390  -8.0924  -8.0190  -7.7758
    -7.7722  -7.7342  -7.7205  -7.6937  -7.6139  -7.4334  -7.3860  -7.2467
    -7.2112  -7.1175  -7.1086  -7.0990  -7.0133  -6.8942  -6.8907  -6.8059
    -6.7270  -6.7239  -6.7193  -6.4948  -6.4751  -6.4139  -6.3480  -6.2818
    -6.1696  -6.1179  -6.0606  -5.8084  -5.7472  -5.7364  -5.5955  -5.4067
    -5.3784  -5.3734  -5.1044  -5.0910  -4.8421  -4.7507  -4.6612  -4.6404
    -4.5461  -4.2564  -4.0976  -3.9938  -3.7435  -3.7385  -3.5018  -2.2473
    -2.2071  -1.8233  -1.7906  -0.7198  -0.5585  -0.5404  -0.3255  -0.3113
    -0.1106   0.1594   0.3210   0.3900   0.6864   0.8199   1.0161   1.0235
     1.0281   1.0828   1.1523   1.2238   1.5691   1.5692   1.8707   1.9135
     1.9241   1.9461   1.9516   1.9934   2.0368   2.1023   2.1729   2.2278
     2.3532   2.3842   2.4035   2.4289   2.4667   2.4998   2.5401   2.5409
     2.5510   2.5785   2.7812   2.8281   2.8569   2.8936   2.9236   2.9810
     3.1160   3.1989   3.2593   3.3230   3.3759   3.3920   3.4624   3.4626
     3.4738   3.4806   3.5539   3.6728   3.6820   3.6830   3.6992   3.7020
     3.7531   3.7957   3.7964   3.8667   3.9535   3.9625   4.0994   4.1587
     4.1803   4.2153   4.2309   4.2630   4.2791   4.2875   4.3021   4.3242
     4.4113   4.4844   4.4948   4.5036   4.5298   4.5659   4.6230   4.6679
     4.7045   4.7789   4.7864   4.7935   4.8674   4.8745   4.8821   4.9121
     4.9417   4.9917   5.0002   5.0203   5.0528   5.0638   5.1295   5.1416
     5.1988   5.2040   5.2261   5.2264   5.2340   5.2750   5.4039   5.4303
     5.4419   5.5043   5.5055   5.5748   5.5837   5.5974   5.6513   5.7375
     5.7570   5.7898   5.8158   5.8392   5.8697   5.8725   5.8775   5.9644
     5.9854   6.0020   6.0144   6.0449   6.0639   6.0652   6.0728   6.1257
     6.1348   6.1539   6.1578   6.1594   6.2100   6.2242   6.2354   6.2534
     6.2783   6.2881   6.2958   6.3624   6.3953   6.4130   6.4229   6.4230
     6.4658   6.4701   6.5050   6.5154   6.5529   6.5698   6.6022   6.6285
     6.6530   6.6723   6.7245   6.7263   6.7521   6.7725   6.7774   6.7820
     6.7825   6.8476   6.8800   6.9029   6.9456   6.9614   6.9854   6.9966
     7.0446   7.0722   7.0799   7.1298   7.1526   7.2044   7.2062   7.2277
     7.2293   7.2584   7.2651   7.2765   7.2972   7.3157   7.3668   7.3729
     7.3928   7.3975   7.4560   7.5048   7.5225   7.5315   7.5324   7.5888
     7.6177   7.6199   7.6291   7.6384   7.7222   7.7250   7.7257   7.7621
     7.7939   7.8279   7.8684   7.9180   7.9329   7.9430   7.9681   7.9944
     8.0431   8.0488   8.0741   8.1012   8.1102   8.1128   8.1186   8.1452
     8.1612   8.1654   8.1673   8.1977   8.2058   8.2475   8.2555   8.3356
     8.3411   8.4090   8.4239   8.4351   8.4432   8.4983   8.5109   8.5888
     8.6226   8.6252   8.6323   8.6560   8.6601   8.7125   8.7379   8.7417
     8.7953   8.8147   8.8324   8.8396   8.8506   8.8953   8.8958   8.9163
     8.9225   8.9422   8.9443   9.0039   9.0244   9.0271   9.0712   9.0716
     9.0921   9.0989   9.1043   9.1859   9.2070   9.2087   9.2293   9.2551
     9.2553   9.2906   9.3236   9.3361   9.3409   9.3874   9.3930   9.3946
     9.4224   9.4336   9.4608   9.4700   9.4871   9.4951   9.5540   9.5687
     9.5743   9.5783   9.6295   9.6781   9.6957   9.6986   9.7423   9.7950
     9.8131   9.8443   9.8462   9.8488   9.9162   9.9225   9.9424   9.9630
     9.9671   9.9791  10.0419  10.0481  10.0546  10.1112  10.1130  10.1226
    10.1432  10.1453  10.1509  10.1641  10.1780  10.2168  10.2499  10.2588
    10.3110  10.3254  10.3691  10.4015  10.4279  10.4581  10.4641  10.4773
    10.4932  10.5291  10.5557  10.5874  10.6000  10.6141  10.6230  10.6314
    10.6482  10.6514  10.6574  10.7049  10.7319  10.7459  10.7517  10.7556
    10.7613  10.8185  10.8348  10.8428

          k = 0.0000 0.0000 0.0031 (110415 PWs)   bands (ev):

   -21.2322 -21.0679 -20.6812 -20.5702 -20.4743 -20.3586 -20.2603 -19.8867
   -19.8681 -19.4143 -19.3171 -19.0940 -18.9562 -18.6876 -18.5943 -18.5763
   -18.4614 -18.3817 -18.1239 -18.0663 -17.7434 -17.3948 -17.3885 -17.1657
   -17.1445 -16.9583 -16.9433 -16.8356 -16.5179 -16.1905 -16.1854 -16.1362
   -15.8343 -15.7312 -15.0743 -14.9595 -14.9047 -14.8724 -14.7567 -14.6030
   -14.5503 -14.4954 -14.3547 -14.1519 -13.9493 -13.6961 -13.6617 -13.3272
   -13.2837 -12.9880 -12.6614 -12.5941 -12.2826 -12.2119 -12.1110 -11.8810
   -11.8363 -11.7181 -11.6661 -11.5756 -11.5436 -11.3843 -11.3595 -11.1042
   -10.9782 -10.8565 -10.5758 -10.4287 -10.3284 -10.2396 -10.1792 -10.0196
    -9.8934  -9.8871  -9.7361  -9.7328  -9.7120  -9.4977  -9.4581  -9.3192
    -9.3030  -9.2360  -9.1167  -9.1106  -9.0550  -8.8587  -8.8221  -8.6804
    -8.6516  -8.5490  -8.5268  -8.5204  -8.4838  -8.4342  -8.4020  -8.3659
    -8.3156  -8.2715  -8.2442  -8.1748  -8.1372  -8.0772  -8.0173  -7.7805
    -7.7715  -7.7380  -7.7212  -7.6903  -7.6142  -7.4453  -7.3755  -7.2588
    -7.2436  -7.1468  -7.1174  -7.0756  -6.9833  -6.8804  -6.8801  -6.8394
    -6.7243  -6.7178  -6.6961  -6.5048  -6.4900  -6.3849  -6.3833  -6.2608
    -6.2236  -6.1101  -6.0060  -5.8079  -5.7483  -5.7285  -5.5973  -5.4079
    -5.3845  -5.3750  -5.1061  -5.0965  -4.8454  -4.7487  -4.6450  -4.6439
    -4.5462  -4.2540  -4.0991  -3.9924  -3.7458  -3.7410  -3.5055  -2.2679
    -2.2233  -1.8076  -1.7701  -0.7180  -0.5527  -0.5353  -0.3308  -0.3038
    -0.1180   0.1641   0.3240   0.3794   0.6915   0.8121   0.9929   1.0172
     1.0349   1.0838   1.1882   1.2247   1.5684   1.5702   1.8399   1.8904
     1.9162   1.9300   1.9815   2.0291   2.0308   2.0940   2.1751   2.2124
     2.3246   2.3362   2.3943   2.3945   2.5060   2.5316   2.5469   2.5561
     2.5753   2.6262   2.7530   2.8292   2.8824   2.8992   2.9118   2.9842
     3.1333   3.1991   3.2579   3.3229   3.3576   3.3581   3.4337   3.4648
     3.4748   3.4980   3.5829   3.6501   3.6662   3.6858   3.7026   3.7238
     3.7640   3.7876   3.8151   3.8988   3.9572   3.9647   4.1001   4.1260
     4.1812   4.1849   4.2651   4.2657   4.2666   4.2749   4.2802   4.3462
     4.3572   4.4909   4.4927   4.5053   4.5638   4.5963   4.6461   4.6476
     4.7058   4.7570   4.7584   4.7975   4.8542   4.8765   4.9055   4.9379
     4.9573   4.9843   5.0000   5.0001   5.0100   5.0697   5.1013   5.1462
     5.2076   5.2393   5.2411   5.2460   5.2759   5.2864   5.3697   5.3802
     5.4486   5.4751   5.5260   5.5718   5.5911   5.6263   5.6653   5.7315
     5.7389   5.7834   5.8316   5.8427   5.8643   5.8647   5.8712   5.9320
     5.9633   5.9917   6.0123   6.0406   6.0531   6.0548   6.0829   6.1330
     6.1613   6.1692   6.1737   6.1892   6.2135   6.2143   6.2384   6.2610
     6.2628   6.2917   6.2935   6.3234   6.3688   6.3897   6.4178   6.4303
     6.4738   6.5063   6.5080   6.5122   6.5395   6.5673   6.6250   6.6498
     6.6797   6.6974   6.6981   6.7170   6.7288   6.7503   6.7581   6.7853
     6.7964   6.8509   6.9192   6.9251   6.9646   6.9703   6.9868   6.9960
     7.0189   7.0751   7.0790   7.1406   7.1566   7.1641   7.2188   7.2240
     7.2405   7.2506   7.2726   7.2956   7.2971   7.2973   7.3633   7.3710
     7.3821   7.4293   7.4384   7.4634   7.5205   7.5312   7.5628   7.5759
     7.5836   7.6006   7.6351   7.6882   7.7334   7.7388   7.7391   7.7571
     7.7704   7.8694   7.8720   7.9111   7.9319   7.9325   7.9666   7.9937
     8.0397   8.0628   8.0642   8.0865   8.0892   8.1006   8.1159   8.1406
     8.1467   8.1743   8.1959   8.2000   8.2294   8.2613   8.2701   8.3368
     8.3803   8.4021   8.4079   8.4236   8.4568   8.4772   8.5348   8.5478
     8.6105   8.6219   8.6244   8.6509   8.6637   8.6746   8.7332   8.7845
     8.8013   8.8090   8.8177   8.8314   8.8409   8.8988   8.9179   8.9316
     8.9339   8.9346   8.9368   9.0049   9.0255   9.0328   9.0467   9.0652
     9.0766   9.0899   9.1100   9.2030   9.2127   9.2231   9.2306   9.2390
     9.2520   9.2752   9.2914   9.3158   9.3405   9.3929   9.4039   9.4070
     9.4132   9.4430   9.4864   9.4970   9.5006   9.5173   9.5594   9.5620
     9.5812   9.5958   9.6256   9.6401   9.7046   9.7061   9.7395   9.7948
     9.8169   9.8311   9.8439   9.8454   9.8701   9.8918   9.9263   9.9656
     9.9708   9.9999  10.0254  10.0261  10.0392  10.1024  10.1278  10.1307
    10.1517  10.1518  10.1751  10.1841  10.2196  10.2299  10.2499  10.2638
    10.3280  10.3414  10.3661  10.3911  10.3994  10.4389  10.4428  10.4689
    10.5029  10.5157  10.5265  10.5588  10.5843  10.6169  10.6185  10.6424
    10.6487  10.6518  10.6588  10.6933  10.7080  10.7228  10.7271  10.7755
    10.7868  10.8336  10.8612  10.8764

          k = 0.0000 0.0000 0.0047 (110415 PWs)   bands (ev):

   -21.2314 -21.0666 -20.6892 -20.5649 -20.4958 -20.3347 -20.2563 -19.8857
   -19.8686 -19.4104 -19.3273 -19.0815 -18.9568 -18.7210 -18.6236 -18.5972
   -18.4328 -18.3322 -18.1236 -18.0564 -17.7570 -17.3950 -17.3905 -17.1624
   -17.1492 -16.9574 -16.9253 -16.8411 -16.5087 -16.2027 -16.1865 -16.1293
   -15.8563 -15.7524 -15.0808 -14.9839 -14.8835 -14.8661 -14.7283 -14.5860
   -14.5554 -14.4958 -14.3499 -14.1564 -13.9375 -13.6947 -13.6663 -13.3290
   -13.2789 -12.9978 -12.6508 -12.6006 -12.2811 -12.2204 -12.1139 -11.8891
   -11.8815 -11.7140 -11.7100 -11.5791 -11.5126 -11.3377 -11.3276 -11.1058
   -11.0041 -10.8240 -10.5767 -10.4517 -10.3524 -10.2078 -10.1773 -10.0565
    -9.9151  -9.9039  -9.7200  -9.7020  -9.6911  -9.4838  -9.4392  -9.3217
    -9.3020  -9.2354  -9.1190  -9.1091  -9.0708  -8.8517  -8.8438  -8.6619
    -8.6550  -8.5438  -8.5357  -8.5198  -8.4956  -8.4507  -8.4288  -8.3488
    -8.2999  -8.2605  -8.2420  -8.1700  -8.1344  -8.0573  -8.0140  -7.7891
    -7.7702  -7.7416  -7.7221  -7.6863  -7.6149  -7.4591  -7.3639  -7.3078
    -7.2384  -7.1955  -7.1306  -7.0363  -6.9679  -6.8745  -6.8642  -6.8534
    -6.7251  -6.7146  -6.6656  -6.5340  -6.4816  -6.4239  -6.3527  -6.2773
    -6.2501  -6.0949  -5.9514  -5.8071  -5.7501  -5.7158  -5.6003  -5.4101
    -5.3945  -5.3776  -5.1087  -5.1050  -4.8489  -4.7454  -4.6500  -4.6205
    -4.5458  -4.2503  -4.1017  -3.9902  -3.7542  -3.7404  -3.5115  -2.2990
    -2.2477  -1.7841  -1.7394  -0.7152  -0.5431  -0.5266  -0.3355  -0.2955
    -0.1296   0.1709   0.3294   0.3629   0.6979   0.8003   0.9610   1.0189
     1.0451   1.0856   1.2261   1.2301   1.5671   1.5720   1.8090   1.8574
     1.9058   1.9165   2.0147   2.0195   2.0654   2.0824   2.1705   2.1781
     2.2712   2.3265   2.3604   2.4104   2.5231   2.5405   2.5771   2.5784
     2.5945   2.6974   2.7234   2.8310   2.8904   2.9091   2.9095   2.9940
     3.1578   3.1997   3.2537   3.3216   3.3247   3.3338   3.4046   3.4417
     3.4765   3.5341   3.6036   3.6172   3.6578   3.7044   3.7086   3.7315
     3.7555   3.8223   3.8387   3.9290   3.9638   3.9697   4.0943   4.1012
     4.1535   4.1828   4.2277   4.2470   4.2556   4.2820   4.3029   4.3035
     4.3768   4.4700   4.5039   4.5135   4.5784   4.6320   4.6415   4.6716
     4.7046   4.7324   4.7400   4.8040   4.8366   4.8838   4.9128   4.9383
     4.9657   4.9675   4.9685   5.0051   5.0286   5.0704   5.0866   5.1484
     5.2099   5.2604   5.2753   5.2774   5.2781   5.3091   5.3498   5.3572
     5.4350   5.4533   5.5506   5.5521   5.5878   5.6552   5.6947   5.7011
     5.7421   5.7530   5.8413   5.8494   5.8515   5.8648   5.8764   5.8941
     5.9321   5.9736   6.0273   6.0362   6.0457   6.0469   6.0976   6.1278
     6.1583   6.1733   6.1750   6.2207   6.2239   6.2312   6.2440   6.2445
     6.2617   6.2904   6.3094   6.3293   6.3314   6.3471   6.4056   6.4259
     6.4972   6.5074   6.5185   6.5337   6.5503   6.5647   6.6303   6.6495
     6.6510   6.6867   6.7191   6.7194   6.7336   6.7445   6.7711   6.8013
     6.8036   6.8709   6.8885   6.9657   6.9808   6.9887   6.9923   6.9957
     7.0274   7.0713   7.0754   7.1126   7.1534   7.1753   7.2285   7.2324
     7.2348   7.2583   7.2630   7.2804   7.2847   7.3184   7.3435   7.3555
     7.3915   7.4226   7.4361   7.4861   7.4862   7.5219   7.5463   7.5756
     7.5872   7.6096   7.6502   7.6960   7.7025   7.7422   7.7672   7.7817
     7.8079   7.8712   7.8786   7.9027   7.9205   7.9260   7.9306   8.0350
     8.0486   8.0494   8.0589   8.0792   8.0862   8.0898   8.0999   8.1077
     8.1615   8.1650   8.2318   8.2336   8.2636   8.2736   8.2975   8.3387
     8.3510   8.3985   8.4058   8.4326   8.4602   8.4705   8.5042   8.5670
     8.5927   8.6026   8.6168   8.6215   8.6562   8.6841   8.7196   8.7958
     8.7990   8.7997   8.8236   8.8289   8.8334   8.8825   8.9189   8.9208
     8.9223   8.9646   8.9699   8.9800   9.0257   9.0285   9.0449   9.0616
     9.0868   9.0898   9.1200   9.1552   9.1774   9.2196   9.2417   9.2430
     9.2546   9.2989   9.2993   9.3124   9.3426   9.3929   9.3988   9.4029
     9.4268   9.4517   9.4943   9.5193   9.5216   9.5426   9.5449   9.5605
     9.5874   9.6122   9.6343   9.6349   9.6675   9.7091   9.7799   9.7841
     9.7879   9.8027   9.8050   9.8435   9.8562   9.8774   9.9127   9.9768
     9.9888   9.9981  10.0186  10.0225  10.0369  10.0859  10.1309  10.1336
    10.1539  10.1565  10.2016  10.2143  10.2250  10.2274  10.2422  10.3286
    10.3411  10.3458  10.3602  10.3788  10.3826  10.4061  10.4408  10.4622
    10.4749  10.4962  10.5038  10.5050  10.6040  10.6122  10.6184  10.6375
    10.6401  10.6602  10.6624  10.6777  10.6980  10.6993  10.7036  10.8162
    10.8171  10.8513  10.8570  10.8954

          k = 0.0000 0.0000 0.0063 (110399 PWs)   bands (ev):

   -21.2303 -21.0649 -20.6991 -20.5586 -20.5180 -20.3093 -20.2509 -19.8844
   -19.8692 -19.4050 -19.3400 -19.0657 -18.9578 -18.7567 -18.6704 -18.6042
   -18.4005 -18.2823 -18.1232 -18.0430 -17.7750 -17.4035 -17.3862 -17.1586
   -17.1529 -16.9570 -16.9025 -16.8468 -16.4970 -16.2169 -16.1881 -16.1226
   -15.8852 -15.7798 -15.0902 -15.0191 -14.8557 -14.8449 -14.7010 -14.5627
   -14.5626 -14.4950 -14.3433 -14.1625 -13.9216 -13.6933 -13.6725 -13.3312
   -13.2723 -13.0109 -12.6367 -12.6093 -12.2865 -12.2237 -12.1194 -11.9373
   -11.9028 -11.7552 -11.6988 -11.5722 -11.4896 -11.3053 -11.2749 -11.1078
   -11.0261 -10.7904 -10.5825 -10.4696 -10.3823 -10.1759 -10.1751 -10.0989
    -9.9347  -9.9264  -9.7054  -9.6851  -9.6455  -9.4661  -9.4169  -9.3247
    -9.3006  -9.2344  -9.1217  -9.1070  -9.0883  -8.8830  -8.8266  -8.6745
    -8.6293  -8.5601  -8.5374  -8.5118  -8.5025  -8.4668  -8.4558  -8.3313
    -8.2976  -8.2645  -8.2113  -8.1634  -8.1309  -8.0364  -8.0077  -7.8019
    -7.7685  -7.7441  -7.7232  -7.6824  -7.6165  -7.4732  -7.3578  -7.3525
    -7.2442  -7.2313  -7.1466  -7.0011  -6.9643  -6.9097  -6.8442  -6.8174
    -6.7264  -6.7097  -6.6368  -6.5622  -6.4693  -6.4639  -6.3307  -6.3219
    -6.2498  -6.0722  -5.8975  -5.8054  -5.7526  -5.6989  -5.6044  -5.4130
    -5.4085  -5.3813  -5.1158  -5.1121  -4.8511  -4.7413  -4.6584  -4.5902
    -4.5445  -4.2459  -4.1052  -3.9872  -3.7667  -3.7389  -3.5195  -2.3375
    -2.2782  -1.7548  -1.7015  -0.7116  -0.5301  -0.5144  -0.3395  -0.2862
    -0.1443   0.1781   0.3377   0.3416   0.7023   0.7856   0.9331   1.0213
     1.0573   1.0881   1.2282   1.2745   1.5652   1.5745   1.7786   1.8251
     1.8760   1.9160   2.0005   2.0469   2.0710   2.1023   2.1139   2.1819
     2.2120   2.3271   2.3469   2.4304   2.5310   2.5438   2.5818   2.6146
     2.6387   2.6941   2.7693   2.8336   2.8698   2.9242   2.9269   3.0124
     3.1865   3.2010   3.2422   3.2919   3.3125   3.3163   3.3803   3.4143
     3.4789   3.5700   3.5853   3.5957   3.6779   3.6996   3.7068   3.7372
     3.7913   3.8565   3.8625   3.9508   3.9743   3.9825   4.0641   4.1017
     4.1223   4.1827   4.1850   4.2203   4.2394   4.2496   4.2844   4.3413
     4.4109   4.4422   4.5057   4.5378   4.5476   4.6429   4.6749   4.7031
     4.7043   4.7062   4.7352   4.8086   4.8291   4.8856   4.8919   4.8947
     4.9403   4.9961   5.0011   5.0041   5.0398   5.0589   5.1075   5.1474
     5.2127   5.2446   5.2797   5.2874   5.3115   5.3161   5.3340   5.3927
     5.4176   5.4599   5.5222   5.5802   5.5892   5.6507   5.6718   5.6965
     5.7348   5.7770   5.7967   5.8335   5.8559   5.8613   5.8677   5.9055
     5.9141   5.9752   6.0080   6.0158   6.0459   6.0800   6.0902   6.1079
     6.1383   6.1665   6.1876   6.1924   6.2493   6.2499   6.2529   6.2668
     6.2706   6.2744   6.2847   6.2907   6.3618   6.3852   6.3955   6.4316
     6.4926   6.4980   6.4993   6.5568   6.5604   6.5815   6.6058   6.6172
     6.6485   6.6948   6.7176   6.7418   6.7489   6.7757   6.7766   6.7977
     6.8135   6.8909   6.9035   6.9671   6.9847   6.9865   6.9919   7.0096
     7.0440   7.0758   7.0884   7.0971   7.1692   7.1799   7.2128   7.2298
     7.2313   7.2500   7.2661   7.2781   7.2787   7.3067   7.3147   7.3628
     7.3961   7.4353   7.4370   7.4408   7.5035   7.5269   7.5410   7.5617
     7.6053   7.6355   7.6366   7.6804   7.7019   7.7608   7.8040   7.8230
     7.8330   7.8457   7.8649   7.8736   7.8878   7.9275   7.9537   8.0291
     8.0331   8.0361   8.0480   8.0781   8.0801   8.0960   8.1184   8.1270
     8.1597   8.1763   8.2612   8.2666   8.2925   8.2981   8.3124   8.3295
     8.3413   8.3842   8.3855   8.4002   8.4482   8.4748   8.5263   8.5504
     8.5596   8.6099   8.6176   8.6218   8.6520   8.6828   8.6972   8.7689
     8.7810   8.7916   8.8086   8.8223   8.8737   8.8767   8.9032   8.9079
     8.9250   8.9587   8.9771   8.9887   9.0149   9.0353   9.0512   9.0611
     9.0748   9.1188   9.1272   9.1280   9.1415   9.2177   9.2267   9.2462
     9.2750   9.3106   9.3118   9.3492   9.3572   9.3836   9.3931   9.3963
     9.4326   9.4532   9.4983   9.5249   9.5253   9.5380   9.5585   9.5695
     9.5922   9.5996   9.6282   9.6497   9.6960   9.7072   9.7135   9.7437
     9.7709   9.7912   9.8148   9.8204   9.8743   9.9052   9.9090   9.9689
     9.9712  10.0009  10.0138  10.0253  10.0643  10.0851  10.1124  10.1301
    10.1596  10.1784  10.1987  10.2076  10.2373  10.2572  10.2588  10.3055
    10.3259  10.3475  10.3569  10.3681  10.3731  10.3886  10.4301  10.4568
    10.4752  10.4845  10.4853  10.5069  10.5719  10.5735  10.5903  10.6395
    10.6543  10.6630  10.6741  10.6912  10.7015  10.7020  10.7071  10.8291
    10.8292  10.8523  10.8885  10.8926

          k = 0.0000 0.0000 0.0078 (110397 PWs)   bands (ev):

   -21.2290 -21.0627 -20.7103 -20.5520 -20.5401 -20.2830 -20.2441 -19.8828
   -19.8698 -19.3982 -19.3543 -19.0473 -18.9593 -18.7934 -18.7167 -18.6141
   -18.3666 -18.2322 -18.1226 -18.0264 -17.7963 -17.4133 -17.3828 -17.1548
   -17.1544 -16.9580 -16.8759 -16.8512 -16.4835 -16.2329 -16.1904 -16.1165
   -15.9194 -15.8115 -15.1024 -15.0590 -14.8237 -14.8165 -14.6739 -14.5714
   -14.5342 -14.4927 -14.3350 -14.1699 -13.9021 -13.6924 -13.6800 -13.3333
   -13.2643 -13.0267 -12.6198 -12.6198 -12.3025 -12.2176 -12.1291 -11.9981
   -11.9246 -11.7914 -11.6775 -11.5605 -11.4740 -11.2647 -11.2311 -11.1101
   -11.0400 -10.7562 -10.5969 -10.4774 -10.4159 -10.1756 -10.1501 -10.1386
    -9.9527  -9.9512  -9.6907  -9.6612  -9.6008  -9.4464  -9.3943  -9.3273
    -9.2989  -9.2331  -9.1246  -9.1045  -9.1043  -8.9150  -8.8087  -8.6886
    -8.6043  -8.5889  -8.5318  -8.5078  -8.5035  -8.4826  -8.4804  -8.3144
    -8.3133  -8.2508  -8.1796  -8.1553  -8.1270  -8.0198  -7.9947  -7.8184
    -7.7663  -7.7457  -7.7243  -7.6789  -7.6196  -7.4868  -7.4083  -7.3426
    -7.2914  -7.2224  -7.1645  -6.9755  -6.9671  -6.9398  -6.8213  -6.7786
    -6.7283  -6.7025  -6.6105  -6.5884  -6.5043  -6.4529  -6.3837  -6.2913
    -6.2577  -6.0445  -5.8472  -5.7998  -5.7559  -5.6787  -5.6097  -5.4261
    -5.4168  -5.3859  -5.1281  -5.1159  -4.8515  -4.7365  -4.6691  -4.5557
    -4.5420  -4.2414  -4.1096  -3.9834  -3.7825  -3.7369  -3.5292  -2.3810
    -2.3127  -1.7219  -1.6588  -0.7076  -0.5138  -0.4984  -0.3425  -0.2761
    -0.1611   0.1845   0.3168   0.3493   0.7011   0.7690   0.9131   1.0245
     1.0706   1.0913   1.2307   1.3201   1.5625   1.5777   1.7491   1.7934
     1.8420   1.9146   1.9702   2.0505   2.0528   2.0880   2.1399   2.1625
     2.1866   2.2946   2.3749   2.4531   2.5378   2.5472   2.5861   2.6532
     2.6660   2.6787   2.8369   2.8410   2.8466   2.9395   2.9450   3.0391
     3.2037   3.2178   3.2184   3.2598   3.3009   3.3022   3.3662   3.3849
     3.4819   3.5525   3.5739   3.6075   3.6682   3.7100   3.7121   3.7683
     3.8298   3.8842   3.8893   3.9609   3.9898   4.0033   4.0364   4.0915
     4.0971   4.1431   4.1877   4.1944   4.1987   4.2187   4.2876   4.3799
     4.4130   4.4464   4.4937   4.5088   4.5720   4.6426   4.6760   4.6867
     4.7036   4.7404   4.7515   4.7897   4.8353   4.8674   4.8676   4.9077
     4.9124   5.0042   5.0105   5.0245   5.0346   5.0799   5.1354   5.1439
     5.1903   5.2160   5.2829   5.3048   5.3179   5.3297   5.3545   5.3782
     5.4536   5.4943   5.4977   5.5922   5.6026   5.6083   5.6489   5.6815
     5.7431   5.7622   5.7941   5.8117   5.8186   5.8588   5.8943   5.8992
     5.9162   5.9924   5.9931   6.0108   6.0155   6.0709   6.1089   6.1141
     6.1203   6.1290   6.1884   6.1941   6.1982   6.2310   6.2447   6.2666
     6.2842   6.2992   6.3089   6.3208   6.3839   6.4010   6.4369   6.4429
     6.4735   6.4796   6.4941   6.5192   6.5446   6.5808   6.6087   6.6210
     6.6807   6.7104   6.7106   6.7455   6.7618   6.7692   6.7949   6.7966
     6.8372   6.9226   6.9228   6.9590   6.9760   6.9875   6.9959   7.0339
     7.0369   7.0798   7.0956   7.1441   7.1815   7.1868   7.1890   7.2000
     7.2041   7.2352   7.2528   7.2892   7.2908   7.3078   7.3103   7.3485
     7.3853   7.3906   7.4585   7.4834   7.4989   7.5361   7.5418   7.5557
     7.6199   7.6226   7.6555   7.6687   7.7302   7.7668   7.8146   7.8290
     7.8407   7.8461   7.8537   7.8634   7.8766   7.9269   7.9419   8.0001
     8.0150   8.0256   8.0483   8.0827   8.0889   8.1178   8.1451   8.1572
     8.1743   8.1910   8.2814   8.2868   8.2880   8.3114   8.3295   8.3422
     8.3457   8.3516   8.3660   8.4074   8.4100   8.4498   8.5036   8.5474
     8.5908   8.6010   8.6241   8.6420   8.6562   8.6593   8.6710   8.7355
     8.7543   8.7909   8.7913   8.8250   8.8706   8.8718   8.8734   8.9274
     8.9420   8.9537   8.9632   8.9910   8.9982   9.0204   9.0606   9.0621
     9.0636   9.0957   9.1345   9.1639   9.1809   9.2050   9.2187   9.2345
     9.2982   9.3226   9.3365   9.3535   9.3602   9.3942   9.3968   9.3994
     9.4334   9.4418   9.5037   9.5046   9.5104   9.5242   9.5410   9.5941
     9.6034   9.6168   9.6400   9.6526   9.6627   9.6931   9.7135   9.7343
     9.7559   9.7726   9.7728   9.8142   9.9033   9.9287   9.9378   9.9407
     9.9761  10.0129  10.0160  10.0183  10.0403  10.0899  10.1255  10.1455
    10.1668  10.1801  10.1808  10.2188  10.2433  10.2565  10.2686  10.2885
    10.3188  10.3197  10.3437  10.3483  10.3518  10.3891  10.3915  10.4340
    10.4764  10.4835  10.5036  10.5167  10.5294  10.5544  10.5880  10.6593
    10.6634  10.6670  10.6807  10.6985  10.7116  10.7262  10.7381  10.8030
    10.8307  10.8321  10.8447  10.8925

          k = 0.0000 0.0000 0.0094 (110397 PWs)   bands (ev):

   -21.2273 -21.0600 -20.7223 -20.5620 -20.5455 -20.2561 -20.2361 -19.8808
   -19.8702 -19.3901 -19.3697 -19.0271 -18.9616 -18.8299 -18.7623 -18.6262
   -18.3323 -18.1821 -18.1218 -18.0070 -17.8204 -17.4239 -17.3812 -17.1526
   -17.1515 -16.9613 -16.8525 -16.8465 -16.4691 -16.2505 -16.1939 -16.1111
   -15.9575 -15.8456 -15.1172 -15.1013 -14.7900 -14.7850 -14.6448 -14.5804
   -14.5018 -14.4883 -14.3250 -14.1783 -13.8796 -13.6924 -13.6887 -13.3351
   -13.2550 -13.0445 -12.6318 -12.6004 -12.3261 -12.2049 -12.1457 -12.0610
   -11.9541 -11.8142 -11.6530 -11.5462 -11.4630 -11.2198 -11.2042 -11.1121
   -11.0381 -10.7220 -10.6198 -10.4751 -10.4513 -10.1898 -10.1766 -10.1217
    -9.9808  -9.9602  -9.6751  -9.6334  -9.5582  -9.4272  -9.3743  -9.3273
    -9.2968  -9.2315  -9.1270  -9.1164  -9.1011  -8.9470  -8.7915  -8.7037
    -8.6188  -8.5804  -8.5323  -8.5138  -8.5090  -8.4952  -8.4862  -8.3345
    -8.2947  -8.2351  -8.1474  -8.1459  -8.1232  -8.0090  -7.9742  -7.8380
    -7.7636  -7.7468  -7.7252  -7.6755  -7.6249  -7.4996  -7.4590  -7.3457
    -7.3243  -7.2117  -7.1833  -6.9908  -6.9737  -6.9340  -6.7962  -6.7426
    -6.7312  -6.6926  -6.6098  -6.5867  -6.5443  -6.4363  -6.4323  -6.2710
    -6.2607  -6.0142  -5.8184  -5.7728  -5.7599  -5.6560  -5.6161  -5.4471
    -5.4215  -5.3916  -5.1409  -5.1197  -4.8499  -4.7315  -4.6815  -4.5380
    -4.5183  -4.2373  -4.1148  -3.9789  -3.8016  -3.7345  -3.5403  -2.4278
    -2.3501  -1.6865  -1.6128  -0.7033  -0.4948  -0.4786  -0.3443  -0.2650
    -0.1794   0.1891   0.2894   0.3645   0.6909   0.7513   0.9037   1.0283
     1.0840   1.0951   1.2339   1.3665   1.5589   1.5816   1.7207   1.7624
     1.8048   1.9120   1.9263   1.9911   2.0380   2.1209   2.1253   2.1781
     2.1933   2.2627   2.4061   2.4766   2.5456   2.5513   2.5912   2.6401
     2.6927   2.7116   2.8232   2.8409   2.9122   2.9487   2.9711   3.0712
     3.1845   3.2085   3.2283   3.2510   3.2798   3.2979   3.3546   3.3626
     3.4855   3.5213   3.5495   3.6377   3.6439   3.7139   3.7491   3.7987
     3.8701   3.9025   3.9186   3.9669   4.0110   4.0126   4.0128   4.0617
     4.0805   4.1262   4.1529   4.1731   4.1911   4.1948   4.2914   4.3835
     4.4192   4.4398   4.4823   4.5127   4.6005   4.6315   4.6485   4.6756
     4.6997   4.7501   4.7562   4.7983   4.8309   4.8700   4.8835   4.8835
     4.9216   4.9838   5.0042   5.0458   5.0681   5.0798   5.1386   5.1437
     5.1827   5.2200   5.2851   5.2873   5.2902   5.3500   5.3902   5.4195
     5.4608   5.4707   5.5522   5.5650   5.5964   5.6008   5.6333   5.6876
     5.6894   5.7826   5.7842   5.7872   5.8001   5.8558   5.8836   5.8918
     5.9591   5.9644   5.9668   5.9865   6.0580   6.0667   6.0768   6.0990
     6.1134   6.1194   6.1683   6.1761   6.1919   6.2194   6.2337   6.2787
     6.2851   6.3329   6.3465   6.3696   6.3739   6.4303   6.4355   6.4366
     6.4659   6.4689   6.4991   6.5016   6.5324   6.5784   6.6241   6.6290
     6.6994   6.7009   6.7296   6.7452   6.7549   6.7787   6.8010   6.8023
     6.8898   6.8981   6.9049   6.9894   6.9989   7.0008   7.0020   7.0414
     7.0527   7.0918   7.0964   7.1552   7.1689   7.1697   7.1778   7.1970
     7.2059   7.2203   7.2388   7.2743   7.2828   7.3092   7.3350   7.3550
     7.3622   7.3687   7.4865   7.5055   7.5171   7.5265   7.5550   7.5594
     7.6281   7.6314   7.6338   7.7027   7.7348   7.7653   7.7861   7.8210
     7.8278   7.8320   7.8787   7.8800   7.8896   7.9130   7.9304   7.9731
     7.9968   8.0149   8.0502   8.0819   8.1396   8.1500   8.1594   8.1616
     8.2101   8.2136   8.2483   8.2616   8.3166   8.3246   8.3275   8.3298
     8.3444   8.3673   8.3829   8.4025   8.4048   8.4248   8.4617   8.5488
     8.5894   8.5985   8.6267   8.6279   8.6446   8.6559   8.6941   8.7045
     8.7348   8.7799   8.7905   8.8302   8.8441   8.8516   8.8685   8.9210
     8.9292   8.9472   8.9561   8.9859   9.0014   9.0195   9.0394   9.0704
     9.0914   9.0978   9.1408   9.1800   9.1905   9.2195   9.2270   9.2438
     9.3132   9.3215   9.3314   9.3599   9.3737   9.3972   9.3975   9.4227
     9.4250   9.4434   9.4535   9.4836   9.5024   9.5158   9.5299   9.6140
     9.6268   9.6328   9.6391   9.6576   9.6631   9.6715   9.6932   9.7005
     9.7368   9.7417   9.8048   9.8217   9.9000   9.9194   9.9225   9.9799
     9.9823  10.0036  10.0153  10.0305  10.0473  10.0621  10.1305  10.1675
    10.1687  10.1780  10.1963  10.2075  10.2413  10.2415  10.2559  10.2987
    10.3076  10.3112  10.3186  10.3226  10.3407  10.3710  10.3783  10.4072
    10.4597  10.4667  10.4907  10.5124  10.5328  10.5364  10.6523  10.6593
    10.6817  10.6902  10.7000  10.7024  10.7275  10.7494  10.7533  10.7658
    10.7701  10.8249  10.8353  10.8706

          k = 0.0000 0.0000 0.0110 (110427 PWs)   bands (ev):

   -21.2254 -21.0568 -20.7348 -20.5835 -20.5391 -20.2286 -20.2272 -19.8784
   -19.8702 -19.3856 -19.3807 -19.0057 -18.9655 -18.8653 -18.8072 -18.6399
   -18.2981 -18.1346 -18.1181 -17.9851 -17.8463 -17.4349 -17.3818 -17.1492
   -17.1473 -16.9674 -16.8500 -16.8147 -16.4545 -16.2701 -16.1988 -16.1066
   -15.9980 -15.8805 -15.1449 -15.1344 -14.7583 -14.7536 -14.6116 -14.5873
   -14.4815 -14.4669 -14.3133 -14.1875 -13.8546 -13.6982 -13.6939 -13.3362
   -13.2448 -13.0641 -12.6449 -12.5792 -12.3540 -12.1910 -12.1727 -12.1222
   -11.9850 -11.8254 -11.6269 -11.5303 -11.4540 -11.1996 -11.1745 -11.1123
   -11.0150 -10.6893 -10.6479 -10.4858 -10.4663 -10.2334 -10.1798 -10.1146
   -10.0088  -9.9553  -9.6578  -9.6043  -9.5186  -9.4128  -9.3604  -9.3211
    -9.2944  -9.2297  -9.1284  -9.1204  -9.0972  -8.9784  -8.7764  -8.7194
    -8.6474  -8.5586  -8.5423  -8.5350  -8.5217  -8.4873  -8.4802  -8.3538
    -8.2755  -8.2211  -8.1354  -8.1198  -8.1146  -8.0000  -7.9510  -7.8603
    -7.7604  -7.7483  -7.7255  -7.6721  -7.6331  -7.5124  -7.5096  -7.3831
    -7.3198  -7.2026  -7.1994  -7.0252  -6.9828  -6.9147  -6.7696  -6.7357
    -6.7192  -6.6798  -6.6182  -6.5833  -6.5651  -6.4884  -6.4078  -6.2878
    -6.2302  -5.9827  -5.8122  -5.7647  -5.7235  -5.6314  -5.6237  -5.4709
    -5.4270  -5.3983  -5.1537  -5.1233  -4.8465  -4.7272  -4.6947  -4.5324
    -4.4790  -4.2341  -4.1206  -3.9742  -3.8236  -3.7318  -3.5519  -2.4770
    -2.3893  -1.6497  -1.5648  -0.6991  -0.4740  -0.4551  -0.3445  -0.2528
    -0.1984   0.1914   0.2599   0.3831   0.6713   0.7332   0.9053   1.0328
     1.0967   1.0997   1.2376   1.4133   1.5542   1.5863   1.6937   1.7321
     1.7647   1.8707   1.9077   1.9307   2.0266   2.0989   2.1508   2.2050
     2.2170   2.2316   2.4382   2.4978   2.5553   2.5560   2.5971   2.6185
     2.7330   2.7370   2.8004   2.8456   2.9565   2.9823   3.0003   3.1066
     3.1455   3.1976   3.2156   3.2557   3.2854   3.2986   3.3251   3.3647
     3.4895   3.4906   3.5246   3.6083   3.6793   3.7185   3.7863   3.8245
     3.9111   3.9177   3.9391   3.9716   3.9864   3.9963   4.0300   4.0409
     4.0778   4.1175   4.1182   4.1672   4.1685   4.1950   4.2958   4.3542
     4.3848   4.4593   4.5167   4.5173   4.6003   4.6238   4.6341   4.6430
     4.6918   4.7446   4.7593   4.8060   4.8371   4.8543   4.9052   4.9073
     4.9352   4.9641   5.0036   5.0347   5.0627   5.1008   5.1325   5.1567
     5.2170   5.2246   5.2482   5.2685   5.2933   5.3810   5.4246   5.4364
     5.4671   5.4829   5.5010   5.5549   5.6020   5.6180   5.6346   5.6734
     5.6920   5.7479   5.7607   5.7855   5.8132   5.8457   5.8734   5.8911
     5.9055   5.9389   5.9814   6.0133   6.0221   6.0448   6.0800   6.0873
     6.1089   6.1099   6.1458   6.1968   6.1980   6.2189   6.2295   6.2764
     6.2994   6.3668   6.3708   6.3806   6.3850   6.4019   6.4175   6.4236
     6.4584   6.4822   6.5087   6.5296   6.5447   6.5898   6.6379   6.6434
     6.6863   6.7037   6.7073   6.7513   6.7685   6.7922   6.8103   6.8158
     6.8658   6.8786   6.9585   6.9903   7.0065   7.0181   7.0273   7.0517
     7.0530   7.1051   7.1078   7.1332   7.1574   7.1601   7.1669   7.2066
     7.2126   7.2205   7.2242   7.2369   7.2857   7.3198   7.3235   7.3310
     7.3889   7.4031   7.5018   7.5165   7.5199   7.5307   7.5568   7.6059
     7.6114   7.6371   7.6495   7.7041   7.7371   7.7560   7.7560   7.7973
     7.8142   7.8574   7.8691   7.8834   7.8946   7.9237   7.9332   7.9568
     7.9804   8.0056   8.0694   8.0789   8.1594   8.1673   8.1819   8.2049
     8.2177   8.2232   8.2254   8.2348   8.2959   8.2991   8.3334   8.3439
     8.3502   8.3887   8.3950   8.4043   8.4183   8.4372   8.4474   8.5320
     8.5333   8.5737   8.6119   8.6208   8.6330   8.6802   8.6844   8.7186
     8.7498   8.7778   8.7895   8.8003   8.8306   8.8529   8.8551   8.8750
     8.9292   8.9303   8.9579   8.9997   9.0040   9.0188   9.0262   9.0850
     9.1092   9.1365   9.1494   9.1535   9.1880   9.2063   9.2332   9.2935
     9.3069   9.3234   9.3411   9.3707   9.3810   9.3880   9.3949   9.4035
     9.4178   9.4418   9.4624   9.4631   9.4951   9.5083   9.5367   9.6041
     9.6088   9.6224   9.6543   9.6607   9.6634   9.6674   9.6774   9.6839
     9.7322   9.7424   9.8344   9.8461   9.8786   9.9129   9.9203   9.9408
     9.9698   9.9888  10.0148  10.0191  10.0683  10.1033  10.1374  10.1565
    10.1577  10.1809  10.1883  10.2200  10.2281  10.2433  10.2591  10.2624
    10.2771  10.2986  10.3086  10.3302  10.3540  10.3639  10.3640  10.3881
    10.4072  10.4660  10.4794  10.5093  10.5541  10.5630  10.6502  10.6662
    10.6858  10.6884  10.6919  10.6964  10.7209  10.7369  10.7671  10.7842
    10.8002  10.8065  10.8395  10.8688

          k = 0.0000 0.0000 0.0125 (110403 PWs)   bands (ev):

   -21.2232 -21.0531 -20.7476 -20.6046 -20.5331 -20.2175 -20.2006 -19.8756
   -19.8697 -19.4018 -19.3701 -18.9835 -18.9729 -18.8976 -18.8510 -18.6547
   -18.2644 -18.1225 -18.0791 -17.9613 -17.8735 -17.4458 -17.3845 -17.1483
   -17.1386 -16.9757 -16.8436 -16.7810 -16.4405 -16.2918 -16.2060 -16.1041
   -16.0387 -15.9141 -15.1895 -15.1535 -14.7335 -14.7241 -14.5890 -14.5731
   -14.4713 -14.4302 -14.2996 -14.1972 -13.8280 -13.7078 -13.6972 -13.3366
   -13.2338 -13.0847 -12.6589 -12.5565 -12.3845 -12.2119 -12.2082 -12.1506
   -12.0110 -11.8289 -11.6008 -11.5135 -11.4451 -11.2107 -11.1400 -11.1012
   -10.9775 -10.6786 -10.6632 -10.5135 -10.4549 -10.2740 -10.1862 -10.1239
   -10.0347  -9.9350  -9.6388  -9.5761  -9.4830  -9.4068  -9.3550  -9.3058
    -9.2916  -9.2274  -9.1281  -9.1139  -9.0927  -9.0081  -8.7668  -8.7353
    -8.6710  -8.5622  -8.5604  -8.5343  -8.5322  -8.4799  -8.4669  -8.3711
    -8.2559  -8.2098  -8.1242  -8.1173  -8.0814  -7.9907  -7.9280  -7.8849
    -7.7566  -7.7506  -7.7251  -7.6681  -7.6448  -7.5597  -7.5271  -7.4170
    -7.3122  -7.2221  -7.1857  -7.0613  -6.9939  -6.8992  -6.7432  -6.7416
    -6.7201  -6.6642  -6.6196  -6.6022  -6.5449  -6.5401  -6.3803  -6.3069
    -6.1999  -5.9511  -5.8100  -5.7704  -5.6712  -5.6322  -5.6057  -5.4962
    -5.4333  -5.4060  -5.1660  -5.1263  -4.8416  -4.7266  -4.7054  -4.5253
    -4.4384  -4.2323  -4.1267  -3.9696  -3.8483  -3.7289  -3.5635  -2.5277
    -2.4297  -1.6120  -1.5153  -0.6950  -0.4527  -0.4282  -0.3422  -0.2395
    -0.2175   0.1915   0.2290   0.4047   0.6446   0.7150   0.9151   1.0380
     1.1050   1.1081   1.2418   1.4603   1.5478   1.5916   1.6684   1.7024
     1.7213   1.8077   1.8732   1.9014   2.0177   2.0794   2.1715   2.2011
     2.2270   2.2564   2.4694   2.5107   2.5613   2.5679   2.6039   2.6063
     2.7561   2.7739   2.7794   2.8511   2.9639   3.0285   3.0493   3.1056
     3.1440   3.1675   3.2130   3.2473   3.2889   3.3093   3.3205   3.3696
     3.4606   3.4936   3.4999   3.5804   3.7124   3.7239   3.8216   3.8398
     3.9301   3.9379   3.9422   3.9505   3.9781   3.9952   4.0064   4.0695
     4.0767   4.1047   4.1067   4.1409   4.1821   4.1995   4.3003   4.3259
     4.3308   4.5001   4.5223   4.5421   4.5783   4.5788   4.6093   4.6659
     4.6864   4.7436   4.7673   4.7819   4.8250   4.8612   4.9247   4.9468
     4.9471   4.9661   4.9812   5.0016   5.0679   5.1263   5.1317   5.1774
     5.2137   5.2299   5.2567   5.2572   5.3016   5.4042   5.4204   5.4500
     5.4504   5.4783   5.5184   5.5326   5.5704   5.6100   5.6753   5.6958
     5.7145   5.7163   5.7327   5.7732   5.8261   5.8277   5.8489   5.8818
     5.8995   5.9086   5.9621   5.9784   5.9831   6.0273   6.0801   6.0959
     6.1048   6.1468   6.1518   6.2010   6.2020   6.2140   6.2418   6.2719
     6.3099   6.3440   6.3452   6.3786   6.4000   6.4020   6.4230   6.4574
     6.4576   6.5063   6.5079   6.5432   6.5681   6.6114   6.6548   6.6654
     6.6790   6.6900   6.7084   6.7475   6.7671   6.7976   6.7987   6.8177
     6.8516   6.9106   6.9729   7.0062   7.0117   7.0129   7.0173   7.0608
     7.0617   7.0997   7.1234   7.1318   7.1583   7.1619   7.1642   7.1938
     7.2114   7.2127   7.2376   7.2442   7.2454   7.2850   7.3374   7.3741
     7.4149   7.4497   7.4853   7.5226   7.5398   7.5478   7.5556   7.5990
     7.6408   7.6594   7.6678   7.6698   7.7276   7.7403   7.7686   7.7766
     7.7954   7.8323   7.8737   7.8847   7.9141   7.9257   7.9281   7.9657
     7.9855   8.0027   8.0728   8.0845   8.1582   8.1674   8.1686   8.1928
     8.2226   8.2397   8.2414   8.2423   8.2748   8.2923   8.3357   8.3445
     8.3552   8.3554   8.4249   8.4454   8.4565   8.4585   8.4586   8.4721
     8.4979   8.5530   8.5825   8.6011   8.6395   8.6679   8.6724   8.7340
     8.7644   8.7687   8.7883   8.8099   8.8105   8.8282   8.8706   8.8727
     8.9145   8.9307   8.9442   8.9781   9.0067   9.0354   9.0362   9.1046
     9.1231   9.1265   9.1531   9.1661   9.1768   9.1935   9.2224   9.2639
     9.3198   9.3534   9.3548   9.3550   9.3825   9.3851   9.4019   9.4123
     9.4175   9.4453   9.4592   9.4804   9.4853   9.4931   9.5612   9.5652
     9.5782   9.6009   9.6136   9.6333   9.6701   9.6763   9.6884   9.7107
     9.7664   9.7714   9.8496   9.8524   9.8701   9.8928   9.9176   9.9215
     9.9270   9.9619   9.9819  10.0120  10.1002  10.1149  10.1425  10.1499
    10.1708  10.1873  10.1920  10.1938  10.2079  10.2182  10.2191  10.2397
    10.2783  10.2860  10.3315  10.3417  10.3624  10.3727  10.3753  10.3794
    10.3977  10.4227  10.4958  10.5267  10.5542  10.5908  10.6189  10.6284
    10.6513  10.6710  10.6803  10.6810  10.7262  10.7614  10.7759  10.7781
    10.8227  10.8287  10.8669  10.8833

          k = 0.0000 0.0000 0.0141 (110411 PWs)   bands (ev):

   -21.2208 -21.0490 -20.7605 -20.6253 -20.5275 -20.2074 -20.1723 -19.8726
   -19.8684 -19.4181 -19.3585 -18.9874 -18.9623 -18.9228 -18.8923 -18.6705
   -18.2315 -18.1212 -18.0304 -17.9360 -17.9007 -17.4563 -17.3891 -17.1490
   -17.1269 -16.9852 -16.8339 -16.7458 -16.4279 -16.3160 -16.2163 -16.1089
   -16.0729 -15.9443 -15.2348 -15.1743 -14.7205 -14.6972 -14.5828 -14.5291
   -14.4562 -14.3924 -14.2838 -14.2069 -13.8012 -13.7165 -13.7026 -13.3365
   -13.2223 -13.1058 -12.6736 -12.5326 -12.4166 -12.2693 -12.2620 -12.1333
   -12.0305 -11.8272 -11.5762 -11.4970 -11.4344 -11.2282 -11.1318 -11.0646
   -10.9343 -10.7103 -10.6555 -10.5222 -10.4454 -10.3080 -10.1971 -10.1442
   -10.0562  -9.9050  -9.6184  -9.5509  -9.4529  -9.4076  -9.3581  -9.2885
    -9.2835  -9.2239  -9.1257  -9.0969  -9.0877  -9.0342  -8.7684  -8.7513
    -8.6830  -8.5852  -8.5815  -8.5461  -8.5142  -8.4729  -8.4503  -8.3855
    -8.2361  -8.2013  -8.1161  -8.1125  -8.0477  -7.9813  -7.9116  -7.9063
    -7.7543  -7.7524  -7.7236  -7.6633  -7.6606  -7.6088  -7.5460  -7.4397
    -7.3052  -7.2415  -7.1707  -7.0977  -7.0066  -6.8884  -6.7558  -6.7380
    -6.7126  -6.6510  -6.6469  -6.5913  -6.5695  -6.5252  -6.3505  -6.3275
    -6.1698  -5.9199  -5.8087  -5.7769  -5.6418  -5.6226  -5.5796  -5.5194
    -5.4404  -5.4146  -5.1776  -5.1281  -4.8355  -4.7354  -4.7074  -4.5169
    -4.3975  -4.2320  -4.1329  -3.9659  -3.8754  -3.7258  -3.5742  -2.5795
    -2.4709  -1.5739  -1.4649  -0.6914  -0.4329  -0.3982  -0.3358  -0.2362
    -0.2248   0.1896   0.1972   0.4288   0.6134   0.6971   0.9303   1.0439
     1.1111   1.1174   1.2466   1.5068   1.5394   1.5977   1.6453   1.6734
     1.6744   1.7411   1.8200   1.8930   2.0119   2.0635   2.1714   2.1832
     2.2591   2.2965   2.4977   2.5082   2.5674   2.5850   2.6088   2.6115
     2.7618   2.7704   2.8153   2.8575   2.9714   3.0511   3.0562   3.1214
     3.1380   3.1829   3.1913   3.2621   3.2681   3.3146   3.3559   3.3764
     3.4313   3.4758   3.4963   3.5557   3.7296   3.7396   3.8398   3.8523
     3.8860   3.9280   3.9368   3.9829   3.9835   3.9895   4.0186   4.0591
     4.1032   4.1051   4.1133   4.1162   4.2046   4.2052   4.2824   4.2932
     4.3104   4.5145   4.5323   4.5406   4.5415   4.5544   4.6233   4.6589
     4.7048   4.7446   4.7534   4.7834   4.7958   4.8587   4.9271   4.9400
     4.9560   4.9888   4.9930   4.9973   5.0655   5.1209   5.1598   5.1626
     5.2309   5.2361   5.2531   5.2899   5.3132   5.4003   5.4005   5.4087
     5.4529   5.4905   5.5104   5.5404   5.5767   5.6259   5.6821   5.6838
     5.6997   5.7034   5.7577   5.7772   5.8037   5.8152   5.8377   5.8745
     5.8908   5.9105   5.9158   5.9199   5.9760   5.9792   6.0909   6.1165
     6.1186   6.1687   6.1813   6.1820   6.1992   6.2058   6.2576   6.2661
     6.2899   6.3179   6.3379   6.3735   6.3976   6.4308   6.4493   6.4735
     6.4911   6.5075   6.5178   6.5618   6.5715   6.6426   6.6513   6.6810
     6.6820   6.6863   6.7245   6.7427   6.7555   6.8011   6.8093   6.8151
     6.8303   6.9361   6.9620   6.9643   6.9965   7.0201   7.0685   7.0710
     7.0848   7.0862   7.0911   7.1255   7.1592   7.1647   7.1755   7.1856
     7.2095   7.2095   7.2470   7.2594   7.2618   7.2685   7.3497   7.4337
     7.4360   7.4655   7.4901   7.5138   7.5520   7.5586   7.5814   7.5959
     7.6305   7.6460   7.6861   7.6970   7.7014   7.7380   7.7609   7.7645
     7.8105   7.8145   7.8557   7.8739   7.9048   7.9115   7.9533   7.9847
     8.0094   8.0223   8.0647   8.0761   8.1140   8.1483   8.1512   8.1909
     8.2101   8.2407   8.2421   8.2552   8.2840   8.3011   8.3419   8.3556
     8.3583   8.3600   8.3944   8.4394   8.4534   8.4881   8.4952   8.4993
     8.5119   8.5289   8.5430   8.5851   8.6450   8.6478   8.6684   8.6935
     8.7269   8.7876   8.7919   8.8046   8.8367   8.8474   8.8738   8.8880
     8.9065   8.9294   8.9301   8.9744   9.0091   9.0418   9.0485   9.0898
     9.1001   9.1173   9.1323   9.1806   9.1949   9.2086   9.2128   9.2177
     9.3127   9.3554   9.3580   9.3582   9.3761   9.4106   9.4108   9.4253
     9.4342   9.4384   9.4566   9.4705   9.5021   9.5090   9.5159   9.5337
     9.5629   9.6030   9.6037   9.6039   9.6765   9.6852   9.7010   9.7440
     9.7977   9.8120   9.8264   9.8421   9.8507   9.8730   9.8734   9.9325
     9.9361   9.9415   9.9515  10.0018  10.0646  10.1173  10.1346  10.1439
    10.1466  10.1546  10.1816  10.1951  10.1982  10.2026  10.2253  10.2522
    10.2759  10.2814  10.3091  10.3418  10.3668  10.3786  10.3803  10.4243
    10.4316  10.4407  10.4825  10.5190  10.5509  10.5639  10.5742  10.6106
    10.6541  10.6541  10.6750  10.6779  10.7176  10.7684  10.7808  10.7852
    10.8047  10.8543  10.8751  10.8784

          k = 0.0000 0.0000 0.0156 (110441 PWs)   bands (ev):

   -21.2182 -21.0444 -20.7734 -20.6454 -20.5223 -20.1971 -20.1436 -19.8691
   -19.8662 -19.4342 -19.3459 -19.0119 -18.9565 -18.9380 -18.9167 -18.6867
   -18.1995 -18.1204 -17.9872 -17.9226 -17.9098 -17.4657 -17.3948 -17.1515
   -17.1130 -16.9949 -16.8219 -16.7095 -16.4177 -16.3431 -16.2303 -16.1363
   -16.0841 -15.9692 -15.2805 -15.1965 -14.7199 -14.6726 -14.5706 -14.4808
   -14.4349 -14.3540 -14.2653 -14.2162 -13.7781 -13.7202 -13.7099 -13.3365
   -13.2104 -13.1266 -12.6889 -12.5081 -12.4499 -12.3362 -12.3196 -12.1086
   -12.0452 -11.8214 -11.5551 -11.4821 -11.4204 -11.2468 -11.1323 -11.0214
   -10.8901 -10.7416 -10.6735 -10.5041 -10.4454 -10.3285 -10.2138 -10.1702
   -10.0714  -9.8710  -9.5969  -9.5314  -9.4325  -9.4081  -9.3659  -9.2851
    -9.2598  -9.2186  -9.1216  -9.0821  -9.0722  -9.0531  -8.7828  -8.7672
    -8.6812  -8.6094  -8.6025  -8.5633  -8.4947  -8.4665  -8.4317  -8.3969
    -8.2163  -8.1956  -8.1166  -8.1008  -8.0138  -7.9726  -7.9399  -7.8866
    -7.7596  -7.7476  -7.7207  -7.6820  -7.6625  -7.6515  -7.5666  -7.4504
    -7.2991  -7.2605  -7.1546  -7.1340  -7.0206  -6.8818  -6.7764  -6.7619
    -6.6829  -6.6745  -6.6418  -6.6287  -6.5312  -6.5050  -6.3491  -6.3192
    -6.1401  -5.8893  -5.8076  -5.7842  -5.6523  -5.5962  -5.5538  -5.5222
    -5.4483  -5.4241  -5.1883  -5.1286  -4.8284  -4.7498  -4.7044  -4.5072
    -4.3573  -4.2335  -4.1383  -3.9639  -3.9043  -3.7226  -3.5829  -2.6320
    -2.5125  -1.5358  -1.4140  -0.6882  -0.4172  -0.3662  -0.3236  -0.2533
    -0.2085   0.1649   0.1861   0.4548   0.5798   0.6799   0.9485   1.0505
     1.1178   1.1238   1.2518   1.5285   1.5504   1.6045   1.6241   1.6249
     1.6451   1.6751   1.7723   1.8828   2.0092   2.0496   2.1424   2.1909
     2.2960   2.3372   2.4933   2.5214   2.5742   2.6078   2.6199   2.6199
     2.7509   2.7814   2.8559   2.8661   2.9792   3.0132   3.0651   3.1093
     3.1678   3.1767   3.2228   3.2401   3.3021   3.3251   3.3849   3.3907
     3.4026   3.4525   3.4935   3.5387   3.7365   3.7518   3.8273   3.8332
     3.8741   3.9145   3.9283   3.9888   3.9941   4.0126   4.0351   4.0592
     4.0874   4.1036   4.1393   4.1432   4.2062   4.2101   4.2662   4.2667
     4.3154   4.4558   4.5211   4.5293   4.5368   4.5835   4.6405   4.6569
     4.7162   4.7387   4.7456   4.7668   4.7953   4.8402   4.8812   4.9563
     4.9602   4.9899   5.0271   5.0277   5.0509   5.1171   5.1463   5.1837
     5.2435   5.2577   5.2659   5.3150   5.3272   5.3554   5.3672   5.4096
     5.4214   5.4880   5.5337   5.5567   5.5990   5.6506   5.6563   5.6694
     5.6725   5.7047   5.7457   5.7689   5.7946   5.8360   5.8438   5.8562
     5.8568   5.8769   5.8947   5.9069   5.9660   5.9742   6.0857   6.1311
     6.1314   6.1561   6.1610   6.1978   6.1990   6.2072   6.2472   6.2589
     6.2730   6.3256   6.3570   6.3598   6.4167   6.4550   6.4577   6.5103
     6.5124   6.5187   6.5239   6.5614   6.5786   6.6503   6.6528   6.6776
     6.6822   6.7047   6.7309   6.7369   6.7892   6.7990   6.8100   6.8270
     6.8281   6.8932   6.9154   6.9602   7.0248   7.0341   7.0390   7.0488
     7.0815   7.1144   7.1166   7.1170   7.1437   7.1743   7.1760   7.1887
     7.1924   7.1937   7.2679   7.2764   7.3022   7.3079   7.3680   7.4458
     7.4509   7.4937   7.5070   7.5201   7.5345   7.5737   7.6017   7.6175
     7.6189   7.6379   7.6748   7.6788   7.7321   7.7432   7.7497   7.7498
     7.8043   7.8393   7.8509   7.8570   7.8888   7.9076   7.9464   8.0235
     8.0282   8.0478   8.0519   8.0683   8.0716   8.1051   8.1283   8.1815
     8.1925   8.2196   8.2444   8.2527   8.2833   8.3247   8.3399   8.3463
     8.3644   8.3734   8.4069   8.4318   8.4446   8.4996   8.5090   8.5265
     8.5319   8.5361   8.5727   8.5759   8.6216   8.6474   8.6477   8.6586
     8.7031   8.7754   8.7883   8.8010   8.8576   8.8618   8.8927   8.9015
     8.9116   8.9282   8.9545   8.9621   9.0102   9.0285   9.0432   9.0619
     9.0754   9.1228   9.1292   9.1602   9.1677   9.1902   9.2274   9.2588
     9.3151   9.3244   9.3560   9.3563   9.3943   9.3945   9.4010   9.4180
     9.4365   9.4382   9.4647   9.4805   9.4818   9.4899   9.5265   9.5313
     9.5745   9.5897   9.6081   9.6259   9.6871   9.6940   9.7168   9.7640
     9.7803   9.7850   9.8012   9.8364   9.8393   9.8798   9.8959   9.9130
     9.9218   9.9345   9.9405  10.0046  10.0296  10.0488  10.1101  10.1333
    10.1372  10.1385  10.1705  10.1791  10.1985  10.2023  10.2381  10.2463
    10.2821  10.2926  10.3007  10.3387  10.3459  10.3799  10.4186  10.4247
    10.4590  10.4769  10.4914  10.4976  10.5075  10.5699  10.5819  10.6082
    10.6142  10.6576  10.6658  10.6825  10.7077  10.7709  10.7722  10.7869
    10.8147  10.8417  10.8751  10.8818

          k = 0.0000 0.0000 0.0172 (110449 PWs)   bands (ev):

   -21.2154 -21.0393 -20.7860 -20.6651 -20.5175 -20.1868 -20.1147 -19.8654
   -19.8627 -19.4502 -19.3325 -19.0432 -18.9888 -18.9464 -18.9017 -18.7033
   -18.1683 -18.1198 -17.9799 -17.9092 -17.8834 -17.4738 -17.4011 -17.1559
   -17.0972 -17.0038 -16.8082 -16.6723 -16.4112 -16.3736 -16.2481 -16.1736
   -16.0840 -15.9873 -15.3267 -15.2198 -14.7275 -14.6494 -14.5576 -14.4298
   -14.4073 -14.3156 -14.2434 -14.2240 -13.7685 -13.7192 -13.7095 -13.3376
   -13.1985 -13.1461 -12.7047 -12.4839 -12.4837 -12.4043 -12.3810 -12.0813
   -12.0572 -11.8122 -11.5387 -11.4706 -11.4017 -11.2629 -11.1339 -10.9810
   -10.8471 -10.7705 -10.7063 -10.4699 -10.4610 -10.3302 -10.2359 -10.1983
   -10.0799  -9.8365  -9.5752  -9.5206  -9.4298  -9.3987  -9.3732  -9.2815
    -9.2393  -9.2120  -9.1194  -9.0759  -9.0571  -9.0429  -8.8024  -8.7829
    -8.6719  -8.6331  -8.6245  -8.5833  -8.4759  -8.4607  -8.4123  -8.4054
    -8.1973  -8.1925  -8.1190  -8.0895  -7.9797  -7.9692  -7.9661  -7.8694
    -7.7666  -7.7422  -7.7161  -7.7105  -7.7046  -7.6483  -7.5824  -7.4526
    -7.2940  -7.2792  -7.1700  -7.1374  -7.0358  -6.8786  -6.8052  -6.7880
    -6.6923  -6.6899  -6.6518  -6.6110  -6.4915  -6.4839  -6.3713  -6.2870
    -6.1107  -5.8596  -5.8068  -5.7925  -5.6638  -5.6119  -5.5292  -5.4846
    -5.4570  -5.4345  -5.1978  -5.1273  -4.8207  -4.7652  -4.7004  -4.4966
    -4.3199  -4.2366  -4.1416  -3.9645  -3.9347  -3.7193  -3.5887  -2.6849
    -2.5543  -1.4980  -1.3629  -0.6857  -0.4069  -0.3355  -0.3049  -0.2655
    -0.1906   0.1330   0.1812   0.4823   0.5453   0.6636   0.9682   1.0578
     1.1252   1.1264   1.2575   1.5148   1.5676   1.5712   1.6074   1.6119
     1.6176   1.6345   1.7301   1.8714   2.0092   2.0366   2.1141   2.1972
     2.3348   2.3784   2.4733   2.5406   2.5817   2.6273   2.6291   2.6359
     2.7517   2.7901   2.8710   2.9017   2.9682   2.9877   3.0688   3.0813
     3.1484   3.1865   3.2579   3.2635   3.3428   3.3433   3.3745   3.3964
     3.4227   3.4301   3.4811   3.5353   3.7394   3.7441   3.7811   3.8084
     3.8800   3.9139   3.9198   3.9914   4.0120   4.0130   4.0452   4.0692
     4.0921   4.1049   4.1768   4.1772   4.1782   4.2162   4.2394   4.2938
     4.3226   4.3952   4.4979   4.5039   4.5441   4.6171   4.6260   4.6957
     4.6978   4.7381   4.7436   4.7459   4.7907   4.8176   4.8665   4.9581
     4.9651   4.9787   5.0245   5.0590   5.0655   5.1154   5.1442   5.2019
     5.2515   5.2719   5.3018   5.3059   5.3246   5.3296   5.3546   5.3715
     5.4282   5.4907   5.5687   5.5722   5.6083   5.6199   5.6393   5.6497
     5.6746   5.7083   5.7443   5.7542   5.7925   5.7943   5.7968   5.8305
     5.8436   5.8743   5.9149   5.9287   5.9777   5.9854   6.0842   6.1027
     6.1340   6.1377   6.1510   6.1562   6.2033   6.2334   6.2391   6.2493
     6.2780   6.3343   6.3685   6.3916   6.4369   6.4642   6.4643   6.5267
     6.5285   6.5368   6.5426   6.5567   6.5894   6.6283   6.6627   6.6784
     6.7107   6.7274   6.7288   6.7324   6.7590   6.8233   6.8292   6.8414
     6.8534   6.8587   6.8731   6.9449   6.9822   7.0085   7.0387   7.0625
     7.0962   7.1114   7.1119   7.1204   7.1389   7.1426   7.1919   7.1999
     7.2182   7.2217   7.2888   7.3078   7.3147   7.3368   7.4151   7.4322
     7.4626   7.5022   7.5041   7.5403   7.5523   7.5831   7.6142   7.6142
     7.6261   7.6599   7.6643   7.6643   7.7230   7.7393   7.7430   7.7733
     7.7979   7.8270   7.8372   7.8738   7.8904   7.9135   7.9563   8.0137
     8.0209   8.0274   8.0481   8.0537   8.0691   8.1022   8.1135   8.1508
     8.1669   8.1970   8.2205   8.2470   8.2704   8.3350   8.3609   8.3644
     8.3677   8.3778   8.3806   8.4588   8.4731   8.4921   8.4948   8.5454
     8.5509   8.5764   8.5853   8.5957   8.6108   8.6145   8.6386   8.6730
     8.6981   8.7614   8.7647   8.7912   8.8453   8.8875   8.9097   8.9202
     8.9203   8.9241   8.9392   8.9917   9.0008   9.0076   9.0409   9.0549
     9.0757   9.1053   9.1251   9.1401   9.1557   9.1645   9.2518   9.2660
     9.3002   9.3447   9.3449   9.3463   9.3597   9.3732   9.3771   9.4035
     9.4352   9.4493   9.4551   9.4641   9.4745   9.5012   9.5452   9.5603
     9.5972   9.6148   9.6181   9.6478   9.7005   9.7071   9.7156   9.7260
     9.7514   9.7642   9.7768   9.8429   9.8629   9.8879   9.8915   9.9001
     9.9033   9.9051   9.9319   9.9884  10.0217  10.0337  10.0628  10.1077
    10.1196  10.1335  10.1688  10.1742  10.1928  10.2157  10.2276  10.2453
    10.2558  10.2847  10.3391  10.3409  10.3525  10.3632  10.3634  10.4092
    10.4333  10.4831  10.5146  10.5574  10.5613  10.5718  10.5844  10.5921
    10.5986  10.6502  10.6606  10.6873  10.7122  10.7641  10.7737  10.7812
    10.8000  10.8259  10.8593  10.8883

          k = 0.0000 0.0000 0.0188 (110471 PWs)   bands (ev):

   -21.2124 -21.0338 -20.7984 -20.6842 -20.5132 -20.1769 -20.0856 -19.8612
   -19.8579 -19.4659 -19.3182 -19.0772 -19.0288 -18.9520 -18.8776 -18.7199
   -18.1381 -18.1194 -18.0042 -17.8644 -17.8577 -17.4800 -17.4074 -17.1621
   -17.0804 -17.0115 -16.7936 -16.6348 -16.4103 -16.4075 -16.2680 -16.2101
   -16.0822 -15.9979 -15.3730 -15.2440 -14.7394 -14.6272 -14.5469 -14.3781
   -14.3757 -14.2811 -14.2257 -14.2170 -13.7728 -13.7299 -13.6837 -13.3413
   -13.1868 -13.1630 -12.7212 -12.5182 -12.4726 -12.4695 -12.4347 -12.0677
   -12.0519 -11.8002 -11.5274 -11.4650 -11.3783 -11.2733 -11.1354 -10.9493
   -10.8074 -10.7926 -10.7435 -10.4875 -10.4293 -10.3196 -10.2618 -10.2254
   -10.0825  -9.8042  -9.5559  -9.5192  -9.4340  -9.3897  -9.3751  -9.2776
    -9.2240  -9.2054  -9.1217  -9.0691  -9.0411  -9.0119  -8.8196  -8.7982
    -8.6615  -8.6561  -8.6472  -8.6044  -8.4578  -8.4553  -8.4116  -8.3925
    -8.1919  -8.1813  -8.1222  -8.0788  -7.9983  -7.9639  -7.9456  -7.8540
    -7.7757  -7.7485  -7.7456  -7.7362  -7.7095  -7.6397  -7.5893  -7.4498
    -7.2973  -7.2899  -7.2056  -7.1193  -7.0520  -6.8779  -6.8397  -6.8149
    -6.7417  -6.6996  -6.6206  -6.5945  -6.4616  -6.4517  -6.3938  -6.2543
    -6.0817  -5.8310  -5.8060  -5.8017  -5.6761  -5.6422  -5.5062  -5.4664
    -5.4458  -5.4341  -5.2060  -5.1240  -4.8124  -4.7801  -4.6965  -4.4853
    -4.2889  -4.2415  -4.1397  -3.9684  -3.9659  -3.7160  -3.5908  -2.7380
    -2.5961  -1.4607  -1.3117  -0.6840  -0.4012  -0.3194  -0.2819  -0.2596
    -0.1714   0.1028   0.1755   0.5104   0.5105   0.6486   0.9885   1.0658
     1.1241   1.1333   1.2636   1.4984   1.5142   1.5173   1.5905   1.5926
     1.6203   1.6642   1.6933   1.8595   2.0115   2.0241   2.0865   2.2031
     2.3740   2.4203   2.4525   2.5566   2.5899   2.6245   2.6391   2.6677
     2.7672   2.7972   2.8796   2.9224   2.9450   2.9968   3.0541   3.0614
     3.1363   3.1628   3.2936   3.3045   3.3471   3.3776   3.3793   3.4084
     3.4189   3.4388   3.4754   3.5413   3.7064   3.7315   3.7521   3.7869
     3.8648   3.9066   3.9440   3.9770   4.0026   4.0208   4.0648   4.0765
     4.0800   4.1525   4.1631   4.2125   4.2136   4.2153   4.2230   4.3299
     4.3299   4.3368   4.4747   4.4789   4.5523   4.5889   4.6687   4.6722
     4.7099   4.7291   4.7365   4.7445   4.7801   4.7951   4.8884   4.9483
     4.9636   4.9649   4.9954   5.0797   5.1051   5.1159   5.1519   5.2112
     5.2586   5.2713   5.2810   5.2894   5.3249   5.3252   5.3521   5.3799
     5.4593   5.4943   5.5494   5.5893   5.6028   5.6083   5.6128   5.6632
     5.6667   5.7093   5.7198   5.7291   5.7621   5.7754   5.7967   5.8002
     5.8131   5.8911   5.9405   5.9539   6.0067   6.0112   6.0461   6.0898
     6.1019   6.1216   6.1333   6.1671   6.1933   6.2146   6.2449   6.2624
     6.2833   6.3453   6.3935   6.4255   6.4581   6.4643   6.4660   6.4934
     6.5503   6.5583   6.5656   6.5932   6.5954   6.6200   6.6817   6.6864
     6.7014   6.7079   6.7347   6.7386   6.7756   6.8005   6.8161   6.8402
     6.8522   6.8778   6.8905   6.9291   6.9594   6.9720   7.0417   7.0478
     7.0830   7.0885   7.1019   7.1073   7.1537   7.1616   7.2084   7.2283
     7.2584   7.2643   7.2950   7.3010   7.3364   7.3707   7.4355   7.4469
     7.4715   7.4772   7.5178   7.5548   7.5906   7.6052   7.6075   7.6125
     7.6261   7.6595   7.6626   7.7007   7.7061   7.7269   7.7409   7.7909
     7.7939   7.8028   7.8337   7.8726   7.9194   7.9207   7.9704   7.9894
     7.9939   8.0057   8.0102   8.0704   8.0721   8.0731   8.0957   8.1168
     8.1565   8.1753   8.1990   8.2637   8.2792   8.2976   8.3552   8.3688
     8.3752   8.3901   8.4294   8.4474   8.4801   8.4956   8.5099   8.5409
     8.5535   8.5738   8.5821   8.6215   8.6234   8.6252   8.6921   8.6943
     8.7038   8.7248   8.7501   8.7968   8.8259   8.8328   8.9064   8.9169
     8.9341   8.9456   8.9812   8.9892   8.9972   9.0173   9.0351   9.0435
     9.0722   9.0893   9.1255   9.1381   9.1488   9.1568   9.2141   9.2574
     9.2946   9.2965   9.3191   9.3478   9.3606   9.3613   9.3717   9.4035
     9.4079   9.4505   9.4646   9.4818   9.4861   9.5114   9.5411   9.5932
     9.6191   9.6224   9.6251   9.6662   9.6906   9.6941   9.7275   9.7415
     9.7485   9.7536   9.7658   9.8244   9.8251   9.8565   9.8694   9.8896
     9.9153   9.9215   9.9235   9.9535  10.0170  10.0301  10.0534  10.0686
    10.1173  10.1297  10.1716  10.1808  10.1872  10.1985  10.2281  10.2343
    10.2441  10.2755  10.3139  10.3185  10.3504  10.3597  10.3665  10.3781
    10.4036  10.5094  10.5262  10.5465  10.5526  10.6049  10.6068  10.6149
    10.6496  10.6505  10.6622  10.6922  10.7266  10.7376  10.7548  10.7714
    10.7855  10.8397  10.8439  10.8917

          k = 0.0000 0.0000 0.0203 (110491 PWs)   bands (ev):

   -21.2093 -21.0278 -20.8103 -20.7027 -20.5092 -20.1675 -20.0564 -19.8566
   -19.8516 -19.4812 -19.3033 -19.1121 -19.0691 -18.9568 -18.8519 -18.7363
   -18.1195 -18.1089 -18.0332 -17.8334 -17.8151 -17.4837 -17.4133 -17.1697
   -17.0628 -17.0175 -16.7786 -16.5986 -16.4436 -16.4177 -16.2866 -16.2437
   -16.0802 -16.0016 -15.4195 -15.2688 -14.7533 -14.6055 -14.5388 -14.3434
   -14.3286 -14.2637 -14.2061 -14.1852 -13.7819 -13.7418 -13.6520 -13.3491
   -13.1760 -13.1754 -12.7385 -12.5526 -12.5405 -12.5200 -12.4250 -12.0772
   -12.0209 -11.7856 -11.5205 -11.4673 -11.3513 -11.2758 -11.1361 -10.9363
   -10.7983 -10.7934 -10.7596 -10.5178 -10.3864 -10.3114 -10.2894 -10.2432
   -10.0802  -9.7762  -9.5515  -9.5149  -9.4374  -9.3879  -9.3702  -9.2736
    -9.2129  -9.2007  -9.1221  -9.0618  -9.0114  -8.9818  -8.8292  -8.8130
    -8.6784  -8.6704  -8.6584  -8.6198  -8.4504  -8.4405  -8.4160  -8.3729
    -8.1936  -8.1755  -8.1212  -8.0690  -8.0253  -7.9680  -7.9117  -7.8397
    -7.7939  -7.7844  -7.7828  -7.7293  -7.7007  -7.6299  -7.5872  -7.4437
    -7.3147  -7.2867  -7.2408  -7.1004  -7.0689  -6.8792  -6.8770  -6.8420
    -6.7906  -6.7064  -6.5887  -6.5795  -6.4382  -6.4162  -6.4123  -6.2215
    -6.0532  -5.8118  -5.8055  -5.8035  -5.6892  -5.6761  -5.4855  -5.4765
    -5.4579  -5.3821  -5.2121  -5.1188  -4.8039  -4.7935  -4.6927  -4.4738
    -4.2695  -4.2478  -4.1281  -3.9967  -3.9760  -3.7126  -3.5885  -2.7912
    -2.6376  -1.4241  -1.2607  -0.6831  -0.3983  -0.3251  -0.2572  -0.2286
    -0.1522   0.0764   0.1693   0.4759   0.5388   0.6354   1.0084   1.0744
     1.1156   1.1422   1.2701   1.4453   1.4641   1.4800   1.5643   1.5799
     1.6292   1.6614   1.7094   1.8476   2.0120   2.0155   2.0596   2.2088
     2.4068   2.4387   2.4627   2.5709   2.5988   2.6136   2.6498   2.7011
     2.7936   2.8034   2.8763   2.8887   2.9889   3.0067   3.0278   3.0450
     3.1314   3.1355   3.3159   3.3204   3.3451   3.3866   3.4013   3.4246
     3.4289   3.4613   3.4932   3.5512   3.6629   3.6880   3.7610   3.7647
     3.8402   3.8970   3.9509   3.9782   3.9898   4.0158   4.0399   4.1094
     4.1156   4.1609   4.1863   4.1998   4.2319   4.2404   4.2542   4.2886
     4.3398   4.3671   4.4528   4.4550   4.5556   4.5611   4.6422   4.6808
     4.6953   4.7127   4.7391   4.7759   4.7784   4.7856   4.9203   4.9302
     4.9449   4.9576   4.9695   5.0896   5.1178   5.1451   5.1637   5.1994
     5.2393   5.2490   5.2573   5.2761   5.3330   5.3367   5.3895   5.4089
     5.4854   5.4956   5.5176   5.5593   5.5627   5.6118   5.6464   5.6494
     5.6667   5.6916   5.7006   5.7120   5.7350   5.7475   5.7841   5.8082
     5.8090   5.9275   5.9400   5.9813   5.9883   6.0376   6.0384   6.0460
     6.0987   6.1244   6.1267   6.1621   6.1878   6.2054   6.2534   6.2712
     6.2931   6.3502   6.4187   6.4307   6.4439   6.4587   6.4873   6.5008
     6.5780   6.5785   6.5897   6.5920   6.6144   6.6427   6.6694   6.6872
     6.6940   6.7028   6.7356   6.7375   6.7646   6.8054   6.8239   6.8257
     6.8413   6.8764   6.8872   6.9422   6.9427   6.9941   7.0037   7.0543
     7.0658   7.0694   7.0832   7.1078   7.1597   7.1765   7.2534   7.2535
     7.2733   7.2982   7.3048   7.3100   7.3423   7.4026   7.4352   7.4432
     7.4630   7.4930   7.5682   7.5701   7.5869   7.6000   7.6039   7.6278
     7.6549   7.6590   7.6675   7.6945   7.7254   7.7320   7.7448   7.7658
     7.7770   7.7959   7.8552   7.8848   7.9289   7.9378   7.9414   7.9480
     7.9716   7.9802   8.0153   8.0408   8.0659   8.0686   8.0689   8.0988
     8.1113   8.2023   8.2055   8.2526   8.2894   8.2922   8.3563   8.3650
     8.3892   8.4109   8.4259   8.4476   8.4733   8.4841   8.5242   8.5307
     8.5477   8.5502   8.6050   8.6665   8.6678   8.6691   8.6880   8.7065
     8.7165   8.7416   8.7423   8.7543   8.8048   8.8328   8.8891   8.9055
     8.9419   8.9656   8.9794   9.0015   9.0156   9.0206   9.0258   9.0417
     9.0477   9.0987   9.1173   9.1229   9.1567   9.1593   9.1940   9.2380
     9.2389   9.2428   9.2775   9.3529   9.3682   9.3767   9.3770   9.3863
     9.4140   9.4668   9.4714   9.4903   9.4932   9.5252   9.5275   9.6114
     9.6193   9.6224   9.6303   9.6470   9.6970   9.7085   9.7320   9.7394
     9.7448   9.7835   9.7849   9.7857   9.7952   9.8373   9.8594   9.8716
[...]
    -4.4990  -4.2596  -4.1768  -4.1422  -3.7853  -3.6793  -3.4433  -3.2254
    -2.9518  -1.1715  -0.8583  -0.7182  -0.4032  -0.3953  -0.3243  -0.0822
     0.0327   0.2182   0.3145   0.3810   0.5480   0.6566   0.7737   0.8884
     1.1235   1.1759   1.1815   1.2533   1.2792   1.3570   1.3590   1.4932
     1.5495   1.7418   1.7808   1.8501   1.9216   2.0927   2.1502   2.2073
     2.3119   2.4448   2.4735   2.7066   2.7107   2.7850   2.8058   2.8190
     2.8216   2.8357   2.8573   2.9068   2.9956   3.0029   3.0923   3.1112
     3.1166   3.1409   3.1890   3.2040   3.2498   3.3373   3.4325   3.4409
     3.4836   3.5103   3.5490   3.5876   3.6438   3.6690   3.7468   3.7491
     3.7879   3.8728   3.9415   3.9598   3.9768   3.9793   4.0757   4.1001
     4.1362   4.2103   4.2416   4.2486   4.2496   4.2749   4.3794   4.3888
     4.4469   4.4514   4.4801   4.4946   4.5565   4.6006   4.6303   4.6582
     4.6710   4.6921   4.6974   4.7150   4.7656   4.7688   4.8614   4.8663
     4.8938   4.9024   4.9590   4.9952   5.0085   5.0385   5.0757   5.1559
     5.1601   5.1931   5.2360   5.2428   5.3350   5.3550   5.3818   5.4003
     5.4094   5.4778   5.4814   5.5248   5.5542   5.5653   5.5778   5.6012
     5.6160   5.6497   5.6631   5.7136   5.7458   5.7827   5.8364   5.8485
     5.8714   5.8740   5.9511   5.9522   5.9567   6.0662   6.0802   6.1120
     6.1156   6.1329   6.1366   6.1870   6.1947   6.2229   6.2598   6.3111
     6.3543   6.3635   6.3714   6.3879   6.4031   6.4620   6.4851   6.5029
     6.5151   6.5331   6.5376   6.6164   6.6615   6.6635   6.6821   6.7201
     6.7304   6.7786   6.8086   6.8120   6.8205   6.8354   6.8414   6.8558
     6.9465   6.9505   6.9535   6.9628   7.0074   7.0566   7.0700   7.1140
     7.1352   7.1670   7.1777   7.1928   7.2187   7.2226   7.2569   7.2739
     7.3158   7.3260   7.3278   7.3495   7.3692   7.3756   7.3793   7.3816
     7.3932   7.4138   7.4876   7.5113   7.5228   7.5499   7.5959   7.6028
     7.6214   7.6571   7.6658   7.6765   7.7130   7.7194   7.7592   7.8136
     7.8380   7.8410   7.8640   7.8776   7.9273   7.9381   7.9624   7.9719
     8.0284   8.0291   8.0378   8.0452   8.0749   8.0848   8.1125   8.1650
     8.1934   8.2580   8.2684   8.2694   8.2892   8.3052   8.3060   8.3566
     8.3854   8.4047   8.4286   8.4483   8.4487   8.4882   8.4995   8.5118
     8.5436   8.5611   8.5632   8.6128   8.6294   8.6616   8.6716   8.7235
     8.7257   8.7337   8.7345   8.7697   8.7744   8.7930   8.8314   8.8468
     8.9272   8.9386   8.9631   8.9848   8.9881   9.0102   9.0266   9.0577
     9.0893   9.0969   9.1002   9.1078   9.1166   9.1505   9.2309   9.2347
     9.2434   9.2450   9.2885   9.2892   9.3687   9.4023   9.4141   9.4254
     9.4337   9.4493   9.4618   9.4817   9.4919   9.5149   9.5195   9.5293
     9.5358   9.5376   9.6104   9.6138   9.6346   9.6381   9.6491   9.6531
     9.7181   9.7299   9.7442   9.7576   9.7660   9.7667   9.8328   9.8469
     9.8508   9.8648   9.8997   9.9155   9.9171   9.9470   9.9940  10.0130
    10.0148  10.0822  10.0860  10.0973  10.1016  10.1212  10.1590  10.1861
    10.2017  10.2340  10.2818  10.3093  10.3424  10.3851  10.3995  10.4024
    10.4368  10.4609  10.4856  10.4990  10.5054  10.5369  10.5393  10.5649
    10.5955  10.6139  10.6493  10.6683  10.6742  10.6768  10.7066  10.7210
    10.7347  10.7688  10.7920  10.8644

          k = 0.0000 0.0000 0.0360 (110524 PWs)   bands (ev):

   -21.1831 -20.9570 -20.8889 -20.8444 -20.4880 -20.1235 -19.8568 -19.7286
   -19.7225 -19.6319 -19.3959 -19.3799 -19.1392 -19.0440 -18.8403 -18.6036
   -18.3219 -18.1062 -17.8738 -17.7930 -17.5283 -17.4108 -17.2137 -17.1832
   -16.9936 -16.9823 -16.8984 -16.8398 -16.6019 -16.4409 -16.3290 -16.1730
   -16.0841 -15.8954 -15.8444 -15.4786 -14.8620 -14.5151 -14.4108 -14.3574
   -14.1460 -14.0377 -13.9770 -13.7602 -13.6306 -13.5868 -13.5390 -13.3287
   -13.3237 -13.2654 -13.1432 -13.0304 -12.8398 -12.8064 -12.2296 -12.1182
   -11.6725 -11.6709 -11.5711 -11.5671 -11.2390 -11.2348 -11.1940 -10.9877
   -10.9399 -10.7818 -10.7116 -10.6292 -10.4632 -10.3666 -10.0799  -9.9684
    -9.9244  -9.7988  -9.7249  -9.6788  -9.5180  -9.3728  -9.2390  -9.1970
    -9.1256  -9.1164  -8.9852  -8.9718  -8.9687  -8.9114  -8.8532  -8.8331
    -8.6662  -8.5833  -8.5643  -8.5625  -8.5207  -8.4431  -8.4327  -8.4232
    -8.3388  -8.2734  -8.2134  -8.1350  -8.0392  -8.0315  -8.0304  -7.9401
    -7.9112  -7.7186  -7.6976  -7.5386  -7.5362  -7.5228  -7.5136  -7.4441
    -7.4276  -7.3134  -7.2809  -7.2277  -7.2215  -7.2068  -7.0852  -6.9180
    -6.8945  -6.7910  -6.5758  -6.5060  -6.2653  -6.2426  -6.0801  -6.0344
    -5.9709  -5.9347  -5.8509  -5.8264  -5.7952  -5.6222  -5.5919  -5.5770
    -5.4042  -5.2782  -5.0938  -4.8382  -4.7343  -4.7262  -4.6294  -4.5532
    -4.5249  -4.2476  -4.1816  -4.1598  -3.7628  -3.6722  -3.4297  -3.2559
    -2.9702  -1.1588  -0.8322  -0.7228  -0.4053  -0.3933  -0.3491  -0.0714
     0.0332   0.2047   0.3696   0.4422   0.5452   0.6044   0.7057   0.9058
     1.0974   1.1813   1.1960   1.2641   1.2692   1.3396   1.3597   1.4872
     1.5483   1.7578   1.7786   1.8305   1.9176   2.1016   2.1980   2.1983
     2.3131   2.3971   2.4656   2.7242   2.7265   2.7952   2.7997   2.8032
     2.8267   2.8625   2.8849   2.8963   3.0142   3.0190   3.0916   3.1067
     3.1067   3.1146   3.1645   3.1825   3.2648   3.3530   3.4565   3.4644
     3.4747   3.4819   3.5307   3.5793   3.6551   3.6589   3.6921   3.7338
     3.8329   3.8887   3.9598   3.9719   3.9943   4.0214   4.0676   4.0777
     4.1434   4.1934   4.2159   4.2346   4.2432   4.2595   4.3917   4.4257
     4.4505   4.4676   4.4731   4.4904   4.5372   4.6109   4.6217   4.6393
     4.6885   4.7172   4.7264   4.7518   4.7693   4.7839   4.8284   4.8771
     4.8854   4.9205   4.9454   4.9609   4.9881   4.9885   5.0191   5.1132
     5.2020   5.2382   5.2503   5.2518   5.3352   5.3667   5.3971   5.4032
     5.4066   5.4256   5.4653   5.5019   5.5600   5.5657   5.5804   5.5862
     5.6322   5.6449   5.6646   5.7211   5.7497   5.7769   5.8290   5.8402
     5.8896   5.9135   5.9461   5.9560   5.9865   6.0559   6.0922   6.1000
     6.1158   6.1175   6.1747   6.1889   6.1913   6.2211   6.2301   6.3195
     6.3229   6.3423   6.3667   6.3900   6.4059   6.4496   6.4853   6.4971
     6.4983   6.5219   6.5453   6.6461   6.6728   6.6738   6.6843   6.7180
     6.7377   6.7755   6.8123   6.8129   6.8264   6.8411   6.8430   6.9061
     6.9286   6.9403   6.9785   6.9962   7.0180   7.0555   7.0836   7.1191
     7.1572   7.1619   7.1848   7.2062   7.2161   7.2310   7.2347   7.2606
     7.2831   7.2930   7.3196   7.3299   7.3364   7.3604   7.3820   7.3824
     7.4188   7.4258   7.5013   7.5152   7.5161   7.5412   7.5807   7.6017
     7.6185   7.6327   7.6499   7.6739   7.7138   7.7670   7.7725   7.7883
     7.8224   7.8372   7.8689   7.8708   7.9473   7.9494   7.9639   7.9790
     7.9975   8.0307   8.0367   8.0720   8.0964   8.1017   8.1212   8.1756
     8.2134   8.2654   8.2805   8.2884   8.2991   8.3029   8.3225   8.3615
     8.3975   8.4105   8.4358   8.4427   8.4491   8.4695   8.4816   8.5319
     8.5395   8.5403   8.5576   8.5742   8.6190   8.6413   8.6765   8.6867
     8.7201   8.7343   8.7385   8.7656   8.7728   8.7797   8.8048   8.8194
     8.9009   8.9479   8.9780   8.9797   9.0026   9.0110   9.0137   9.0503
     9.0526   9.1410   9.1455   9.1461   9.1581   9.1583   9.2201   9.2518
     9.2571   9.2682   9.2723   9.2950   9.3663   9.3687   9.4210   9.4364
     9.4471   9.4496   9.4518   9.4667   9.4891   9.5028   9.5120   9.5284
     9.5297   9.5325   9.5980   9.6151   9.6324   9.6360   9.6582   9.6795
     9.7034   9.7045   9.7328   9.7426   9.7618   9.7627   9.8225   9.8404
     9.8489   9.8702   9.8783   9.8855   9.9227   9.9678  10.0061  10.0196
    10.0225  10.0429  10.0905  10.1065  10.1159  10.1335  10.1515  10.1675
    10.1703  10.2601  10.2817  10.2866  10.3731  10.3735  10.3923  10.4068
    10.4277  10.4872  10.4942  10.5011  10.5188  10.5308  10.5497  10.5648
    10.5970  10.6106  10.6330  10.6430  10.6630  10.6840  10.6888  10.7029
    10.7363  10.7713  10.8007  10.8369

          k = 0.0000 0.0000 0.0376 (110516 PWs)   bands (ev):

   -21.1823 -20.9532 -20.8909 -20.8498 -20.4876 -20.1229 -19.8541 -19.7217
   -19.6980 -19.6520 -19.4060 -19.3898 -19.1282 -19.0535 -18.8424 -18.5919
   -18.3344 -18.1061 -17.8605 -17.8017 -17.5271 -17.4086 -17.1780 -17.1671
   -17.0382 -16.9678 -16.8984 -16.8658 -16.6005 -16.4457 -16.3300 -16.1439
   -16.0929 -15.8898 -15.8653 -15.4857 -14.8647 -14.5148 -14.3961 -14.3688
   -14.1393 -14.0344 -13.9812 -13.7451 -13.6357 -13.5484 -13.4737 -13.3703
   -13.3422 -13.3040 -13.1492 -13.0375 -12.8444 -12.8126 -12.2252 -12.1167
   -11.6775 -11.6435 -11.5846 -11.5621 -11.2511 -11.2438 -11.1938 -10.9811
   -10.9144 -10.8032 -10.7216 -10.6334 -10.4593 -10.3623 -10.0646  -9.9502
    -9.9354  -9.8050  -9.7029  -9.6961  -9.5435  -9.3761  -9.2379  -9.1952
    -9.0965  -9.0833  -9.0112  -8.9983  -8.9663  -8.9139  -8.8605  -8.8124
    -8.6415  -8.6036  -8.5513  -8.5367  -8.5165  -8.4609  -8.4480  -8.4226
    -8.3392  -8.3028  -8.2061  -8.1371  -8.0439  -8.0359  -8.0301  -7.9310
    -7.9183  -7.7160  -7.6927  -7.5332  -7.5234  -7.5228  -7.5113  -7.4401
    -7.4291  -7.2998  -7.2828  -7.2362  -7.2355  -7.2261  -7.0961  -6.9195
    -6.8804  -6.8020  -6.5796  -6.5045  -6.2449  -6.2367  -6.0571  -6.0556
    -5.9900  -5.9135  -5.8690  -5.8179  -5.7950  -5.6175  -5.5984  -5.5808
    -5.4031  -5.2791  -5.0958  -4.8095  -4.7272  -4.7143  -4.6073  -4.5890
    -4.5520  -4.2368  -4.1845  -4.1738  -3.7497  -3.6654  -3.4208  -3.2761
    -2.9819  -1.1510  -0.8152  -0.7258  -0.4065  -0.3893  -0.3681  -0.0644
     0.0331   0.1959   0.4263   0.5057   0.5419   0.5500   0.6384   0.9215
     1.0777   1.1847   1.2099   1.2494   1.2857   1.3210   1.3619   1.4833
     1.5476   1.7742   1.7772   1.8120   1.9152   2.1080   2.1915   2.2445
     2.3143   2.3508   2.4606   2.7421   2.7423   2.7792   2.7817   2.8220
     2.8235   2.8639   2.8960   2.9269   3.0284   3.0356   3.0728   3.0769
     3.0977   3.1291   3.1332   3.1710   3.2928   3.3680   3.4245   3.4618
     3.4717   3.5138   3.5329   3.5782   3.6382   3.6448   3.6735   3.7179
     3.8803   3.9054   3.9410   3.9662   4.0203   4.0555   4.0668   4.0752
     4.1506   4.1553   4.2102   4.2189   4.2402   4.2521   4.3890   4.4592
     4.4686   4.4688   4.4790   4.4852   4.5186   4.5759   4.6245   4.6523
     4.7012   4.7277   4.7400   4.7580   4.7930   4.8177   4.8267   4.8832
     4.8886   4.9195   4.9272   4.9322   4.9450   4.9708   4.9965   5.0681
     5.2458   5.2555   5.2683   5.2798   5.3179   5.3738   5.3775   5.3814
     5.4124   5.4390   5.4492   5.4934   5.5392   5.5547   5.5622   5.5945
     5.6439   5.6663   5.6740   5.7262   5.7530   5.7731   5.7868   5.8384
     5.9329   5.9413   5.9572   5.9587   6.0179   6.0194   6.0471   6.0885
     6.1198   6.1660   6.1797   6.1908   6.2080   6.2226   6.2252   6.2679
     6.3099   6.3339   6.3677   6.3854   6.4172   6.4398   6.4826   6.4946
     6.4972   6.5172   6.5497   6.6466   6.6557   6.6825   6.7063   6.7369
     6.7565   6.7726   6.7973   6.8091   6.8160   6.8508   6.8605   6.9091
     6.9175   6.9840   6.9956   7.0100   7.0378   7.0545   7.0572   7.1436
     7.1676   7.1718   7.1903   7.2041   7.2095   7.2198   7.2343   7.2351
     7.2614   7.2708   7.2906   7.3026   7.3328   7.3571   7.3863   7.3907
     7.4126   7.4804   7.5092   7.5158   7.5275   7.5432   7.5649   7.6033
     7.6155   7.6169   7.6298   7.6511   7.7138   7.7570   7.7839   7.8076
     7.8194   7.8336   7.8627   7.8917   7.9458   7.9527   7.9536   7.9817
     7.9911   8.0220   8.0413   8.0660   8.0827   8.1532   8.1536   8.1856
     8.2499   8.2542   8.2862   8.2967   8.3009   8.3201   8.3396   8.3560
     8.3821   8.3953   8.4090   8.4134   8.4423   8.4912   8.4955   8.5419
     8.5420   8.5456   8.5669   8.6040   8.6108   8.6168   8.6474   8.6749
     8.6890   8.7099   8.7281   8.7354   8.7431   8.7778   8.8427   8.8605
     8.8767   8.9459   8.9581   8.9789   8.9808   9.0004   9.0317   9.0572
     9.0601   9.1550   9.1594   9.1662   9.1860   9.1869   9.2360   9.2503
     9.2580   9.2754   9.2781   9.3273   9.3285   9.3582   9.3876   9.4004
     9.4181   9.4463   9.4744   9.4888   9.5023   9.5071   9.5263   9.5265
     9.5330   9.5416   9.5946   9.6119   9.6287   9.6374   9.6490   9.6607
     9.6944   9.7003   9.7148   9.7432   9.7604   9.7861   9.8088   9.8312
     9.8381   9.8495   9.8627   9.9209   9.9245   9.9867   9.9978  10.0113
    10.0141  10.0279  10.0807  10.1040  10.1293  10.1412  10.1415  10.1611
    10.2150  10.2245  10.2820  10.3113  10.3303  10.3943  10.3976  10.4090
    10.4169  10.4695  10.4840  10.5208  10.5236  10.5295  10.5802  10.5958
    10.6031  10.6080  10.6176  10.6379  10.6552  10.6692  10.6797  10.7080
    10.7347  10.7560  10.8092  10.8106

          k = 0.0000 0.0000-0.0391 (110500 PWs)   bands (ev):

   -21.1820 -20.9518 -20.8915 -20.8516 -20.4874 -20.1227 -19.8532 -19.7193
   -19.6764 -19.6720 -19.4095 -19.3932 -19.1238 -19.0574 -18.8431 -18.5877
   -18.3388 -18.1061 -17.8549 -17.8057 -17.5267 -17.4079 -17.1762 -17.1396
   -17.0654 -16.9604 -16.8980 -16.8771 -16.5999 -16.4473 -16.3303 -16.1291
   -16.1004 -15.8879 -15.8729 -15.4882 -14.8657 -14.5147 -14.3854 -14.3783
   -14.1369 -14.0335 -13.9827 -13.7382 -13.6430 -13.5227 -13.4120 -13.4020
   -13.3952 -13.3010 -13.1517 -13.0396 -12.8460 -12.8147 -12.2238 -12.1161
   -11.6798 -11.6267 -11.5974 -11.5588 -11.2553 -11.2471 -11.1937 -10.9786
   -10.9030 -10.8132 -10.7252 -10.6350 -10.4578 -10.3608 -10.0584  -9.9435
    -9.9406  -9.8074  -9.7024  -9.6925  -9.5548  -9.3771  -9.2375  -9.1947
    -9.0815  -9.0614  -9.0309  -9.0135  -8.9643  -8.9148  -8.8631  -8.8034
    -8.6319  -8.6150  -8.5467  -8.5171  -8.5131  -8.4820  -8.4497  -8.4224
    -8.3263  -8.3258  -8.2035  -8.1379  -8.0454  -8.0374  -8.0300  -7.9252
    -7.9235  -7.7152  -7.6910  -7.5321  -7.5260  -7.5180  -7.5071  -7.4388
    -7.4294  -7.2911  -7.2870  -7.2414  -7.2384  -7.2331  -7.1000  -6.9200
    -6.8746  -6.8068  -6.5809  -6.5040  -6.2370  -6.2347  -6.0638  -6.0454
    -6.0004  -5.8996  -5.8818  -5.8149  -5.7950  -5.6160  -5.6007  -5.5821
    -5.4027  -5.2794  -5.0965  -4.7994  -4.7249  -4.7064  -4.6054  -4.5868
    -4.5741  -4.2318  -4.1854  -4.1798  -3.7456  -3.6626  -3.4178  -3.2832
    -2.9859  -1.1484  -0.8093  -0.7268  -0.4069  -0.3839  -0.3788  -0.0619
     0.0330   0.1928   0.4715   0.5027   0.5436   0.5640   0.5788   0.9281
     1.0701   1.1859   1.2183   1.2408   1.3022   1.3039   1.3627   1.4820
     1.5475   1.7768   1.7866   1.7988   1.9143   2.1105   2.1889   2.2763
     2.3148   2.3191   2.4589   2.7533   2.7570   2.7645   2.7700   2.8227
     2.8373   2.8479   2.9104   2.9394   3.0342   3.0492   3.0585   3.0627
     3.0936   3.1204   3.1386   3.1627   3.3093   3.3749   3.4049   3.4552
     3.4811   3.5038   3.5788   3.5842   3.5860   3.6409   3.6818   3.7090
     3.9215   3.9219   3.9238   3.9326   4.0313   4.0694   4.0723   4.0856
     4.1265   4.1565   4.2076   4.2111   4.2394   4.2501   4.3876   4.4632
     4.4671   4.4739   4.4961   4.4961   4.5067   4.5511   4.6190   4.6704
     4.7133   4.7165   4.7324   4.7718   4.7955   4.8257   4.8800   4.8861
     4.8919   4.8921   4.8938   4.9239   4.9340   4.9556   5.0192   5.0342
     5.2573   5.2653   5.2846   5.3035   5.3078   5.3502   5.3632   5.3737
     5.4231   5.4382   5.4667   5.4925   5.5104   5.5501   5.5629   5.5968
     5.6439   5.6669   5.7018   5.7280   5.7543   5.7586   5.7716   5.8384
     5.9398   5.9596   5.9741   5.9795   6.0013   6.0027   6.0339   6.0814
     6.1205   6.1745   6.1919   6.2013   6.2150   6.2184   6.2267   6.2609
     6.2744   6.3388   6.3673   6.3837   6.4227   6.4360   6.4763   6.4932
     6.5021   6.5186   6.5512   6.6346   6.6580   6.6857   6.7110   6.7484
     6.7694   6.7781   6.7896   6.8006   6.8122   6.8542   6.8575   6.9144
     6.9170   6.9919   7.0019   7.0163   7.0501   7.0596   7.0619   7.1316
     7.1492   7.1766   7.2066   7.2094   7.2152   7.2220   7.2275   7.2338
     7.2359   7.2657   7.2767   7.2964   7.3276   7.3591   7.3888   7.3984
     7.4048   7.4990   7.5066   7.5331   7.5354   7.5459   7.5595   7.6032
     7.6092   7.6164   7.6165   7.6325   7.7154   7.7443   7.7916   7.7966
     7.8366   7.8492   7.8604   7.9022   7.9239   7.9448   7.9545   7.9819
     8.0024   8.0183   8.0420   8.0632   8.0770   8.1664   8.1824   8.1896
     8.2334   8.2852   8.2875   8.2971   8.3001   8.3322   8.3346   8.3705
     8.3747   8.3767   8.3819   8.4038   8.4337   8.4921   8.5007   8.5436
     8.5475   8.5937   8.5985   8.5987   8.6076   8.6117   8.6252   8.6411
     8.6763   8.6931   8.7047   8.7329   8.7465   8.7808   8.8666   8.8768
     8.8826   8.9128   8.9640   8.9663   8.9787   8.9933   9.0278   9.0596
     9.1017   9.1202   9.1567   9.1814   9.2007   9.2062   9.2349   9.2578
     9.2605   9.2863   9.3088   9.3151   9.3244   9.3334   9.3692   9.3853
     9.4068   9.4460   9.4856   9.4971   9.5036   9.5076   9.5230   9.5247
     9.5344   9.5881   9.5922   9.5927   9.6274   9.6327   9.6381   9.6599
     9.6905   9.6963   9.7086   9.7435   9.7596   9.7670   9.8288   9.8387
     9.8387   9.8426   9.8794   9.8855   9.9458   9.9699   9.9950  10.0157
    10.0168  10.0276  10.0675  10.1106  10.1268  10.1343  10.1663  10.1665
    10.1885  10.2525  10.2813  10.2924  10.3370  10.3928  10.3981  10.4036
    10.4124  10.4723  10.4838  10.5117  10.5323  10.5338  10.5838  10.5874
    10.5960  10.6258  10.6332  10.6521  10.6643  10.6688  10.6708  10.6828
    10.7186  10.7675  10.7979  10.8209

     the Fermi energy is    -2.1346 ev

     Writing output data file ANTI13-6-6.save/

     init_run     :     16.05s CPU     16.65s WALL (       1 calls)
     electrons    :  10234.98s CPU  10345.14s WALL (       1 calls)

     Called by init_run:
     wfcinit      :      0.00s CPU      0.00s WALL (       1 calls)
     potinit      :      1.08s CPU      1.19s WALL (       1 calls)
     hinit0       :     11.97s CPU     12.11s WALL (       1 calls)

     Called by electrons:
     c_bands      :  10234.97s CPU  10345.11s WALL (       1 calls)
     v_of_rho     :      0.84s CPU      0.89s WALL (       1 calls)
     newd         :      0.76s CPU      1.01s WALL (       1 calls)

     Called by c_bands:
     init_us_2    :      0.90s CPU      1.02s WALL (      26 calls)
     cegterg      :  10045.46s CPU  10142.67s WALL (     122 calls)

     Called by sum_band:

     Called by *egterg:
     h_psi        :   3030.09s CPU   3071.31s WALL (    2267 calls)
     s_psi        :    387.15s CPU    389.23s WALL (    2267 calls)
     g_psi        :     14.00s CPU     14.06s WALL (    2119 calls)
     cdiaghg      :   3817.89s CPU   3832.17s WALL (    2145 calls)

     Called by h_psi:
     h_psi:pot    :   3012.00s CPU   3046.50s WALL (    2267 calls)
     h_psi:calbec :    352.47s CPU    356.48s WALL (    2267 calls)
     vloc_psi     :   2269.66s CPU   2298.05s WALL (    2267 calls)
     add_vuspsi   :    389.84s CPU    391.94s WALL (    2267 calls)

     General routines
     calbec       :    352.46s CPU    356.47s WALL (    2267 calls)
     fft          :      0.90s CPU      0.97s WALL (      14 calls)
     ffts         :      0.01s CPU      0.01s WALL (       1 calls)
     fftw         :   1806.35s CPU   1828.96s WALL (  635332 calls)
     interpolate  :      0.06s CPU      0.06s WALL (       1 calls)
     davcio       :      0.00s CPU     10.00s WALL (      52 calls)

     Parallel routines
     fft_scatt_xy :    313.23s CPU    316.33s WALL (  635347 calls)
     fft_scatt_yz :    292.13s CPU    298.14s WALL (  635347 calls)

     PWSCF        :     2h51m CPU       51h 2m WALL

      57h

   This run was terminated on:   2:12:52  16Apr2021            

=------------------------------------------------------------------------------=
   JOB DONE.
=------------------------------------------------------------------------------=
