
     Program PWSCF v.6.3 starts on 15Apr2021 at 22:29:37 

     This program is part of the open-source Quantum ESPRESSO suite
     for quantum simulation of materials; please cite
         "P. Giannozzi et al., J. Phys.:Condens. Matter 21 395502 (2009);
         "P. Giannozzi et al., J. Phys.:Condens. Matter 29 465901 (2017);
          URL http://www.quantum-espresso.org", 
     in publications or presentations arising from this work. More details at
     http://www.quantum-espresso.org/quote

     Parallel version (MPI), running on    16 processors
     R & G space division:  proc/nbgrp/npool/nimage =      16
     Waiting for input...
     Reading input from standard input
     Message from routine read_cards :
     DEPRECATED: no units specified in CELL_PARAMETERS card

     Current dimensions of program PWSCF are:
     Max number of different atomic species (ntypx) = 10
     Max number of k-points (npk) =  40000
     Max angular momentum in pseudopotentials (lmaxx) =  3

     Atomic positions and unit cell read from directory:
     /home/zfwang/scratch/GNRDATASET/AGNR/ANTI13-6-12/ANTI13-6-12.save/


     Subspace diagonalization in iterative solution of the eigenvalue problem:
     a serial algorithm will be used


     Parallelization info
     --------------------
     sticks:   dense  smooth     PW     G-vecs:    dense   smooth      PW
     Min        2556     852    221               287136    55262    7339
     Max        2558     854    222               287139    55263    7342
     Sum       40909   13645   3551              4594185   884201  117443



     bravais-lattice index     =            0
     lattice parameter (alat)  =       1.8897  a.u.
     unit-cell volume          =   25873.1145 (a.u.)^3
     number of atoms/cell      =           90
     number of atomic types    =            2
     number of electrons       =       288.00
     number of Kohn-Sham states=          500
     kinetic-energy cutoff     =      40.0000  Ry
     charge density cutoff     =     480.0000  Ry
     Exchange-correlation      = PBE ( 1  4  3  4 0 0)

     celldm(1)=  18.897261  celldm(2)=   3.000000  celldm(3)=   1.278000
     celldm(4)=   0.000000  celldm(5)=   0.000000  celldm(6)=   0.000000

     crystal axes: (cart. coord. in units of alat)
               a(1) = (  10.000000   0.000000   0.000000 )  
               a(2) = (   0.000000  30.000000   0.000000 )  
               a(3) = (   0.000000   0.000000  12.780000 )  

     reciprocal axes: (cart. coord. in units 2 pi/alat)
               b(1) = (  0.100000  0.000000  0.000000 )  
               b(2) = (  0.000000  0.033333  0.000000 )  
               b(3) = (  0.000000  0.000000  0.078247 )  


     PseudoPot. # 1 for C  read from file:
     /home/zfwang/hp_home/MySoftware/qe-6.3/pseudo/C.pbe-n-rrkjus_psl.0.1.UPF
     MD5 check sum: fff530ed632a789b3b184014e67dd7f1
     Pseudo is Ultrasoft + core correction, Zval =  4.0
     Generated using "atomic" code by A. Dal Corso v.5.0.2 svn rev. 9415
     Using radial grid of 1073 points,  4 beta functions with: 
                l(1) =   0
                l(2) =   0
                l(3) =   1
                l(4) =   1
     Q(r) pseudized with 0 coefficients 


     PseudoPot. # 2 for H  read from file:
     /home/zfwang/hp_home/MySoftware/qe-6.3/pseudo/H.pbe-rrkjus_psl.0.1.UPF
     MD5 check sum: e164a6907b691c6980f16942be34de84
     Pseudo is Ultrasoft, Zval =  1.0
     Generated using "atomic" code by A. Dal Corso v.5.0.2 svn rev. 9415
     Using radial grid of  929 points,  2 beta functions with: 
                l(1) =   0
                l(2) =   0
     Q(r) pseudized with 0 coefficients 


     atomic species   valence    mass     pseudopotential
        C              4.00    12.01070     C ( 1.00)
        H              1.00     1.00794     H ( 1.00)

     No symmetry found



   Cartesian axes

     site n.     atom                  positions (alat units)
         1           C   tau(   1) = (   5.0000005   7.4255473   0.6792499  )
         2           C   tau(   2) = (   5.0000020   8.6290792   1.3947059  )
         3           C   tau(   3) = (   5.0000027   9.8774335   0.7070579  )
         4           C   tau(   4) = (   5.0000033  11.1262299   1.4182847  )
         5           C   tau(   5) = (   5.0000021  12.3967299   0.7068807  )
         6           C   tau(   6) = (   4.9999993  13.6818867   1.3638698  )
         7           C   tau(   7) = (   4.9999995  15.0000026   0.6972552  )
         8           C   tau(   8) = (   5.0000012  16.3181163   1.3638595  )
         9           C   tau(   9) = (   5.0000023  17.6032729   0.7068767  )
        10           C   tau(  10) = (   5.0000019  18.8737608   1.4183055  )
        11           C   tau(  11) = (   5.0000024  20.1225541   0.7070778  )
        12           C   tau(  12) = (   5.0000009  21.3709060   1.3947016  )
        13           C   tau(  13) = (   5.0000000  22.5744304   0.6792865  )
        14           C   tau(  14) = (   4.9999986   7.2291679   4.8829343  )
        15           C   tau(  15) = (   4.9999988   8.4035533   5.6659153  )
        16           C   tau(  16) = (   4.9999984   7.3277621   3.5180677  )
        17           C   tau(  17) = (   5.0000006   9.6352921   4.9522063  )
        18           C   tau(  18) = (   4.9999966  10.7747350   5.7278917  )
        19           C   tau(  19) = (   5.0000021   8.5737190   2.8211994  )
        20           C   tau(  20) = (   5.0000037   9.7754023   3.5363709  )
        21           C   tau(  21) = (   5.0000043  11.0682739   2.8375973  )
        22           C   tau(  22) = (   5.0000021  12.3530164   3.4085954  )
        23           C   tau(  23) = (   4.9999975  13.5333110   2.7402846  )
        24           C   tau(  24) = (   5.0000037  19.2252987   5.7279018  )
        25           C   tau(  25) = (   4.9999997  16.4666864   2.7402562  )
        26           C   tau(  26) = (   4.9999965  17.6469563   3.4086032  )
        27           C   tau(  27) = (   4.9999988  20.3647332   4.9522279  )
        28           C   tau(  28) = (   4.9999980  21.5964894   5.6659124  )
        29           C   tau(  29) = (   4.9999990  18.9317287   2.8376075  )
        30           C   tau(  30) = (   4.9999987  20.2245861   3.5364004  )
        31           C   tau(  31) = (   4.9999991  22.7708583   4.8828870  )
        32           C   tau(  32) = (   4.9999996  21.4262468   2.8211974  )
        33           C   tau(  33) = (   5.0000004  22.6721920   3.5180240  )
        34           C   tau(  34) = (   4.9999991   7.3277652   9.2619350  )
        35           C   tau(  35) = (   4.9999986   8.5737240   9.9588069  )
        36           C   tau(  36) = (   5.0000001   7.2291708   7.8970731  )
        37           C   tau(  37) = (   4.9999967   9.7754058   9.2436302  )
        38           C   tau(  38) = (   4.9999986  11.0682757   9.9424126  )
        39           C   tau(  39) = (   4.9999972   8.4035551   7.1140871  )
        40           C   tau(  40) = (   4.9999938   9.6353020   7.8277920  )
        41           C   tau(  41) = (   4.9999983  12.3530090   9.3713999  )
        42           C   tau(  42) = (   4.9999954  13.5333175  10.0397229  )
        43           C   tau(  43) = (   4.9999900  10.7747282   7.0521069  )
        44           C   tau(  44) = (   5.0000050  16.4666825  10.0397563  )
        45           C   tau(  45) = (   5.0000034  17.6469751   9.3713819  )
        46           C   tau(  46) = (   5.0000041  18.9317344   9.9423881  )
        47           C   tau(  47) = (   5.0000028  20.2246060   9.2436013  )
        48           C   tau(  48) = (   5.0000017  21.4262591   9.9587984  )
        49           C   tau(  49) = (   5.0000054  19.2253263   7.0521089  )
        50           C   tau(  50) = (   5.0000017  20.3647299   7.8277697  )
        51           C   tau(  51) = (   4.9999993  22.6722092   9.2619653  )
        52           C   tau(  52) = (   4.9999991  21.5965009   7.1140859  )
        53           C   tau(  53) = (   4.9999980  22.7708611   7.8971054  )
        54           C   tau(  54) = (   5.0000000   7.4255513  12.1007492  )
        55           C   tau(  55) = (   5.0000009   8.6290836  11.3852986  )
        56           C   tau(  56) = (   5.0000021   9.8774350  12.0729488  )
        57           C   tau(  57) = (   5.0000007  11.1262273  11.3617187  )
        58           C   tau(  58) = (   5.0000012  12.3967343  12.0731237  )
        59           C   tau(  59) = (   4.9999986  13.6818844  11.4161246  )
        60           C   tau(  60) = (   4.9999998  15.0000024  12.0827442  )
        61           C   tau(  61) = (   5.0000030  16.3181272  11.4161280  )
        62           C   tau(  62) = (   5.0000037  17.6032734  12.0731190  )
        63           C   tau(  63) = (   5.0000046  18.8737678  11.3616864  )
        64           C   tau(  64) = (   5.0000031  20.1225585  12.0729152  )
        65           C   tau(  65) = (   5.0000018  21.3709216  11.3852929  )
        66           C   tau(  66) = (   5.0000005  22.5744422  12.1007196  )
        67           H   tau(  67) = (   4.9999991   6.4728053   1.1965571  )
        68           H   tau(  68) = (   4.9999994  23.5271663   1.1965641  )
        69           H   tau(  69) = (   4.9999980   6.2425570   5.3441059  )
        70           H   tau(  70) = (   4.9999935   6.3982854   2.9580399  )
        71           H   tau(  71) = (   5.0000014  11.7413249   5.3283547  )
        72           H   tau(  72) = (   5.0000029  12.6007170   4.4413055  )
        73           H   tau(  73) = (   4.9999926  14.3470141   3.4235746  )
        74           H   tau(  74) = (   5.0000112  18.2587100   5.3283572  )
        75           H   tau(  75) = (   4.9999984  15.6529424   3.4234922  )
        76           H   tau(  76) = (   4.9999906  17.3992729   4.4413358  )
        77           H   tau(  77) = (   5.0000012  23.7575338   5.3439684  )
        78           H   tau(  78) = (   5.0000036  23.6016130   2.9579387  )
        79           H   tau(  79) = (   5.0000012   6.3982899   9.8219638  )
        80           H   tau(  80) = (   5.0000056   6.2425589   7.4358996  )
        81           H   tau(  81) = (   5.0000007  12.6007094   8.3386990  )
        82           H   tau(  82) = (   4.9999871  14.3470136   9.3564224  )
        83           H   tau(  83) = (   4.9999848  11.7413312   7.4516380  )
        84           H   tau(  84) = (   5.0000058  15.6529482   9.3565095  )
        85           H   tau(  85) = (   4.9999967  17.3992755   8.3386670  )
        86           H   tau(  86) = (   5.0000138  18.2587138   7.4516691  )
        87           H   tau(  87) = (   4.9999968  23.6016373   9.8220454  )
        88           H   tau(  88) = (   4.9999956  23.7575375   7.4360126  )
        89           H   tau(  89) = (   4.9999983   6.4728110  11.5834328  )
        90           H   tau(  90) = (   5.0000014  23.5271899  11.5834597  )

     number of k points=    26  Marzari-Vanderbilt smearing, width (Ry)=  0.0100
                       cart. coord. in units 2pi/alat
        k(    1) = (   0.0000000   0.0000000   0.0000000), wk =   0.0400000
        k(    2) = (   0.0000000   0.0000000   0.0015649), wk =   0.0800000
        k(    3) = (   0.0000000   0.0000000   0.0031299), wk =   0.0800000
        k(    4) = (   0.0000000   0.0000000   0.0046948), wk =   0.0800000
        k(    5) = (   0.0000000   0.0000000   0.0062598), wk =   0.0800000
        k(    6) = (   0.0000000   0.0000000   0.0078247), wk =   0.0800000
        k(    7) = (   0.0000000   0.0000000   0.0093897), wk =   0.0800000
        k(    8) = (   0.0000000   0.0000000   0.0109546), wk =   0.0800000
        k(    9) = (   0.0000000   0.0000000   0.0125196), wk =   0.0800000
        k(   10) = (   0.0000000   0.0000000   0.0140845), wk =   0.0800000
        k(   11) = (   0.0000000   0.0000000   0.0156495), wk =   0.0800000
        k(   12) = (   0.0000000   0.0000000   0.0172144), wk =   0.0800000
        k(   13) = (   0.0000000   0.0000000   0.0187793), wk =   0.0800000
        k(   14) = (   0.0000000   0.0000000   0.0203443), wk =   0.0800000
        k(   15) = (   0.0000000   0.0000000   0.0219092), wk =   0.0800000
        k(   16) = (   0.0000000   0.0000000   0.0234742), wk =   0.0800000
        k(   17) = (   0.0000000   0.0000000   0.0250391), wk =   0.0800000
        k(   18) = (   0.0000000   0.0000000   0.0266041), wk =   0.0800000
        k(   19) = (   0.0000000   0.0000000   0.0281690), wk =   0.0800000
        k(   20) = (   0.0000000   0.0000000   0.0297340), wk =   0.0800000
        k(   21) = (   0.0000000   0.0000000   0.0312989), wk =   0.0800000
        k(   22) = (   0.0000000   0.0000000   0.0328638), wk =   0.0800000
        k(   23) = (   0.0000000   0.0000000   0.0344288), wk =   0.0800000
        k(   24) = (   0.0000000   0.0000000   0.0359937), wk =   0.0800000
        k(   25) = (   0.0000000   0.0000000   0.0375587), wk =   0.0800000
        k(   26) = (   0.0000000   0.0000000  -0.0391236), wk =   0.0400000

     Dense  grid:  4594185 G-vectors     FFT dimensions: ( 135, 400, 180)

     Smooth grid:   884201 G-vectors     FFT dimensions: (  80, 240, 100)

     Estimated max dynamical RAM per process >       1.00 GB

     Estimated total dynamical RAM >      16.02 GB

     The potential is recalculated from file :
     /home/zfwang/scratch/GNRDATASET/AGNR/ANTI13-6-12/ANTI13-6-12.save/charge-density.dat


     negative rho (up, down):  2.194E-04 0.000E+00
     Starting wfcs are  288 randomized atomic wfcs +  212 random wfcs

     Band Structure Calculation
     Davidson diagonalization with overlap

     ethr =  3.47E-09,  avg # of iterations = 69.0

     total cpu time spent up to now is     9499.7 secs

     End of band structure calculation

          k = 0.0000 0.0000 0.0000 (110425 PWs)   bands (ev):

   -21.1307 -21.0514 -20.6090 -20.4336 -20.3811 -20.3552 -20.2035 -19.9411
   -19.6085 -19.4252 -19.1557 -18.6287 -18.5783 -18.5412 -18.4751 -18.3635
   -18.2491 -18.2258 -17.9843 -17.8830 -17.7317 -17.5099 -17.0814 -16.9398
   -16.7321 -16.5998 -16.5207 -16.4433 -16.2232 -16.2064 -15.9896 -15.6310
   -15.5733 -14.9050 -14.8852 -14.6512 -14.5922 -14.3673 -14.3650 -14.2901
   -14.1058 -14.0470 -13.6891 -13.6681 -13.5326 -13.3784 -13.3340 -12.5541
   -12.5395 -12.4791 -12.2521 -12.1175 -11.9673 -11.9024 -11.7647 -11.6237
   -11.5358 -11.4508 -11.2657 -11.1919 -11.1262 -11.0469 -10.7657 -10.6309
   -10.5115 -10.1348 -10.1145  -9.9862  -9.9335  -9.8676  -9.8643  -9.7518
    -9.7497  -9.5171  -9.3590  -9.3210  -9.2808  -9.2559  -9.1871  -9.1335
    -9.0842  -9.0733  -8.8446  -8.8100  -8.6410  -8.5923  -8.5872  -8.5293
    -8.3889  -8.3376  -8.3135  -8.2869  -8.2603  -8.1607  -8.0809  -8.0538
    -8.0021  -7.9962  -7.8818  -7.7560  -7.5331  -7.5120  -7.5068  -7.3730
    -7.3484  -7.2778  -7.2439  -7.1764  -7.1668  -7.1428  -7.0558  -6.9508
    -6.8493  -6.6484  -6.6012  -6.3904  -6.3679  -6.2572  -6.1978  -6.1651
    -6.1507  -6.0005  -5.8656  -5.8544  -5.7970  -5.6519  -5.5080  -5.4559
    -5.3887  -5.3783  -5.3724  -5.3555  -5.1933  -4.8681  -4.6903  -4.5156
    -4.3086  -4.2097  -4.1381  -4.0385  -3.5995  -3.3078  -3.2963  -3.1381
    -1.2708  -1.1610  -1.1435  -0.6838  -0.4178  -0.4176  -0.1961  -0.1201
    -0.0101   0.1074   0.2678   0.6574   0.9121   0.9773   0.9997   1.1047
     1.1280   1.3398   1.3967   1.4348   1.6386   1.7858   1.7933   1.8202
     1.8262   1.8462   1.8545   1.8812   1.9100   1.9510   2.0122   2.0808
     2.3460   2.3484   2.3500   2.3555   2.3764   2.4142   2.4691   2.4992
     2.5736   2.7431   2.7579   2.8016   2.8374   2.8476   2.9065   2.9756
     2.9925   3.0217   3.0389   3.1649   3.2642   3.3328   3.3700   3.3709
     3.3776   3.4481   3.4607   3.4720   3.6112   3.6490   3.6531   3.6837
     3.7151   3.7248   3.7257   3.7317   3.8156   3.8758   3.9490   4.0111
     4.0785   4.0801   4.0911   4.1024   4.1526   4.1911   4.1965   4.2050
     4.2449   4.3293   4.3333   4.3855   4.3961   4.4565   4.4762   4.5235
     4.5492   4.5951   4.6289   4.6627   4.6633   4.7525   4.7620   4.7862
     4.8175   4.8393   4.9604   4.9777   4.9792   5.0098   5.0126   5.0371
     5.0421   5.0597   5.0951   5.1122   5.1152   5.2115   5.2996   5.3521
     5.3628   5.3825   5.3948   5.4441   5.4918   5.5112   5.5272   5.5278
     5.5430   5.5622   5.5727   5.5750   5.6504   5.7411   5.7527   5.8296
     5.8462   5.8815   5.8935   5.9348   5.9363   5.9643   5.9675   5.9975
     6.0049   6.0104   6.0353   6.0755   6.0781   6.0962   6.0990   6.1172
     6.1608   6.1922   6.2001   6.2613   6.2688   6.3134   6.3268   6.3662
     6.4037   6.4143   6.4195   6.4777   6.4918   6.5198   6.5292   6.5655
     6.6214   6.6808   6.6852   6.7075   6.7339   6.7378   6.7651   6.7731
     6.8223   6.8244   6.8598   6.8826   6.9743   6.9806   6.9882   7.0007
     7.0115   7.0466   7.0592   7.1154   7.1407   7.1625   7.1947   7.2027
     7.2136   7.2256   7.2352   7.2593   7.2909   7.2924   7.3138   7.3213
     7.3367   7.3874   7.3880   7.4012   7.4119   7.4267   7.5099   7.5373
     7.5983   7.6504   7.6715   7.6842   7.7091   7.7191   7.7279   7.7342
     7.7766   7.7948   7.7993   7.8021   7.8099   7.8503   7.8699   7.9134
     7.9705   7.9807   7.9828   8.0174   8.1137   8.1254   8.1303   8.1393
     8.1431   8.1746   8.1769   8.2040   8.2318   8.2376   8.2679   8.2886
     8.3200   8.3368   8.3790   8.3817   8.3850   8.4086   8.4759   8.4864
     8.5462   8.5728   8.5830   8.6431   8.6586   8.6644   8.6785   8.7005
     8.7034   8.7195   8.7801   8.7846   8.7914   8.8158   8.8275   8.8584
     8.9030   8.9628   8.9703   8.9723   8.9733   9.0153   9.0166   9.0564
     9.0576   9.0578   9.0664   9.0797   9.1469   9.1791   9.1842   9.2406
     9.2497   9.3000   9.3012   9.3059   9.3130   9.3351   9.3563   9.3752
     9.3900   9.4126   9.4132   9.4140   9.4226   9.4260   9.4342   9.4394
     9.5276   9.5666   9.5706   9.6183   9.6769   9.7031   9.7543   9.7784
     9.8250   9.8293   9.8472   9.8614   9.8727   9.9306   9.9367   9.9700
     9.9736   9.9749  10.0386  10.0473  10.0715  10.0868  10.0998  10.1045
    10.1296  10.1582  10.1661  10.1821  10.2001  10.2447  10.2454  10.2814
    10.2895  10.3047  10.3085  10.3461  10.3677  10.3929  10.4211  10.4364
    10.4443  10.4516  10.5052  10.5383  10.5874  10.5917  10.6196  10.6274
    10.6349  10.6529  10.6628  10.6630  10.6691  10.7109  10.7294  10.7371
    10.7583  10.7679  10.7895  10.8089  10.8123  10.8575  10.8815  10.8875
    10.9063  10.9247  10.9277  10.9323

          k = 0.0000 0.0000 0.0016 (110415 PWs)   bands (ev):

   -21.1305 -21.0512 -20.6097 -20.4389 -20.3818 -20.3496 -20.2018 -19.9409
   -19.6085 -19.4254 -19.1556 -18.6289 -18.5835 -18.5456 -18.4755 -18.3602
   -18.2454 -18.2249 -17.9823 -17.8817 -17.7321 -17.5084 -17.0829 -16.9397
   -16.7338 -16.6007 -16.5186 -16.4418 -16.2241 -16.2059 -15.9896 -15.6365
   -15.5786 -14.8992 -14.8792 -14.6512 -14.5927 -14.3668 -14.3655 -14.2910
   -14.1049 -14.0472 -13.6891 -13.6675 -13.5323 -13.3905 -13.3231 -12.5550
   -12.5389 -12.4813 -12.2512 -12.1203 -11.9640 -11.9010 -11.7693 -11.6321
   -11.5281 -11.4482 -11.2697 -11.1896 -11.1431 -11.0281 -10.7690 -10.6267
   -10.5083 -10.1375 -10.1129  -9.9914  -9.9388  -9.8726  -9.8568  -9.7500
    -9.7486  -9.5149  -9.3657  -9.3262  -9.2839  -9.2413  -9.1869  -9.1285
    -9.0839  -9.0733  -8.8446  -8.8097  -8.6409  -8.5929  -8.5870  -8.5296
    -8.3897  -8.3480  -8.3146  -8.2762  -8.2614  -8.1617  -8.0789  -8.0539
    -8.0009  -7.9976  -7.8808  -7.7558  -7.5363  -7.5125  -7.5073  -7.3730
    -7.3571  -7.2900  -7.2466  -7.1653  -7.1565  -7.1431  -7.0509  -6.9506
    -6.8498  -6.6483  -6.6028  -6.3898  -6.3666  -6.2601  -6.2030  -6.1683
    -6.1498  -5.9988  -5.8710  -5.8449  -5.7932  -5.6516  -5.5079  -5.4591
    -5.3958  -5.3721  -5.3710  -5.3530  -5.1919  -4.8687  -4.6912  -4.5168
    -4.3086  -4.2088  -4.1366  -4.0386  -3.5996  -3.3088  -3.2979  -3.1399
    -1.2692  -1.1616  -1.1406  -0.6848  -0.4185  -0.4167  -0.1951  -0.1199
    -0.0099   0.1065   0.2701   0.6574   0.9125   0.9777   0.9918   1.1105
     1.1259   1.3398   1.3955   1.4351   1.6350   1.7554   1.8159   1.8175
     1.8262   1.8297   1.8705   1.8855   1.9214   1.9512   2.0134   2.0795
     2.3259   2.3468   2.3476   2.3706   2.3761   2.4240   2.4699   2.4992
     2.5753   2.7367   2.7600   2.7977   2.8377   2.8524   2.9076   2.9734
     2.9822   3.0326   3.0453   3.1655   3.2558   3.3302   3.3646   3.3780
     3.3798   3.4390   3.4713   3.4748   3.6082   3.6326   3.6608   3.6856
     3.6914   3.7300   3.7413   3.7545   3.8109   3.8764   3.9493   4.0109
     4.0800   4.0835   4.0840   4.0914   4.1723   4.1808   4.1951   4.1966
     4.2339   4.3200   4.3349   4.4020   4.4068   4.4615   4.4774   4.5175
     4.5479   4.6068   4.6253   4.6524   4.6631   4.7273   4.7734   4.7907
     4.8171   4.8610   4.9440   4.9476   4.9940   4.9975   5.0033   5.0465
     5.0543   5.0604   5.0924   5.1189   5.1458   5.2128   5.2831   5.3465
     5.3545   5.3896   5.3974   5.4301   5.4938   5.5004   5.5311   5.5333
     5.5534   5.5554   5.5694   5.6012   5.6512   5.7439   5.7583   5.8180
     5.8190   5.8824   5.9095   5.9323   5.9334   5.9506   5.9695   5.9767
     6.0089   6.0229   6.0439   6.0628   6.0843   6.1008   6.1138   6.1213
     6.1550   6.1963   6.2033   6.2509   6.2748   6.3125   6.3169   6.3907
     6.3952   6.3968   6.4159   6.4842   6.4853   6.5331   6.5409   6.5696
     6.6321   6.6608   6.6847   6.6860   6.7252   6.7459   6.7608   6.7815
     6.8226   6.8584   6.8637   6.8817   6.9495   6.9740   6.9958   7.0010
     7.0075   7.0421   7.0760   7.1058   7.1472   7.1507   7.1934   7.1976
     7.2214   7.2318   7.2475   7.2568   7.2881   7.2918   7.3109   7.3186
     7.3389   7.3487   7.3836   7.3990   7.4295   7.4651   7.5102   7.5400
     7.6029   7.6497   7.6584   7.6743   7.6995   7.7210   7.7306   7.7370
     7.7650   7.7673   7.7945   7.8423   7.8485   7.8505   7.8659   7.9130
     7.9729   7.9744   7.9856   8.0126   8.1044   8.1150   8.1253   8.1378
     8.1563   8.1756   8.1796   8.2104   8.2319   8.2415   8.2643   8.2893
     8.3149   8.3406   8.3633   8.3796   8.4043   8.4069   8.4747   8.4814
     8.5468   8.5599   8.5736   8.6491   8.6592   8.6628   8.6979   8.7015
     8.7021   8.7141   8.7755   8.7906   8.8006   8.8115   8.8309   8.8666
     8.9003   8.9430   8.9568   8.9726   8.9967   9.0119   9.0172   9.0364
     9.0514   9.0635   9.0774   9.0892   9.1445   9.1661   9.1812   9.2412
     9.2578   9.2802   9.2993   9.3033   9.3137   9.3348   9.3400   9.3743
     9.3912   9.4080   9.4085   9.4132   9.4365   9.4442   9.4444   9.4749
     9.5014   9.5494   9.6050   9.6128   9.6946   9.6959   9.7378   9.7804
     9.8121   9.8340   9.8368   9.8466   9.8711   9.9278   9.9529   9.9598
     9.9738  10.0033  10.0389  10.0469  10.0494  10.0773  10.0998  10.1037
    10.1329  10.1593  10.1652  10.1949  10.2000  10.2501  10.2520  10.2780
    10.2808  10.2867  10.3128  10.3415  10.3942  10.4003  10.4064  10.4394
    10.4446  10.4559  10.5124  10.5364  10.5823  10.5843  10.6140  10.6189
    10.6363  10.6403  10.6479  10.6638  10.7062  10.7067  10.7098  10.7354
    10.7537  10.7747  10.7955  10.8147  10.8226  10.8566  10.8855  10.8874
    10.8991  10.9188  10.9278  10.9495

          k = 0.0000 0.0000 0.0031 (110415 PWs)   bands (ev):

   -21.1301 -21.0506 -20.6115 -20.4520 -20.3839 -20.3358 -20.1967 -19.9404
   -19.6084 -19.4261 -19.1551 -18.6301 -18.5983 -18.5573 -18.4764 -18.3517
   -18.2374 -18.2205 -17.9765 -17.8777 -17.7329 -17.5040 -17.0876 -16.9395
   -16.7389 -16.6032 -16.5125 -16.4376 -16.2266 -16.2044 -15.9896 -15.6525
   -15.5940 -14.8823 -14.8618 -14.6513 -14.5943 -14.3669 -14.3651 -14.2936
   -14.1023 -14.0476 -13.6892 -13.6658 -13.5312 -13.4136 -13.3033 -12.5577
   -12.5371 -12.4876 -12.2487 -12.1282 -11.9547 -11.8969 -11.7825 -11.6520
   -11.5101 -11.4410 -11.2805 -11.1835 -11.1744 -10.9914 -10.7779 -10.6144
   -10.4993 -10.1456 -10.1080 -10.0075  -9.9449  -9.8944  -9.8346  -9.7499
    -9.7425  -9.5082  -9.3852  -9.3296  -9.2918  -9.2107  -9.1865  -9.1159
    -9.0833  -9.0721  -8.8446  -8.8087  -8.6409  -8.5945  -8.5867  -8.5304
    -8.3921  -8.3684  -8.3177  -8.2648  -8.2549  -8.1646  -8.0728  -8.0542
    -8.0016  -7.9974  -7.8781  -7.7553  -7.5457  -7.5145  -7.5092  -7.3796
    -7.3728  -7.3163  -7.2521  -7.1441  -7.1422  -7.1317  -7.0363  -6.9501
    -6.8514  -6.6479  -6.6075  -6.3879  -6.3626  -6.2694  -6.2177  -6.1765
    -6.1469  -5.9944  -5.8769  -5.8278  -5.7822  -5.6510  -5.5074  -5.4679
    -5.4072  -5.3668  -5.3633  -5.3464  -5.1879  -4.8706  -4.6937  -4.5202
    -4.3089  -4.2064  -4.1320  -4.0391  -3.6000  -3.3124  -3.3020  -3.1454
    -1.2644  -1.1624  -1.1328  -0.6875  -0.4213  -0.4133  -0.1921  -0.1193
    -0.0093   0.1040   0.2769   0.6574   0.9135   0.9722   0.9787   1.1195
     1.1240   1.3400   1.3922   1.4361   1.6253   1.7220   1.7824   1.8160
     1.8395   1.8528   1.8602   1.9209   1.9411   1.9517   2.0170   2.0757
     2.3050   2.3289   2.3455   2.3754   2.3926   2.4450   2.4724   2.4991
     2.5808   2.7198   2.7662   2.7902   2.8386   2.8559   2.9171   2.9649
     2.9670   3.0516   3.0622   3.1672   3.2359   3.3223   3.3503   3.3792
     3.4008   3.4268   3.4821   3.4884   3.6023   3.6082   3.6522   3.6655
     3.7110   3.7423   3.7635   3.7883   3.7978   3.8782   3.9502   4.0105
     4.0517   4.0788   4.0920   4.0994   4.1544   4.1710   4.1952   4.2052
     4.2065   4.3089   4.3457   4.4120   4.4337   4.4770   4.4827   4.5155
     4.5440   4.6130   4.6283   4.6328   4.6640   4.6928   4.7715   4.7991
     4.8406   4.8878   4.8923   4.9308   4.9818   4.9866   5.0173   5.0218
     5.0513   5.0886   5.1279   5.1306   5.1944   5.2100   5.2546   5.3336
     5.3364   5.3777   5.4027   5.4120   5.4967   5.4994   5.5371   5.5401
     5.5421   5.5601   5.5879   5.6440   5.6534   5.7539   5.7632   5.7848
     5.7886   5.8717   5.9076   5.9261   5.9288   5.9431   5.9461   5.9742
     6.0241   6.0390   6.0395   6.0670   6.0761   6.0867   6.1424   6.1467
     6.1662   6.2044   6.2097   6.2116   6.2943   6.3082   6.3342   6.3423
     6.3818   6.4103   6.4322   6.4839   6.4860   6.5477   6.5632   6.5926
     6.6061   6.6559   6.6736   6.6888   6.6968   6.7443   6.7482   6.8234
     6.8394   6.8474   6.8790   6.9185   6.9217   6.9731   6.9769   7.0021
     7.0042   7.0224   7.0839   7.1174   7.1282   7.1562   7.1823   7.2085
     7.2211   7.2382   7.2491   7.2614   7.2776   7.2902   7.3058   7.3182
     7.3184   7.3453   7.3765   7.4126   7.4467   7.5123   7.5195   7.5461
     7.6076   7.6262   7.6504   7.6563   7.6742   7.7258   7.7325   7.7388
     7.7396   7.7793   7.8132   7.8510   7.8557   7.8801   7.8962   7.9194
     7.9531   7.9809   7.9986   7.9994   8.0867   8.1009   8.1191   8.1219
     8.1737   8.1768   8.1879   8.2210   8.2315   8.2559   8.2589   8.2863
     8.3008   8.3543   8.3595   8.3660   8.3931   8.4383   8.4584   8.4711
     8.5311   8.5472   8.5753   8.6530   8.6563   8.6650   8.6916   8.6984
     8.7002   8.7453   8.7620   8.8051   8.8106   8.8251   8.8415   8.8803
     8.8930   8.9143   8.9390   8.9735   8.9947   9.0136   9.0193   9.0225
     9.0332   9.0782   9.0809   9.1093   9.1309   9.1398   9.1918   9.2143
     9.2509   9.2841   9.2901   9.2975   9.3138   9.3298   9.3331   9.3670
     9.3758   9.4033   9.4130   9.4375   9.4427   9.4702   9.4766   9.4880
     9.5034   9.5480   9.5975   9.6576   9.6727   9.6899   9.7379   9.7854
     9.7911   9.7961   9.8281   9.8449   9.8802   9.9203   9.9382   9.9455
     9.9863  10.0078  10.0460  10.0565  10.0566  10.0663  10.0905  10.1021
    10.1414  10.1533  10.1632  10.1804  10.2290  10.2329  10.2612  10.2676
    10.2710  10.3007  10.3143  10.3406  10.3753  10.4207  10.4320  10.4452
    10.4467  10.4580  10.5233  10.5372  10.5636  10.5775  10.5778  10.6105
    10.6292  10.6406  10.6549  10.6615  10.6671  10.7023  10.7340  10.7346
    10.7539  10.7712  10.8046  10.8389  10.8410  10.8540  10.8708  10.8859
    10.9078  10.9140  10.9270  10.9705

          k = 0.0000 0.0000 0.0047 (110415 PWs)   bands (ev):

   -21.1295 -21.0497 -20.6145 -20.4684 -20.3871 -20.3181 -20.1887 -19.9395
   -19.6082 -19.4273 -19.1543 -18.6341 -18.6203 -18.5721 -18.4775 -18.3404
   -18.2327 -18.2071 -17.9670 -17.8709 -17.7337 -17.4969 -17.0951 -16.9391
   -16.7469 -16.6068 -16.5031 -16.4309 -16.2305 -16.2024 -15.9898 -15.6775
   -15.6180 -14.8557 -14.8344 -14.6515 -14.5968 -14.3689 -14.3626 -14.2979
   -14.0981 -14.0482 -13.6894 -13.6631 -13.5293 -13.4398 -13.2828 -12.5620
   -12.5341 -12.4980 -12.2448 -12.1397 -11.9409 -11.8902 -11.8033 -11.6768
   -11.4883 -11.4307 -11.2956 -11.2059 -11.1753 -10.9513 -10.7904 -10.5950
   -10.4859 -10.1589 -10.0999 -10.0308  -9.9464  -9.9243  -9.8134  -9.7461
    -9.7381  -9.4972  -9.4100  -9.3279  -9.3016  -9.1857  -9.1746  -9.1031
    -9.0821  -9.0656  -8.8446  -8.8072  -8.6406  -8.5972  -8.5861  -8.5319
    -8.3962  -8.3911  -8.3225  -8.2704  -8.2307  -8.1695  -8.0632  -8.0544
    -8.0077  -7.9921  -7.8742  -7.7543  -7.5606  -7.5190  -7.5133  -7.4090
    -7.3726  -7.3452  -7.2582  -7.1457  -7.1168  -7.1004  -7.0130  -6.9493
    -6.8541  -6.6470  -6.6152  -6.3849  -6.3561  -6.2854  -6.2401  -6.1868
    -6.1422  -5.9884  -5.8811  -5.8077  -5.7653  -5.6498  -5.5058  -5.4807
    -5.4199  -5.3598  -5.3550  -5.3372  -5.1814  -4.8737  -4.6976  -4.5258
    -4.3094  -4.2026  -4.1246  -4.0399  -3.6006  -3.3202  -3.3069  -3.1543
    -1.2566  -1.1627  -1.1211  -0.6917  -0.4258  -0.4082  -0.1870  -0.1183
    -0.0082   0.1004   0.2876   0.6575   0.9153   0.9464   0.9805   1.1091
     1.1390   1.3403   1.3866   1.4378   1.6121   1.6892   1.7496   1.8121
     1.8350   1.8534   1.8955   1.9526   1.9570   1.9623   2.0227   2.0693
     2.2860   2.3091   2.3424   2.3742   2.4133   2.4701   2.4762   2.4991
     2.5902   2.6968   2.7762   2.7807   2.8402   2.8518   2.9389   2.9471
     2.9571   3.0719   3.0860   3.1699   3.2112   3.3093   3.3300   3.3812
     3.4153   3.4271   3.4916   3.5084   3.5813   3.5974   3.6193   3.6692
     3.7375   3.7616   3.7791   3.7905   3.8210   3.8821   3.9517   4.0099
     4.0185   4.0715   4.0926   4.1222   4.1224   4.1438   4.1602   4.1997
     4.2437   4.3023   4.3617   4.4005   4.4572   4.4816   4.5005   4.5381
     4.5441   4.5900   4.5999   4.6644   4.6648   4.6666   4.7545   4.8281
     4.8296   4.8536   4.9161   4.9191   4.9642   4.9841   4.9888   5.0428
     5.0534   5.1157   5.1385   5.1707   5.1774   5.2476   5.2552   5.3094
     5.3198   5.3374   5.4079   5.4097   5.5005   5.5063   5.5111   5.5469
     5.5574   5.5586   5.6269   5.6573   5.6832   5.7289   5.7361   5.7755
     5.8046   5.8671   5.8764   5.8777   5.9185   5.9405   5.9636   5.9795
     6.0164   6.0285   6.0453   6.0671   6.0743   6.1084   6.1289   6.1695
     6.1844   6.1987   6.2215   6.2292   6.2969   6.3022   6.3112   6.3640
     6.3698   6.4071   6.4322   6.4745   6.5232   6.5509   6.5592   6.5886
     6.6075   6.6236   6.6942   6.6971   6.7163   6.7279   6.7485   6.8247
     6.8250   6.8738   6.8940   6.9140   6.9588   6.9607   6.9614   6.9781
     7.0041   7.0351   7.0598   7.1070   7.1430   7.1582   7.1749   7.2026
     7.2253   7.2267   7.2301   7.2448   7.2586   7.2911   7.3220   7.3341
     7.3394   7.3560   7.3760   7.4127   7.4799   7.5164   7.5519   7.5603
     7.5838   7.5914   7.6530   7.6556   7.6630   7.7145   7.7289   7.7321
     7.7516   7.8014   7.8416   7.8426   7.8517   7.8996   7.9116   7.9271
     7.9694   7.9810   7.9938   8.0162   8.0725   8.0802   8.0975   8.1263
     8.1627   8.1723   8.2211   8.2271   8.2286   8.2379   8.2796   8.2823
     8.2997   8.3500   8.3509   8.3783   8.3872   8.4136   8.4639   8.4721
     8.5205   8.5448   8.5772   8.6361   8.6410   8.6837   8.6851   8.6863
     8.7012   8.7424   8.7768   8.8208   8.8218   8.8596   8.8609   8.8821
     8.8887   8.8892   8.9149   8.9691   8.9750   9.0083   9.0118   9.0234
     9.0238   9.0725   9.0949   9.1071   9.1245   9.1412   9.1838   9.1873
     9.2469   9.2780   9.2902   9.3018   9.3119   9.3258   9.3385   9.3491
     9.3787   9.3905   9.4134   9.4411   9.4511   9.4952   9.4953   9.4965
     9.5388   9.5719   9.5756   9.6432   9.6757   9.7101   9.7330   9.7585
     9.7655   9.8000   9.8245   9.8412   9.9015   9.9016   9.9121   9.9274
     9.9499  10.0276  10.0330  10.0685  10.0704  10.0777  10.0810  10.1166
    10.1448  10.1545  10.1668  10.1787  10.1838  10.2167  10.2715  10.2739
    10.2835  10.3155  10.3327  10.3405  10.3415  10.4454  10.4487  10.4509
    10.4529  10.4680  10.5085  10.5458  10.5481  10.5523  10.5811  10.5880
    10.6139  10.6273  10.6482  10.6639  10.6728  10.6839  10.7187  10.7462
    10.7630  10.7678  10.8285  10.8304  10.8323  10.8501  10.8769  10.8998
    10.9103  10.9175  10.9547  10.9578

          k = 0.0000 0.0000 0.0063 (110399 PWs)   bands (ev):

   -21.1286 -21.0484 -20.6187 -20.4863 -20.3910 -20.2985 -20.1781 -19.9383
   -19.6079 -19.4289 -19.1533 -18.6473 -18.6452 -18.5838 -18.4786 -18.3285
   -18.2313 -18.1874 -17.9541 -17.8611 -17.7337 -17.4875 -17.1052 -16.9387
   -16.7574 -16.6111 -16.4912 -16.4226 -16.2355 -16.1999 -15.9901 -15.7097
   -15.6485 -14.8214 -14.7992 -14.6518 -14.6000 -14.3713 -14.3592 -14.3037
   -14.0926 -14.0491 -13.6895 -13.6593 -13.5268 -13.4673 -13.2632 -12.5677
   -12.5301 -12.5122 -12.2399 -12.1536 -11.9238 -11.8814 -11.8299 -11.7034
   -11.4654 -11.4197 -11.3132 -11.2338 -11.1658 -10.9135 -10.8024 -10.5700
   -10.4696 -10.1774 -10.0890 -10.0561  -9.9590  -9.9459  -9.8016  -9.7378
    -9.7325  -9.4824  -9.4346  -9.3233  -9.3108  -9.1847  -9.1364  -9.0990
    -9.0805  -9.0477  -8.8442  -8.8052  -8.6402  -8.6009  -8.5850  -8.5341
    -8.4142  -8.4020  -8.3285  -8.2778  -8.2056  -8.1764  -8.0543  -8.0506
    -8.0152  -7.9854  -7.8697  -7.7530  -7.5807  -7.5276  -7.5218  -7.4387
    -7.3723  -7.3709  -7.2650  -7.1478  -7.0922  -7.0665  -6.9830  -6.9482
    -6.8583  -6.6455  -6.6256  -6.3808  -6.3473  -6.3081  -6.2678  -6.1970
    -6.1361  -5.9819  -5.8840  -5.7871  -5.7440  -5.6483  -5.5020  -5.4962
    -5.4334  -5.3498  -5.3475  -5.3268  -5.1725  -4.8783  -4.7027  -4.5333
    -4.3100  -4.1977  -4.1146  -4.0409  -3.6015  -3.3329  -3.3118  -3.1665
    -1.2460  -1.1621  -1.1058  -0.6968  -0.4319  -0.4018  -0.1797  -0.1170
    -0.0068   0.0962   0.3015   0.6575   0.9174   0.9177   0.9829   1.0945
     1.1520   1.3407   1.3790   1.4402   1.5980   1.6570   1.7174   1.8068
     1.8179   1.8692   1.9305   1.9546   1.9836   1.9938   2.0305   2.0601
     2.2693   2.2894   2.3386   2.3727   2.4320   2.4813   2.4971   2.4996
     2.6039   2.6712   2.7673   2.7896   2.8423   2.8468   2.9300   2.9443
     2.9675   3.0923   3.1140   3.1734   3.1849   3.2919   3.3063   3.3840
     3.4047   3.4550   3.5021   3.5311   3.5543   3.5870   3.5951   3.6733
     3.7561   3.7679   3.7873   3.8184   3.8490   3.8906   3.9537   3.9860
     4.0091   4.0437   4.0907   4.1056   4.1154   4.1193   4.1506   4.2011
     4.2822   4.2978   4.3739   4.3797   4.4660   4.4814   4.5288   4.5311
     4.5623   4.5702   4.5878   4.6507   4.6646   4.6986   4.7441   4.7680
     4.8486   4.8588   4.9042   4.9417   4.9417   4.9567   5.0068   5.0559
     5.0700   5.1279   5.1394   5.1486   5.2070   5.2648   5.2828   5.2830
     5.3026   5.3270   5.4066   5.4133   5.4803   5.5044   5.5054   5.5397
     5.5783   5.5820   5.6601   5.6629   5.6825   5.6881   5.7165   5.8106
     5.8284   5.8311   5.8410   5.8701   5.9114   5.9369   5.9372   5.9796
     5.9998   6.0264   6.0590   6.0649   6.0726   6.1130   6.1203   6.1773
     6.2000   6.2112   6.2300   6.2723   6.2736   6.3059   6.3179   6.3727
     6.3800   6.3953   6.4319   6.4601   6.5347   6.5469   6.5518   6.5675
     6.6161   6.6417   6.7011   6.7034   6.7281   6.7317   6.7622   6.8175
     6.8273   6.8635   6.9099   6.9141   6.9348   6.9540   6.9621   7.0072
     7.0094   7.0446   7.0476   7.0922   7.1459   7.1510   7.1727   7.1764
     7.1865   7.2002   7.2197   7.2441   7.2662   7.3060   7.3564   7.3604
     7.3633   7.3698   7.3852   7.4062   7.5064   7.5207   7.5506   7.5549
     7.5660   7.5760   7.6423   7.6615   7.6942   7.6997   7.7247   7.7386
     7.7668   7.8207   7.8291   7.8525   7.8719   7.8834   7.9163   7.9350
     7.9615   7.9982   8.0254   8.0358   8.0592   8.0596   8.0883   8.1360
     8.1447   8.1719   8.2096   8.2102   8.2335   8.2532   8.2710   8.3045
     8.3182   8.3380   8.3519   8.3621   8.3628   8.4168   8.4558   8.5043
     8.5190   8.5381   8.5792   8.6123   8.6157   8.6710   8.6801   8.7016
     8.7065   8.7198   8.7855   8.8325   8.8436   8.8560   8.8722   8.8794
     8.8851   8.8892   8.9276   8.9474   8.9771   8.9842   8.9901   9.0301
     9.0315   9.0566   9.0690   9.1311   9.1362   9.1397   9.1579   9.1875
     9.2523   9.2812   9.2817   9.3005   9.3076   9.3080   9.3435   9.3520
     9.3825   9.3827   9.4156   9.4372   9.4581   9.4942   9.5185   9.5336
     9.5516   9.5569   9.5888   9.6100   9.6812   9.7093   9.7385   9.7547
     9.7615   9.7770   9.8141   9.8323   9.8909   9.9059   9.9100   9.9256
     9.9405   9.9955  10.0368  10.0494  10.0651  10.0844  10.1005  10.1327
    10.1335  10.1465  10.1573  10.1762  10.1921  10.2184  10.2618  10.2691
    10.2887  10.2964  10.3377  10.3491  10.3753  10.4407  10.4437  10.4512
    10.4730  10.4875  10.4955  10.5330  10.5359  10.5375  10.5456  10.5997
    10.6088  10.6314  10.6420  10.6535  10.6713  10.6810  10.7275  10.7348
    10.7578  10.7769  10.8050  10.8155  10.8171  10.8708  10.8995  10.9035
    10.9050  10.9415  10.9505  10.9534

          k = 0.0000 0.0000 0.0078 (110397 PWs)   bands (ev):

   -21.1275 -21.0467 -20.6239 -20.5046 -20.3952 -20.2781 -20.1654 -19.9366
   -19.6075 -19.4309 -19.1520 -18.6777 -18.6658 -18.5882 -18.4798 -18.3177
   -18.2309 -18.1660 -17.9383 -17.8480 -17.7320 -17.4761 -17.1177 -16.9383
   -16.7700 -16.6157 -16.4772 -16.4131 -16.2418 -16.1969 -15.9909 -15.7472
   -15.6837 -14.7811 -14.7582 -14.6518 -14.6039 -14.3737 -14.3556 -14.3104
   -14.0860 -14.0502 -13.6897 -13.6547 -13.5235 -13.4956 -13.2451 -12.5748
   -12.5298 -12.5251 -12.2346 -12.1689 -11.9045 -11.8712 -11.8610 -11.7299
   -11.4423 -11.4106 -11.3319 -11.2555 -11.1552 -10.8876 -10.8040 -10.5409
   -10.4516 -10.2008 -10.0804 -10.0763  -9.9960  -9.9456  -9.8003  -9.7418
    -9.7085  -9.4650  -9.4571  -9.3181  -9.3169  -9.1834  -9.1017  -9.0972
    -9.0785  -9.0221  -8.8433  -8.8029  -8.6394  -8.6056  -8.5833  -8.5369
    -8.4372  -8.4095  -8.3351  -8.2868  -8.1851  -8.1801  -8.0541  -8.0355
    -8.0237  -7.9780  -7.8652  -7.7512  -7.6053  -7.5416  -7.5393  -7.4615
    -7.3900  -7.3718  -7.2729  -7.1506  -7.0681  -7.0319  -6.9485  -6.9467
    -6.8641  -6.6429  -6.6384  -6.3761  -6.3365  -6.3363  -6.2988  -6.2062
    -6.1287  -5.9753  -5.8863  -5.7681  -5.7200  -5.6463  -5.5134  -5.4947
    -5.4479  -5.3408  -5.3366  -5.3160  -5.1617  -4.8843  -4.7086  -4.5424
    -4.3109  -4.1921  -4.1022  -4.0419  -3.6026  -3.3497  -3.3171  -3.1817
    -1.2330  -1.1609  -1.0872  -0.7021  -0.4396  -0.3949  -0.1700  -0.1154
    -0.0050   0.0918   0.3182   0.6576   0.8866   0.9208   0.9861   1.0761
     1.1607   1.3411   1.3695   1.4433   1.5853   1.6254   1.6858   1.8005
     1.8019   1.8855   1.9524   1.9699   2.0046   2.0310   2.0404   2.0483
     2.2552   2.2707   2.3346   2.3710   2.4481   2.4874   2.5006   2.5253
     2.6221   2.6446   2.7499   2.8059   2.8448   2.8450   2.9138   2.9296
     2.9995   3.1120   3.1447   3.1583   3.1775   3.2711   3.2809   3.3875
     3.3947   3.4802   3.5129   3.5306   3.5554   3.5557   3.5962   3.6784
     3.7324   3.8001   3.8168   3.8443   3.8652   3.9084   3.9489   3.9624
     4.0018   4.0083   4.0720   4.0759   4.1030   4.1096   4.1823   4.2029
     4.2936   4.3215   4.3550   4.3724   4.4694   4.4830   4.5236   4.5407
     4.5427   4.5497   4.6340   4.6444   4.6628   4.7087   4.7345   4.7434
     4.8328   4.8713   4.8956   4.9260   4.9349   4.9636   5.0357   5.0588
     5.0770   5.0986   5.1562   5.1575   5.2242   5.2338   5.2751   5.2836
     5.3136   5.3740   5.4027   5.4220   5.4462   5.4836   5.5103   5.5480
     5.5975   5.6099   5.6308   5.6479   5.6705   5.6799   5.7493   5.7827
     5.8097   5.8517   5.8579   5.8712   5.8937   5.9081   5.9322   5.9634
     5.9996   6.0097   6.0234   6.0560   6.1009   6.1229   6.1499   6.1533
     6.1941   6.2474   6.2484   6.2763   6.3058   6.3077   6.3270   6.3636
     6.3806   6.4001   6.4395   6.4423   6.4872   6.5475   6.5496   6.6032
     6.6313   6.6464   6.6884   6.7190   6.7274   6.7415   6.7938   6.8275
     6.8390   6.8401   6.8845   6.8978   6.9412   6.9538   6.9642   7.0154
     7.0167   7.0607   7.0611   7.0725   7.1286   7.1400   7.1490   7.1677
     7.1714   7.1842   7.1965   7.2455   7.2733   7.3380   7.3618   7.3846
     7.3942   7.3982   7.4046   7.4052   7.4861   7.5199   7.5528   7.5545
     7.5640   7.5757   7.6465   7.6467   7.6957   7.7171   7.7372   7.7592
     7.7794   7.8176   7.8317   7.8544   7.8606   7.8934   7.9243   7.9436
     7.9551   7.9878   8.0251   8.0463   8.0554   8.0780   8.1136   8.1301
     8.1474   8.1739   8.1766   8.1836   8.2304   8.2719   8.2779   8.3158
     8.3265   8.3296   8.3392   8.3458   8.3648   8.4327   8.4538   8.5220
     8.5276   8.5329   8.5812   8.5827   8.5927   8.6591   8.6662   8.6995
     8.7059   8.7154   8.7612   8.8329   8.8395   8.8534   8.8691   8.8766
     8.8815   8.9227   8.9349   8.9592   8.9654   8.9715   8.9800   9.0391
     9.0398   9.0422   9.0464   9.1186   9.1438   9.1542   9.1642   9.1893
     9.2437   9.2687   9.2868   9.2888   9.3030   9.3098   9.3430   9.3578
     9.3879   9.3930   9.4217   9.4409   9.4588   9.4727   9.5296   9.5379
     9.5642   9.5686   9.5753   9.6323   9.6356   9.7090   9.7097   9.7210
     9.7869   9.7901   9.8159   9.8175   9.8777   9.8829   9.9045   9.9484
     9.9780   9.9787  10.0248  10.0403  10.0492  10.0775  10.0821  10.0861
    10.1576  10.1629  10.1684  10.1806  10.1853  10.2396  10.2499  10.2532
    10.2543  10.3175  10.3321  10.3711  10.4180  10.4246  10.4360  10.4489
    10.4514  10.4863  10.4881  10.5195  10.5316  10.5363  10.5448  10.5679
    10.6155  10.6352  10.6572  10.6629  10.6703  10.6799  10.7052  10.7510
    10.7638  10.7638  10.7697  10.8133  10.8182  10.8638  10.8860  10.8989
    10.9304  10.9307  10.9407  10.9567

          k = 0.0000 0.0000 0.0094 (110397 PWs)   bands (ev):

   -21.1261 -21.0447 -20.6300 -20.5230 -20.3996 -20.2572 -20.1511 -19.9345
   -19.6070 -19.4333 -19.1504 -18.7103 -18.6932 -18.5867 -18.4810 -18.3087
   -18.2308 -18.1456 -17.9208 -17.8309 -17.7274 -17.4632 -17.1321 -16.9378
   -16.7841 -16.6205 -16.4617 -16.4032 -16.2492 -16.1935 -15.9924 -15.7881
   -15.7218 -14.7366 -14.7149 -14.6500 -14.6079 -14.3755 -14.3525 -14.3171
   -14.0788 -14.0515 -13.6897 -13.6492 -13.5243 -13.5195 -13.2290 -12.5834
   -12.5501 -12.5194 -12.2295 -12.1851 -11.8954 -11.8836 -11.8617 -11.7537
   -11.4194 -11.4063 -11.3506 -11.2687 -11.1436 -10.8854 -10.7835 -10.5096
   -10.4327 -10.2287 -10.1026 -10.0679 -10.0287  -9.9472  -9.8033  -9.7487
    -9.6796  -9.4765  -9.4470  -9.3221  -9.3089  -9.1818  -9.1076  -9.0760
    -9.0578  -8.9941  -8.8412  -8.8006  -8.6380  -8.6113  -8.5808  -8.5405
    -8.4600  -8.4189  -8.3420  -8.2970  -8.1956  -8.1544  -8.0537  -8.0328
    -8.0184  -7.9704  -7.8614  -7.7490  -7.6340  -7.5678  -7.5611  -7.4739
    -7.4013  -7.3711  -7.2819  -7.1539  -7.0443  -6.9975  -6.9450  -6.9115
    -6.8715  -6.6532  -6.6393  -6.3725  -6.3689  -6.3300  -6.3234  -6.2145
    -6.1205  -5.9687  -5.8884  -5.7531  -5.6945  -5.6440  -5.5319  -5.4826
    -5.4631  -5.3349  -5.3202  -5.3052  -5.1490  -4.8919  -4.7149  -4.5529
    -4.3119  -4.1865  -4.0877  -4.0428  -3.6040  -3.3701  -3.3233  -3.1997
    -1.2182  -1.1590  -1.0655  -0.7072  -0.4485  -0.3879  -0.1577  -0.1135
    -0.0029   0.0877   0.3371   0.6576   0.8546   0.9247   0.9899   1.0539
     1.1635   1.3417   1.3583   1.4471   1.5759   1.5946   1.6549   1.7870
     1.7934   1.9012   1.9558   2.0024   2.0250   2.0333   2.0535   2.0695
     2.2438   2.2533   2.3309   2.3693   2.4617   2.4943   2.5025   2.5541
     2.6180   2.6445   2.7294   2.8247   2.8459   2.8483   2.8989   2.9138
     3.0333   3.1302   3.1320   3.1770   3.1822   3.2482   3.2552   3.3849
     3.3917   3.4836   3.5232   3.5249   3.5288   3.5783   3.6042   3.6844
     3.7091   3.8319   3.8497   3.8632   3.8693   3.9201   3.9209   3.9663
     3.9723   4.0073   4.0362   4.0500   4.1053   4.1121   4.2046   4.2164
     4.2889   4.3290   4.3509   4.3613   4.4687   4.4862   4.5121   4.5163
     4.5433   4.5528   4.6446   4.6504   4.6589   4.6798   4.7559   4.7711
     4.8144   4.8528   4.8903   4.8972   4.9584   4.9768   5.0300   5.0621
     5.0625   5.1282   5.1538   5.1647   5.2032   5.2359   5.2519   5.3010
     5.3508   5.4010   5.4055   5.4099   5.4503   5.4534   5.5154   5.5610
     5.5713   5.6090   5.6286   5.6383   5.6803   5.6894   5.7423   5.7755
     5.7796   5.8367   5.8720   5.8843   5.8952   5.9190   5.9216   5.9431
     5.9785   5.9789   6.0000   6.0656   6.1201   6.1342   6.1366   6.1869
     6.1870   6.2719   6.2764   6.2901   6.3017   6.3253   6.3325   6.3362
     6.3730   6.4227   6.4273   6.4499   6.4565   6.5371   6.5828   6.6021
     6.6265   6.6754   6.6932   6.7176   6.7429   6.7479   6.7918   6.8265
     6.8375   6.8548   6.8749   6.8922   6.9235   6.9392   6.9887   7.0100
     7.0204   7.0429   7.0746   7.0959   7.1009   7.1211   7.1293   7.1382
     7.1693   7.1832   7.2191   7.2483   7.2749   7.3344   7.3616   7.3947
     7.4137   7.4337   7.4357   7.4372   7.4579   7.5209   7.5514   7.5553
     7.5715   7.5775   7.6229   7.6714   7.7050   7.7079   7.7391   7.7830
     7.8105   7.8172   7.8325   7.8470   7.8598   7.8983   7.9272   7.9426
     7.9530   7.9856   8.0007   8.0362   8.0726   8.1161   8.1196   8.1343
     8.1359   8.1610   8.1785   8.1816   8.2073   8.2802   8.2889   8.3021
     8.3244   8.3302   8.3415   8.3615   8.3842   8.4249   8.4569   8.5146
     8.5279   8.5481   8.5497   8.5833   8.5935   8.6422   8.6441   8.6867
     8.6954   8.7196   8.7267   8.8126   8.8234   8.8417   8.8713   8.8803
     8.9036   8.9140   8.9371   8.9563   8.9581   8.9841   8.9948   9.0233
     9.0477   9.0521   9.0584   9.1030   9.1506   9.1618   9.1733   9.1866
     9.2421   9.2494   9.2695   9.2933   9.2990   9.3422   9.3440   9.3485
     9.3944   9.4096   9.4341   9.4499   9.4516   9.4539   9.5058   9.5388
     9.5528   9.5875   9.5909   9.6072   9.6616   9.6629   9.6676   9.7001
     9.7858   9.8040   9.8101   9.8429   9.8593   9.8792   9.8861   9.9674
     9.9787   9.9890  10.0241  10.0323  10.0404  10.0585  10.0586  10.0906
    10.1466  10.1507  10.1605  10.2032  10.2133  10.2143  10.2216  10.2475
    10.2713  10.3286  10.3341  10.3932  10.4068  10.4082  10.4185  10.4346
    10.4552  10.4585  10.4822  10.5308  10.5337  10.5395  10.5455  10.5690
    10.6133  10.6161  10.6540  10.6586  10.6880  10.6980  10.7112  10.7163
    10.7456  10.7768  10.7859  10.8118  10.8191  10.8410  10.8558  10.8701
    10.9302  10.9563  10.9615  10.9739

          k = 0.0000 0.0000 0.0110 (110427 PWs)   bands (ev):

   -21.1245 -21.0423 -20.6369 -20.5413 -20.4037 -20.2362 -20.1355 -19.9319
   -19.6063 -19.4361 -19.1486 -18.7442 -18.7239 -18.5819 -18.4823 -18.3016
   -18.2308 -18.1279 -17.9023 -17.8094 -17.7190 -17.4491 -17.1482 -16.9374
   -16.7994 -16.6254 -16.4451 -16.3938 -16.2577 -16.1897 -15.9954 -15.8305
   -15.7612 -14.6899 -14.6811 -14.6357 -14.6113 -14.3764 -14.3522 -14.3213
   -14.0711 -14.0528 -13.6895 -13.6432 -13.5534 -13.5148 -13.2149 -12.5949
   -12.5714 -12.5132 -12.2253 -12.2017 -11.9318 -11.8618 -11.8573 -11.7699
   -11.4083 -11.3970 -11.3689 -11.2725 -11.1308 -10.8979 -10.7492 -10.4782
   -10.4134 -10.2600 -10.1220 -10.0908 -10.0303  -9.9519  -9.8062  -9.7568
    -9.6495  -9.4923  -9.4305  -9.3217  -9.2997  -9.1800  -9.1154  -9.0731
    -9.0187  -8.9665  -8.8371  -8.7984  -8.6360  -8.6178  -8.5773  -8.5447
    -8.4823  -8.4304  -8.3488  -8.3078  -8.2079  -8.1287  -8.0535  -8.0422
    -7.9998  -7.9630  -7.8587  -7.7462  -7.6661  -7.6031  -7.5844  -7.4790
    -7.4058  -7.3702  -7.2922  -7.1578  -7.0205  -6.9641  -6.9431  -6.8806
    -6.8732  -6.6697  -6.6346  -6.4041  -6.3822  -6.3482  -6.3087  -6.2223
    -6.1118  -5.9623  -5.8905  -5.7432  -5.6687  -5.6413  -5.5513  -5.4791
    -5.4647  -5.3299  -5.3005  -5.2947  -5.1348  -4.9012  -4.7212  -4.5646
    -4.3132  -4.1813  -4.0714  -4.0432  -3.6056  -3.3935  -3.3303  -3.2200
    -1.2021  -1.1565  -1.0409  -0.7112  -0.4585  -0.3813  -0.1428  -0.1114
    -0.0005   0.0842   0.3579   0.6577   0.8219   0.9292   0.9945   1.0282
     1.1593   1.3424   1.3456   1.4515   1.5644   1.5710   1.6247   1.7730
     1.7858   1.9157   1.9585   2.0165   2.0305   2.0445   2.0732   2.1081
     2.2350   2.2375   2.3279   2.3678   2.4730   2.5020   2.5053   2.5796
     2.5954   2.6705   2.7074   2.8455   2.8497   2.8522   2.8852   2.8975
     3.0684   3.1064   3.1452   3.1870   3.2104   3.2242   3.2312   3.3751
     3.3960   3.4618   3.4957   3.5316   3.5514   3.5904   3.6268   3.6885
     3.6913   3.8555   3.8587   3.8664   3.8849   3.8924   3.9052   3.9768
     3.9850   4.0065   4.0182   4.0241   4.1096   4.1183   4.2057   4.2522
     4.2831   4.3033   4.3139   4.4001   4.4653   4.4859   4.4907   4.5098
     4.5368   4.5668   4.5954   4.6416   4.6527   4.7209   4.7771   4.8020
     4.8073   4.8228   4.8724   4.8883   4.9527   4.9934   5.0154   5.0656
     5.0693   5.1423   5.1584   5.1701   5.2056   5.2244   5.2405   5.3303
     5.3720   5.3735   5.4151   5.4179   5.4183   5.4799   5.5213   5.5407
     5.5717   5.5719   5.6529   5.6646   5.6925   5.6941   5.7101   5.7516
     5.7866   5.7866   5.8667   5.8935   5.8987   5.9235   5.9244   5.9391
     5.9539   5.9547   5.9968   6.0881   6.0977   6.1449   6.1605   6.1845
     6.2233   6.2807   6.2907   6.2970   6.3060   6.3287   6.3296   6.3317
     6.3779   6.3845   6.4027   6.4850   6.5024   6.5050   6.5842   6.6219
     6.6403   6.6911   6.6922   6.7175   6.7532   6.7551   6.7715   6.8388
     6.8405   6.8445   6.8798   6.9023   6.9032   6.9145   7.0062   7.0179
     7.0244   7.0265   7.0653   7.0893   7.0914   7.0945   7.1184   7.1657
     7.1667   7.1755   7.2489   7.2644   7.2749   7.2988   7.3742   7.3959
     7.4120   7.4445   7.4689   7.4744   7.4748   7.5404   7.5474   7.5567
     7.5692   7.5766   7.6122   7.6799   7.7186   7.7197   7.7331   7.7749
     7.8093   7.8265   7.8474   7.8680   7.8795   7.8873   7.9099   7.9297
     7.9657   7.9659   8.0092   8.0338   8.0757   8.1023   8.1092   8.1309
     8.1330   8.1520   8.1880   8.2065   8.2179   8.2934   8.2949   8.3068
     8.3159   8.3185   8.3505   8.3855   8.3963   8.4203   8.4464   8.5002
     8.5076   8.5334   8.5636   8.5852   8.6046   8.6238   8.6239   8.6748
     8.6803   8.6841   8.7390   8.7892   8.7902   8.8393   8.8592   8.8805
     8.8990   8.9082   8.9272   8.9484   8.9867   8.9959   9.0070   9.0293
     9.0551   9.0571   9.0660   9.1133   9.1309   9.1657   9.1895   9.1976
     9.2216   9.2525   9.2611   9.2974   9.2975   9.3399   9.3449   9.3742
     9.4030   9.4184   9.4315   9.4493   9.4586   9.4676   9.4755   9.5079
     9.5542   9.5879   9.5922   9.6034   9.6093   9.6497   9.6768   9.6929
     9.7701   9.7910   9.8257   9.8355   9.8431   9.8659   9.9189   9.9375
     9.9703   9.9810   9.9861  10.0381  10.0423  10.0697  10.0990  10.0997
    10.1275  10.1292  10.1369  10.1850  10.2039  10.2233  10.2454  10.2676
    10.2731  10.3147  10.3303  10.3595  10.3928  10.4029  10.4167  10.4286
    10.4355  10.4715  10.5006  10.5032  10.5242  10.5521  10.5540  10.5632
    10.5903  10.6374  10.6501  10.6593  10.6735  10.6952  10.7030  10.7306
    10.7642  10.7642  10.7656  10.8248  10.8289  10.8330  10.8491  10.8574
    10.9221  10.9710  10.9794  11.0126

          k = 0.0000 0.0000 0.0125 (110403 PWs)   bands (ev):

   -21.1227 -21.0396 -20.6446 -20.5592 -20.4077 -20.2154 -20.1189 -19.9287
   -19.6053 -19.4393 -19.1466 -18.7789 -18.7563 -18.5751 -18.4838 -18.2963
   -18.2311 -18.1139 -17.8839 -17.7834 -17.7059 -17.4340 -17.1656 -16.9371
   -16.8155 -16.6306 -16.4279 -16.3857 -16.2671 -16.1854 -16.0010 -15.8721
   -15.8007 -14.6731 -14.6466 -14.6098 -14.5938 -14.3761 -14.3574 -14.3202
   -14.0633 -14.0541 -13.6892 -13.6366 -13.5826 -13.5095 -13.2031 -12.6139
   -12.5886 -12.5069 -12.2225 -12.2186 -11.9692 -11.8645 -11.8394 -11.7712
   -11.4153 -11.3861 -11.3753 -11.2689 -11.1166 -10.9141 -10.7121 -10.4495
   -10.3939 -10.2931 -10.1385 -10.1313 -10.0153  -9.9600  -9.8066  -9.7638
    -9.6205  -9.5033  -9.4180  -9.3154  -9.2894  -9.1779  -9.1245  -9.0698
    -8.9802  -8.9415  -8.8299  -8.7966  -8.6331  -8.6251  -8.5730  -8.5493
    -8.5041  -8.4439  -8.3553  -8.3189  -8.2218  -8.1033  -8.0538  -8.0517
    -7.9800  -7.9563  -7.8580  -7.7429  -7.7003  -7.6403  -7.6093  -7.4802
    -7.4054  -7.3691  -7.3036  -7.1622  -6.9969  -6.9409  -6.9326  -6.8904
    -6.8345  -6.6875  -6.6289  -6.4411  -6.4130  -6.3449  -6.2924  -6.2297
    -6.1029  -5.9559  -5.8927  -5.7387  -5.6434  -5.6383  -5.5714  -5.4958
    -5.4412  -5.3256  -5.2847  -5.2773  -5.1192  -4.9120  -4.7273  -4.5772
    -4.3147  -4.1772  -4.0537  -4.0428  -3.6075  -3.4196  -3.3383  -3.2422
    -1.1853  -1.1535  -1.0138  -0.7136  -0.4694  -0.3755  -0.1252  -0.1091
     0.0022   0.0813   0.3800   0.6578   0.7889   0.9344   0.9993   0.9997
     1.1478   1.3316   1.3431   1.4567   1.5350   1.5710   1.5952   1.7599
     1.7778   1.9286   1.9612   1.9977   2.0497   2.0629   2.1029   2.1473
     2.2235   2.2284   2.3257   2.3665   2.4826   2.5090   2.5102   2.5626
     2.6156   2.6854   2.6992   2.8557   2.8565   2.8674   2.8729   2.8818
     3.0820   3.1045   3.1522   3.1897   3.2025   3.2139   3.2445   3.3652
     3.3995   3.4360   3.4693   3.5356   3.5762   3.5973   3.6580   3.6734
     3.6978   3.8151   3.8503   3.8528   3.8921   3.9009   3.9216   3.9858
     3.9946   4.0061   4.0233   4.0237   4.1147   4.1276   4.2047   4.2693
     4.2731   4.2819   4.2891   4.4276   4.4599   4.4723   4.4958   4.5048
     4.5223   4.5443   4.5917   4.6317   4.6442   4.7535   4.7750   4.7902
     4.8208   4.8330   4.8651   4.8893   4.9087   5.0005   5.0314   5.0654
     5.0694   5.1537   5.1735   5.1880   5.1969   5.2120   5.2539   5.3339
     5.3549   5.3740   5.3798   5.4232   5.4537   5.4587   5.5285   5.5363
     5.5663   5.5749   5.6813   5.6825   5.6903   5.6986   5.7050   5.7280
     5.7352   5.7848   5.8376   5.8867   5.8907   5.8942   5.9061   5.9477
     5.9526   5.9818   6.0119   6.0785   6.1314   6.1449   6.1530   6.1936
     6.2565   6.2806   6.2870   6.2991   6.3170   6.3226   6.3330   6.3336
     6.3845   6.3851   6.3853   6.4633   6.5215   6.5566   6.5750   6.6429
     6.6538   6.6755   6.6836   6.7268   6.7521   6.7581   6.7968   6.8174
     6.8361   6.8372   6.8844   6.8882   6.9006   6.9064   7.0074   7.0083
     7.0273   7.0357   7.0574   7.0681   7.0757   7.1093   7.1195   7.1630
     7.1705   7.2150   7.2312   7.2744   7.2812   7.3081   7.3767   7.3933
     7.3964   7.4470   7.4935   7.5110   7.5173   7.5405   7.5469   7.5655
     7.5690   7.5728   7.6369   7.6606   7.7223   7.7276   7.7576   7.7587
     7.8133   7.8235   7.8580   7.8659   7.8665   7.8981   7.8999   7.9427
     7.9577   7.9882   8.0054   8.0355   8.0416   8.0821   8.0922   8.1054
     8.1482   8.1632   8.2142   8.2294   8.2520   8.3032   8.3036   8.3095
     8.3110   8.3114   8.3591   8.3594   8.4033   8.4357   8.4620   8.4624
     8.4857   8.5312   8.5660   8.5864   8.5912   8.6077   8.6340   8.6501
     8.6608   8.6837   8.7510   8.7614   8.7661   8.8327   8.8434   8.8499
     8.8780   8.9180   8.9354   8.9366   8.9942   9.0253   9.0273   9.0375
     9.0460   9.0660   9.0788   9.0798   9.1542   9.1884   9.1889   9.1968
     9.2134   9.2625   9.2745   9.2792   9.2977   9.3421   9.3550   9.3977
     9.3979   9.4198   9.4209   9.4547   9.4559   9.4809   9.4826   9.4871
     9.5444   9.5609   9.5620   9.5711   9.6148   9.6740   9.6777   9.6973
     9.7407   9.7614   9.8120   9.8402   9.8532   9.8807   9.8812   9.9199
     9.9404   9.9626   9.9893  10.0139  10.0665  10.0723  10.0787  10.1017
    10.1093  10.1525  10.1597  10.1637  10.2074  10.2331  10.2393  10.2713
    10.2928  10.3012  10.3138  10.3381  10.3802  10.3832  10.4052  10.4400
    10.4510  10.4843  10.4866  10.4945  10.5075  10.5087  10.5652  10.5734
    10.5853  10.6095  10.6550  10.6618  10.6946  10.7007  10.7068  10.7110
    10.7314  10.7594  10.7873  10.8315  10.8400  10.8523  10.8584  10.8728
    10.9157  10.9807  10.9979  11.0144

          k = 0.0000 0.0000 0.0141 (110411 PWs)   bands (ev):

   -21.1207 -21.0366 -20.6527 -20.5767 -20.4112 -20.1948 -20.1016 -19.9249
   -19.6040 -19.4429 -19.1445 -18.8140 -18.7894 -18.5668 -18.4853 -18.2928
   -18.2314 -18.1044 -17.8659 -17.7530 -17.6876 -17.4181 -17.1841 -16.9368
   -16.8323 -16.6359 -16.4104 -16.3803 -16.2770 -16.1807 -16.0124 -15.9092
   -15.8391 -14.6752 -14.6311 -14.5797 -14.5409 -14.3741 -14.3672 -14.3142
   -14.0557 -14.0551 -13.6885 -13.6298 -13.6117 -13.5034 -13.1938 -12.6414
   -12.6002 -12.5010 -12.2358 -12.2219 -12.0065 -11.8820 -11.8170 -11.7586
   -11.4244 -11.4020 -11.3543 -11.2613 -11.1012 -10.9298 -10.6761 -10.4280
   -10.3747 -10.3252 -10.1741 -10.1517 -10.0003  -9.9710  -9.8035  -9.7668
    -9.5959  -9.5070  -9.4107  -9.3030  -9.2780  -9.1756  -9.1348  -9.0661
    -8.9428  -8.9210  -8.8182  -8.7955  -8.6330  -8.6292  -8.5695  -8.5524
    -8.5253  -8.4598  -8.3614  -8.3298  -8.2374  -8.0783  -8.0613  -8.0550
    -7.9594  -7.9511  -7.8601  -7.7389  -7.7348  -7.6768  -7.6344  -7.4791
    -7.4017  -7.3676  -7.3160  -7.1670  -6.9735  -6.9385  -6.9139  -6.8902
    -6.7957  -6.7063  -6.6223  -6.4791  -6.4486  -6.3362  -6.2748  -6.2370
    -6.0941  -5.9497  -5.8952  -5.7392  -5.6351  -5.6190  -5.5918  -5.5131
    -5.4127  -5.3222  -5.2753  -5.2510  -5.1024  -4.9245  -4.7330  -4.5905
    -4.3164  -4.1748  -4.0413  -4.0349  -3.6097  -3.4480  -3.3473  -3.2660
    -1.1684  -1.1500  -0.9845  -0.7137  -0.4808  -0.3706  -0.1068  -0.1052
     0.0050   0.0794   0.4034   0.6579   0.7556   0.9404   0.9676   1.0057
     1.1292   1.3165   1.3438   1.4624   1.5063   1.5663   1.5757   1.7475
     1.7696   1.9397   1.9642   1.9774   2.0630   2.0801   2.1388   2.1870
     2.2117   2.2238   2.3245   2.3654   2.4911   2.5135   2.5190   2.5371
     2.6394   2.6688   2.7299   2.8612   2.8622   2.8635   2.8651   2.8920
     3.0591   3.1412   3.1434   3.1729   3.2009   3.2112   3.2787   3.3550
     3.3981   3.4100   3.4497   3.5323   3.5983   3.6038   3.6670   3.6922
     3.7000   3.7653   3.8253   3.8277   3.9040   3.9068   3.9583   3.9601
     4.0072   4.0212   4.0450   4.0477   4.1197   4.1412   4.1994   4.2230
     4.2519   4.2730   4.3263   4.4168   4.4512   4.4910   4.4987   4.5018
     4.5083   4.5092   4.6089   4.6248   4.6340   4.7569   4.7646   4.7651
     4.8315   4.8391   4.8839   4.8930   4.8947   4.9675   5.0706   5.0710
     5.0735   5.1610   5.1740   5.1990   5.2019   5.2127   5.2768   5.3000
     5.3399   5.3534   5.3714   5.4286   5.4396   5.5003   5.5029   5.5398
     5.5659   5.5936   5.6838   5.6847   5.6862   5.7009   5.7033   5.7130
     5.7231   5.7807   5.8076   5.8462   5.8827   5.8850   5.8918   5.9492
     5.9746   5.9855   6.0486   6.0830   6.1222   6.1347   6.1735   6.2042
     6.2600   6.2651   6.2898   6.3043   6.3220   6.3359   6.3429   6.3497
     6.3803   6.3909   6.4052   6.4276   6.5572   6.5667   6.6057   6.6119
     6.6688   6.6740   6.6749   6.7363   6.7604   6.7623   6.7925   6.8072
     6.8196   6.8355   6.8645   6.8903   6.8930   6.9299   6.9897   7.0063
     7.0122   7.0418   7.0444   7.0670   7.0922   7.1024   7.1522   7.1538
     7.1803   7.2025   7.2609   7.2747   7.2861   7.3447   7.3701   7.3714
     7.4015   7.4501   7.5146   7.5226   7.5298   7.5465   7.5611   7.5679
     7.5865   7.5887   7.6424   7.6872   7.7085   7.7287   7.7385   7.7799
     7.8210   7.8290   7.8406   7.8412   7.8721   7.8826   7.9042   7.9555
     7.9866   7.9962   7.9974   8.0059   8.0527   8.0558   8.0577   8.1107
     8.1509   8.1989   8.2392   8.2535   8.2653   8.2938   8.3001   8.3025
     8.3154   8.3271   8.3326   8.3542   8.3987   8.4275   8.4722   8.4748
     8.4771   8.5207   8.5582   8.5829   8.5841   8.6030   8.6269   8.6303
     8.6473   8.6956   8.7431   8.7481   8.7618   8.8222   8.8225   8.8259
     8.8564   8.9180   8.9327   8.9458   8.9898   9.0013   9.0334   9.0520
     9.0613   9.0709   9.0830   9.1005   9.1574   9.1627   9.1951   9.2247
     9.2252   9.2653   9.2737   9.2931   9.3101   9.3298   9.3604   9.3721
     9.4084   9.4169   9.4470   9.4501   9.4514   9.4532   9.5068   9.5105
     9.5248   9.5321   9.5373   9.5603   9.6321   9.6687   9.6980   9.7090
     9.7129   9.7289   9.7883   9.8231   9.8461   9.8657   9.8982   9.9014
     9.9108   9.9475   9.9713   9.9943  10.0399  10.0477  10.0886  10.1020
    10.1144  10.1314  10.1857  10.1874  10.1963  10.2364  10.2407  10.2684
    10.3007  10.3066  10.3180  10.3532  10.3555  10.3658  10.3858  10.4327
    10.4561  10.4736  10.4742  10.4920  10.5011  10.5055  10.5271  10.5762
    10.5778  10.6008  10.6627  10.6680  10.6813  10.6937  10.7030  10.7233
    10.7353  10.7616  10.7907  10.8310  10.8746  10.8767  10.8788  10.8926
    10.9096  10.9894  11.0053  11.0099

          k = 0.0000 0.0000 0.0156 (110441 PWs)   bands (ev):

   -21.1186 -21.0333 -20.6612 -20.5938 -20.4144 -20.1748 -20.0838 -19.9203
   -19.6024 -19.4467 -19.1422 -18.8493 -18.8225 -18.5573 -18.4869 -18.2905
   -18.2319 -18.0995 -17.8482 -17.7189 -17.6641 -17.4016 -17.2033 -16.9366
   -16.8494 -16.6415 -16.3932 -16.3793 -16.2861 -16.1758 -16.0338 -15.9365
   -15.8752 -14.6802 -14.6326 -14.5333 -14.4846 -14.3795 -14.3703 -14.3046
   -14.0555 -14.0484 -13.6874 -13.6406 -13.6227 -13.4968 -13.1873 -12.6737
   -12.6097 -12.4960 -12.2531 -12.2240 -12.0423 -11.9031 -11.7949 -11.7378
   -11.4330 -11.4164 -11.3342 -11.2531 -11.0845 -10.9430 -10.6428 -10.4230
   -10.3570 -10.3488 -10.2159 -10.1614  -9.9893  -9.9832  -9.7967  -9.7628
    -9.5808  -9.4990  -9.4082  -9.2857  -9.2658  -9.1732  -9.1458  -9.0620
    -8.9070  -8.9057  -8.8019  -8.7951  -8.6413  -8.6242  -8.5713  -8.5492
    -8.5460  -8.4779  -8.3670  -8.3401  -8.2547  -8.0710  -8.0579  -8.0539
    -7.9483  -7.9382  -7.8670  -7.7670  -7.7341  -7.7103  -7.6587  -7.4764
    -7.3959  -7.3657  -7.3293  -7.1723  -6.9507  -6.9360  -6.9233  -6.8647
    -6.7572  -6.7255  -6.6151  -6.5176  -6.4850  -6.3256  -6.2559  -6.2442
    -6.0857  -5.9437  -5.8981  -5.7434  -5.6319  -5.6125  -5.5957  -5.5308
    -5.3806  -5.3195  -5.2665  -5.2216  -5.0846  -4.9384  -4.7380  -4.6043
    -4.3185  -4.1748  -4.0383  -4.0152  -3.6122  -3.4781  -3.3571  -3.2909
    -1.1523  -1.1462  -0.9535  -0.7112  -0.4927  -0.3667  -0.1045  -0.0829
     0.0081   0.0785   0.4278   0.6580   0.7225   0.9333   0.9470   1.0123
     1.1045   1.3003   1.3445   1.4689   1.4785   1.5382   1.5841   1.7357
     1.7613   1.9491   1.9562   1.9673   2.0736   2.0961   2.1773   2.2027
     2.2189   2.2291   2.3243   2.3647   2.4988   2.5117   2.5187   2.5282
     2.6315   2.6847   2.7614   2.8506   2.8532   2.8661   2.8732   2.9158
     3.0384   3.1229   3.1503   3.1785   3.2061   3.2190   3.3121   3.3450
     3.3844   3.3851   3.4441   3.5209   3.6107   3.6145   3.6702   3.6911
     3.7141   3.7275   3.7973   3.8165   3.9082   3.9170   3.9333   3.9880
     4.0167   4.0548   4.0685   4.0731   4.1206   4.1554   4.1869   4.1872
     4.2284   4.2686   4.3632   4.3929   4.4378   4.4559   4.4976   4.5019
     4.5128   4.5396   4.5889   4.6225   4.6461   4.7242   4.7527   4.7556
     4.8011   4.8543   4.8878   4.8986   4.9333   4.9470   5.0776   5.0782
     5.1098   5.1534   5.1701   5.1940   5.2139   5.2227   5.2885   5.2991
     5.3014   5.3212   5.3726   5.4236   5.4673   5.4718   5.5264   5.5481
     5.5639   5.6005   5.6327   5.6742   5.6879   5.6938   5.6970   5.7094
     5.7440   5.7856   5.7965   5.8179   5.8728   5.8843   5.8864   5.9563
     5.9774   5.9900   6.0610   6.1000   6.1128   6.1207   6.1919   6.2086
     6.2450   6.2552   6.3072   6.3090   6.3252   6.3397   6.3651   6.3728
     6.3938   6.3981   6.4136   6.4310   6.5577   6.5617   6.5884   6.6410
     6.6632   6.6673   6.6910   6.7385   6.7413   6.7647   6.7712   6.7918
     6.8339   6.8516   6.8560   6.8648   6.9102   6.9569   6.9829   6.9846
     7.0059   7.0170   7.0498   7.0933   7.1034   7.1049   7.1302   7.1519
     7.1916   7.2340   7.2758   7.2974   7.2986   7.3511   7.3598   7.3724
     7.4088   7.4488   7.5073   7.5234   7.5358   7.5369   7.5995   7.6034
     7.6071   7.6187   7.6278   7.6935   7.7127   7.7169   7.7531   7.7819
     7.8069   7.8177   7.8311   7.8379   7.8472   7.9156   7.9169   7.9366
     7.9564   7.9701   7.9878   8.0340   8.0546   8.0683   8.0783   8.1115
     8.1542   8.2081   8.2496   8.2547   8.2681   8.2815   8.2866   8.2914
     8.3197   8.3312   8.3357   8.3575   8.4073   8.4208   8.4609   8.4622
     8.5069   8.5200   8.5551   8.5706   8.5868   8.6055   8.6084   8.6144
     8.6422   8.6980   8.7256   8.7498   8.7703   8.8047   8.8074   8.8092
     8.8578   8.8987   8.9265   8.9406   8.9610   9.0086   9.0375   9.0443
     9.0688   9.0823   9.0914   9.1127   9.1641   9.1662   9.2003   9.2246
     9.2491   9.2631   9.2648   9.2969   9.3059   9.3470   9.3567   9.3771
     9.4068   9.4163   9.4169   9.4455   9.4514   9.4747   9.5039   9.5104
     9.5263   9.5274   9.5385   9.5812   9.6500   9.6510   9.6714   9.7066
     9.7234   9.7351   9.7542   9.7784   9.8267   9.8662   9.8835   9.8879
     9.9127   9.9209   9.9221   9.9978  10.0028  10.0524  10.0817  10.0876
    10.1030  10.1132  10.1594  10.2000  10.2319  10.2343  10.2507  10.2873
    10.3028  10.3033  10.3113  10.3377  10.3608  10.3751  10.3925  10.4044
    10.4266  10.4359  10.4669  10.4885  10.5142  10.5145  10.5311  10.5486
    10.5816  10.5828  10.6583  10.6715  10.6787  10.6995  10.7044  10.7412
    10.7456  10.7568  10.8151  10.8199  10.8796  10.8977  10.9057  10.9167
    10.9204  10.9633  10.9958  11.0127

          k = 0.0000 0.0000 0.0172 (110449 PWs)   bands (ev):

   -21.1163 -21.0297 -20.6700 -20.6103 -20.4173 -20.1555 -20.0657 -19.9149
   -19.6003 -19.4509 -19.1398 -18.8844 -18.8553 -18.5468 -18.4886 -18.2893
   -18.2327 -18.0988 -17.8307 -17.6819 -17.6357 -17.3847 -17.2231 -16.9364
   -16.8667 -16.6474 -16.3852 -16.3773 -16.2927 -16.1710 -16.0656 -15.9526
   -15.9079 -14.6868 -14.6361 -14.4874 -14.4270 -14.3930 -14.3643 -14.2915
   -14.0550 -14.0418 -13.6862 -13.6690 -13.6157 -13.4897 -13.1837 -12.7092
   -12.6183 -12.4928 -12.2704 -12.2292 -12.0755 -11.9239 -11.7739 -11.7124
   -11.4393 -11.4293 -11.3149 -11.2466 -11.0665 -10.9523 -10.6133 -10.4427
   -10.3571 -10.3456 -10.2511 -10.1680  -9.9942  -9.9843  -9.7861  -9.7496
    -9.5764  -9.4784  -9.4094  -9.2657  -9.2528  -9.1705  -9.1574  -9.0576
    -8.8946  -8.8734  -8.7955  -8.7825  -8.6501  -8.6181  -8.5781  -8.5660
    -8.5398  -8.4980  -8.3721  -8.3496  -8.2736  -8.0808  -8.0629  -8.0303
    -7.9488  -7.9168  -7.8810  -7.7937  -7.7386  -7.7284  -7.6816  -7.4726
    -7.3885  -7.3634  -7.3430  -7.1781  -6.9385  -6.9334  -6.9290  -6.8362
    -6.7457  -6.7184  -6.6077  -6.5564  -6.5211  -6.3138  -6.2512  -6.2358
    -6.0781  -5.9379  -5.9017  -5.7503  -5.6331  -5.6290  -5.5738  -5.5487
    -5.3460  -5.3175  -5.2583  -5.1896  -5.0657  -4.9536  -4.7424  -4.6185
    -4.3208  -4.1775  -4.0337  -3.9949  -3.6149  -3.5096  -3.3679  -3.3165
    -1.1420  -1.1375  -0.9213  -0.7054  -0.5045  -0.3638  -0.1023  -0.0586
     0.0115   0.0788   0.4530   0.6581   0.6895   0.8968   0.9543   1.0197
     1.0748   1.2832   1.3450   1.4516   1.4759   1.5109   1.5952   1.7243
     1.7530   1.9344   1.9572   1.9704   2.0823   2.1110   2.1953   2.2177
     2.2188   2.2691   2.3247   2.3641   2.4869   2.5061   2.5247   2.5379
     2.6104   2.7142   2.7928   2.8373   2.8460   2.8708   2.8849   2.9394
     3.0210   3.0985   3.1292   3.2115   3.2160   3.2293   3.3354   3.3435
     3.3594   3.3632   3.4503   3.5036   3.6162   3.6183   3.6640   3.6758
     3.6803   3.7560   3.7773   3.8244   3.8993   3.9203   3.9241   3.9979
     4.0474   4.0761   4.0926   4.1027   4.1070   4.1513   4.1684   4.1989
     4.2024   4.2684   4.3677   4.3980   4.4206   4.4267   4.4901   4.5062
     4.5206   4.5611   4.5830   4.6105   4.6592   4.6930   4.7313   4.7402
     4.7803   4.8631   4.8692   4.9059   4.9635   4.9736   5.0807   5.0843
     5.1462   5.1492   5.1589   5.1831   5.1836   5.2504   5.2704   5.2865
     5.3070   5.3159   5.3829   5.4240   5.4441   5.4980   5.5268   5.5382
     5.5821   5.5886   5.5918   5.6486   5.6604   5.6909   5.7062   5.7065
     5.7464   5.7653   5.7983   5.8592   5.8626   5.8876   5.8941   5.9492
     5.9697   5.9967   6.0678   6.0737   6.1056   6.1623   6.1757   6.2141
     6.2215   6.2730   6.2980   6.3225   6.3347   6.3404   6.3858   6.4012
     6.4136   6.4199   6.4250   6.4590   6.5183   6.5490   6.5998   6.6429
     6.6474   6.6596   6.7079   6.7173   6.7209   6.7589   6.7651   6.7999
     6.8324   6.8410   6.8632   6.8816   6.9251   6.9667   6.9712   6.9884
     7.0039   7.0076   7.0586   7.0678   7.1122   7.1234   7.1419   7.1461
     7.1926   7.2749   7.2919   7.3097   7.3241   7.3366   7.3501   7.3938
     7.4197   7.4403   7.4969   7.5019   7.5505   7.5573   7.6124   7.6164
     7.6311   7.6480   7.6676   7.6791   7.6942   7.6966   7.7709   7.7762
     7.7975   7.8144   7.8258   7.8418   7.8432   7.8868   7.8961   7.9283
     7.9534   7.9862   7.9899   8.0212   8.0682   8.1006   8.1079   8.1289
     8.1573   8.1694   8.2143   8.2310   8.2671   8.2785   8.2819   8.2950
     8.3159   8.3497   8.3709   8.3839   8.4059   8.4172   8.4475   8.4539
     8.4905   8.5265   8.5457   8.5640   8.5760   8.6064   8.6134   8.6260
     8.6477   8.6870   8.7171   8.7511   8.7754   8.7881   8.7935   8.8090
     8.8569   8.8818   8.8918   8.9399   8.9744   8.9987   9.0164   9.0444
     9.0612   9.0900   9.0925   9.1238   9.1778   9.1912   9.2108   9.2189
     9.2425   9.2468   9.2641   9.2778   9.3262   9.3547   9.3669   9.3834
     9.3922   9.4062   9.4315   9.4527   9.4530   9.4566   9.4904   9.5225
     9.5359   9.5464   9.5628   9.6010   9.6363   9.6548   9.6615   9.6935
     9.7027   9.7375   9.7593   9.7603   9.7954   9.8380   9.8635   9.8721
     9.8800   9.8804   9.9301   9.9617   9.9997  10.0603  10.0712  10.0741
    10.0766  10.0853  10.1689  10.2112  10.2249  10.2423  10.2481  10.2736
    10.2758  10.2913  10.3220  10.3470  10.3629  10.3698  10.3811  10.4013
    10.4225  10.4306  10.4599  10.4851  10.4971  10.5087  10.5243  10.5709
    10.5830  10.5853  10.6348  10.6771  10.6861  10.6934  10.7377  10.7463
    10.7729  10.7732  10.8006  10.8116  10.8721  10.9019  10.9048  10.9201
    10.9546  10.9596  10.9940  11.0003

          k = 0.0000 0.0000 0.0188 (110471 PWs)   bands (ev):

   -21.1139 -21.0259 -20.6788 -20.6263 -20.4198 -20.1371 -20.0477 -19.9085
   -19.5978 -19.4554 -19.1373 -18.9192 -18.8876 -18.5353 -18.4904 -18.2889
   -18.2336 -18.1018 -17.8132 -17.6428 -17.6032 -17.3673 -17.2430 -16.9364
   -16.8842 -16.6538 -16.3993 -16.3637 -16.2958 -16.1667 -16.1022 -15.9616
   -15.9362 -14.6946 -14.6395 -14.4471 -14.4064 -14.3721 -14.3526 -14.2737
   -14.0530 -14.0360 -13.6980 -13.6832 -13.6088 -13.4821 -13.1831 -12.7474
   -12.6262 -12.4922 -12.2877 -12.2379 -12.1047 -11.9426 -11.7547 -11.6837
   -11.4419 -11.4407 -11.2965 -11.2433 -11.0475 -10.9568 -10.5882 -10.4772
   -10.3606 -10.3542 -10.2658 -10.1734 -10.0016  -9.9852  -9.7718  -9.7268
    -9.5778  -9.4504  -9.4134  -9.2447  -9.2391  -9.1690  -9.1678  -9.0529
    -8.8857  -8.8434  -8.7958  -8.7624  -8.6591  -8.6112  -8.5870  -8.5852
    -8.5272  -8.5196  -8.3766  -8.3581  -8.2943  -8.0906  -8.0711  -8.0078
    -7.9534  -7.9032  -7.8953  -7.8134  -7.7599  -7.7217  -7.7025  -7.4681
    -7.3801  -7.3605  -7.3568  -7.1843  -6.9554  -6.9307  -6.9088  -6.8085
    -6.7645  -6.6809  -6.6002  -6.5950  -6.5566  -6.3010  -6.2580  -6.2147
    -6.0716  -5.9323  -5.9060  -5.7588  -5.6535  -5.6272  -5.5659  -5.5530
    -5.3162  -5.3101  -5.2508  -5.1553  -5.0459  -4.9699  -4.7462  -4.6329
    -4.3235  -4.1830  -4.0275  -3.9743  -3.6180  -3.5420  -3.3796  -3.3422
    -1.1375  -1.1244  -0.8883  -0.6961  -0.5161  -0.3617  -0.1004  -0.0330
     0.0157   0.0803   0.4787   0.6569   0.6582   0.8584   0.9624   1.0277
     1.0411   1.2654   1.3450   1.4259   1.4801   1.4877   1.6077   1.7134
     1.7449   1.9122   1.9643   1.9734   2.0893   2.1249   2.1926   2.2164
     2.2597   2.3106   2.3256   2.3634   2.4627   2.5131   2.5312   2.5479
     2.5883   2.7447   2.8223   2.8253   2.8406   2.8748   2.8988   2.9614
     3.0090   3.0734   3.1115   3.2160   3.2389   3.2535   3.3268   3.3351
     3.3374   3.3719   3.4624   3.4837   3.5906   3.6179   3.6262   3.6746
     3.6943   3.7378   3.8042   3.8455   3.8726   3.9251   3.9306   4.0018
     4.0454   4.0855   4.1066   4.1267   4.1325   4.1435   4.1539   4.1789
     4.2310   4.2717   4.3425   4.4012   4.4072   4.4279   4.4837   4.5172
     4.5292   4.5293   4.5992   4.6265   4.6509   4.6651   4.7077   4.7151
     4.7866   4.8350   4.8764   4.9143   4.9846   5.0150   5.0818   5.0925
     5.1299   5.1423   5.1541   5.1606   5.1814   5.2560   5.2683   5.2729
     5.3298   5.3303   5.4028   5.4233   5.4244   5.5051   5.5195   5.5323
     5.5458   5.5709   5.5914   5.6301   5.6310   5.6898   5.6966   5.7162
     5.7206   5.7831   5.8147   5.8561   5.8740   5.9024   5.9124   5.9236
     5.9931   6.0056   6.0231   6.0765   6.1284   6.1693   6.1759   6.1964
     6.1994   6.2945   6.3065   6.3320   6.3390   6.3523   6.3848   6.4278
     6.4417   6.4515   6.4559   6.4826   6.4867   6.5429   6.6025   6.6160
     6.6185   6.6490   6.6881   6.6951   6.7425   6.7527   6.7633   6.8055
     6.8081   6.8455   6.8894   6.9035   6.9056   6.9600   6.9967   7.0020
     7.0097   7.0136   7.0381   7.0698   7.1146   7.1301   7.1463   7.1734
     7.1969   7.2699   7.3096   7.3264   7.3362   7.3421   7.3623   7.4142
     7.4248   7.4362   7.4863   7.4891   7.5727   7.5815   7.6076   7.6118
     7.6611   7.6642   7.6683   7.6729   7.6914   7.7250   7.7436   7.7675
     7.7804   7.8017   7.8291   7.8373   7.8568   7.8591   7.8791   7.9372
     7.9419   7.9965   8.0203   8.0399   8.0643   8.1012   8.1176   8.1228
     8.1563   8.1745   8.1850   8.2081   8.2540   8.2547   8.2806   8.3193
     8.3406   8.3698   8.3712   8.4056   8.4072   8.4196   8.4470   8.4564
     8.4764   8.4831   8.5175   8.5539   8.5947   8.6083   8.6168   8.6663
     8.6663   8.6795   8.7150   8.7410   8.7681   8.7702   8.7816   8.8058
     8.8321   8.8750   8.9246   8.9294   8.9458   8.9930   9.0209   9.0512
     9.0527   9.0528   9.0924   9.1547   9.1719   9.1987   9.2063   9.2197
     9.2248   9.2552   9.2643   9.2734   9.3404   9.3686   9.3689   9.3732
     9.3841   9.4141   9.4270   9.4604   9.4636   9.4718   9.4773   9.5200
     9.5614   9.5637   9.5760   9.6083   9.6356   9.6361   9.6763   9.6787
     9.6857   9.7496   9.7512   9.7635   9.7798   9.8047   9.8208   9.8267
     9.8636   9.8702   9.9284   9.9355   9.9908  10.0268  10.0346  10.0473
    10.0714  10.1276  10.1874  10.2023  10.2029  10.2068  10.2209  10.2577
    10.2787  10.2790  10.3077  10.3192  10.3627  10.3635  10.3854  10.4031
    10.4529  10.4533  10.4562  10.4652  10.4854  10.5113  10.5173  10.5801
    10.5878  10.6107  10.6335  10.6790  10.6916  10.7103  10.7548  10.7635
    10.7739  10.7791  10.8004  10.8046  10.8486  10.8724  10.9050  10.9396
    10.9423  10.9569  10.9655  10.9762

          k = 0.0000 0.0000 0.0203 (110491 PWs)   bands (ev):

   -21.1115 -21.0219 -20.6876 -20.6416 -20.4219 -20.1200 -20.0298 -19.9011
   -19.5946 -19.4601 -19.1349 -18.9535 -18.9189 -18.5230 -18.4922 -18.2890
   -18.2350 -18.1077 -17.7956 -17.6023 -17.5672 -17.3497 -17.2626 -16.9364
   -16.9016 -16.6608 -16.4214 -16.3548 -16.2959 -16.1634 -16.1373 -15.9676
   -15.9594 -14.7032 -14.6425 -14.4288 -14.4058 -14.3508 -14.3050 -14.2503
   -14.0482 -14.0312 -13.7250 -13.6810 -13.6021 -13.4744 -13.1859 -12.7880
   -12.6335 -12.4952 -12.3044 -12.2499 -12.1288 -11.9583 -11.7381 -11.6524
   -11.4507 -11.4401 -11.2791 -11.2439 -11.0277 -10.9561 -10.5682 -10.5165
   -10.3855 -10.3678 -10.2571 -10.1804 -10.0034  -9.9898  -9.7540  -9.6961
    -9.5811  -9.4197  -9.4191  -9.2247  -9.2240  -9.1803  -9.1650  -9.0480
    -8.8774  -8.8215  -8.7919  -8.7437  -8.6681  -8.6049  -8.6037  -8.5968
    -8.5410  -8.5122  -8.3806  -8.3654  -8.3168  -8.1004  -8.0830  -7.9866
    -7.9618  -7.9308  -7.8740  -7.8284  -7.7731  -7.7209  -7.7139  -7.4640
    -7.3710  -7.3696  -7.3571  -7.1909  -6.9735  -6.9280  -6.8913  -6.7820
    -6.7819  -6.6438  -6.6331  -6.5929  -6.5911  -6.2874  -6.2646  -6.1927
    -6.0665  -5.9270  -5.9114  -5.7682  -5.6733  -5.6283  -5.5807  -5.5333
    -5.3156  -5.2736  -5.2440  -5.1192  -5.0253  -4.9871  -4.7493  -4.6473
    -4.3267  -4.1913  -4.0199  -3.9538  -3.6214  -3.5747  -3.3920  -3.3677
    -1.1328  -1.1136  -0.8553  -0.6832  -0.5271  -0.3605  -0.0986  -0.0084
     0.0224   0.0832   0.5048   0.6249   0.6582   0.8186   0.9711   1.0043
     1.0365   1.2469   1.3440   1.4021   1.4571   1.4931   1.6208   1.7029
     1.7370   1.8899   1.9709   1.9762   2.0948   2.1379   2.1930   2.2157
     2.3017   2.3264   2.3528   2.3624   2.4392   2.5202   2.5382   2.5582
     2.5665   2.7745   2.8148   2.8371   2.8468   2.8778   2.9153   2.9794
     3.0054   3.0489   3.0995   3.2189   3.2463   3.2901   3.3117   3.3119
     3.3202   3.3920   3.4634   3.4763   3.5483   3.5816   3.6345   3.6831
     3.7095   3.7116   3.8373   3.8442   3.8735   3.9304   3.9391   4.0013
     4.0064   4.1077   4.1147   4.1246   4.1248   4.1601   4.1728   4.1845
     4.2673   4.2773   4.3175   4.3811   4.3970   4.4496   4.4751   4.4961
     4.5358   4.5383   4.5915   4.6231   4.6344   4.6769   4.6843   4.6912
     4.7910   4.8311   4.8746   4.9232   4.9950   5.0570   5.0856   5.0911
     5.0994   5.1018   5.1238   5.1675   5.1984   5.2673   5.2691   5.2830
     5.3379   5.3527   5.4206   5.4230   5.4265   5.4837   5.4839   5.5089
     5.5413   5.5636   5.5679   5.6205   5.6304   5.6483   5.6923   5.7306
     5.7342   5.7978   5.8270   5.8494   5.8607   5.8738   5.9386   5.9652
     5.9678   6.0169   6.0341   6.0845   6.1412   6.1571   6.1690   6.1705
     6.2052   6.3165   6.3214   6.3384   6.3396   6.3715   6.3733   6.4338
     6.4472   6.4830   6.4969   6.4995   6.5035   6.5403   6.5867   6.5884
     6.5996   6.6335   6.6707   6.6731   6.7349   6.7561   6.7727   6.7919
     6.8143   6.8380   6.8739   6.9072   6.9207   6.9705   7.0069   7.0123
     7.0300   7.0306   7.0391   7.0854   7.1079   7.1372   7.1556   7.1964
     7.2008   7.2616   7.3034   7.3270   7.3380   7.3569   7.4013   7.4121
     7.4382   7.4551   7.4758   7.4884   7.5965   7.5982   7.6013   7.6099
     7.6467   7.6547   7.6572   7.6842   7.6928   7.7557   7.7580   7.7623
     7.7750   7.7795   7.7894   7.8024   7.8504   7.8760   7.9140   7.9362
     7.9566   8.0015   8.0188   8.0326   8.0747   8.0898   8.0925   8.1441
     8.1478   8.1686   8.1830   8.2280   8.2393   8.2401   8.2888   8.3357
     8.3422   8.3616   8.3900   8.3913   8.4162   8.4210   8.4431   8.4679
     8.4697   8.4754   8.4887   8.5489   8.5790   8.6213   8.6539   8.6723
     8.6830   8.6933   8.7127   8.7163   8.7478   8.7492   8.7783   8.7899
     8.8605   8.8865   8.8908   8.9099   8.9658   9.0049   9.0192   9.0198
     9.0452   9.0555   9.0836   9.1399   9.1536   9.1797   9.2186   9.2256
     9.2353   9.2607   9.2719   9.2765   9.3402   9.3605   9.3735   9.3831
     9.3954   9.4220   9.4354   9.4568   9.4648   9.4690   9.4846   9.5328
     9.5401   9.5852   9.5882   9.6098   9.6282   9.6417   9.6631   9.6877
     9.7111   9.7320   9.7408   9.7590   9.7664   9.7935   9.8011   9.8041
     9.8337   9.8632   9.9072   9.9392   9.9565   9.9866  10.0084  10.0453
[...]
    -1.0943  -1.0894  -0.6934  -0.5129  -0.4835  -0.3855  -0.0994   0.0210
     0.1814   0.3084   0.4076   0.4579   0.6299   0.6588   0.7207   1.0801
     1.0803   1.1457   1.1880   1.2542   1.3651   1.5991   1.6349   1.6857
     1.6866   1.7031   1.9804   2.0550   2.1530   2.2196   2.2305   2.2417
     2.2917   2.3091   2.3102   2.3954   2.5825   2.6266   2.6744   2.6997
     2.7306   2.7427   2.7698   2.7780   2.9718   2.9729   2.9742   2.9962
     3.0418   3.0885   3.0932   3.1291   3.1294   3.1397   3.2196   3.2420
     3.3471   3.3905   3.4169   3.4874   3.5061   3.5357   3.6397   3.6694
     3.6774   3.7359   3.7554   3.7968   3.8618   3.9276   3.9450   4.0197
     4.0527   4.0755   4.1143   4.1747   4.1807   4.2149   4.2179   4.2558
     4.3198   4.3495   4.3519   4.3812   4.3863   4.4219   4.4384   4.4619
     4.5189   4.5702   4.6131   4.6244   4.6728   4.6795   4.6856   4.7423
     4.7556   4.7797   4.8410   4.8705   4.9391   4.9904   5.0028   5.0159
     5.0302   5.0898   5.1252   5.1649   5.1799   5.1969   5.2281   5.2444
     5.2737   5.3270   5.3348   5.3904   5.4268   5.4484   5.4543   5.4676
     5.5070   5.5445   5.5522   5.6293   5.6567   5.6635   5.7249   5.7680
     5.7910   5.7997   5.8211   5.8365   5.8790   5.8889   5.8974   5.9992
     6.0297   6.0531   6.0590   6.0688   6.1144   6.1385   6.1938   6.2309
     6.2397   6.2831   6.3008   6.3507   6.3570   6.4018   6.4069   6.4091
     6.4541   6.4755   6.4782   6.4861   6.5175   6.5607   6.5666   6.5979
     6.6444   6.6472   6.6561   6.7252   6.7483   6.8108   6.8652   6.8893
     6.9007   6.9185   6.9563   6.9616   7.0167   7.0185   7.0548   7.0600
     7.0700   7.0968   7.1072   7.1834   7.1886   7.1905   7.1921   7.2127
     7.2617   7.2632   7.2698   7.2792   7.3068   7.3307   7.3747   7.3803
     7.3910   7.4586   7.4626   7.4863   7.4976   7.5255   7.5352   7.5594
     7.5625   7.6090   7.6422   7.6743   7.7327   7.7405   7.8042   7.8069
     7.8107   7.8204   7.8391   7.8435   7.8816   7.9105   7.9470   7.9491
     7.9605   7.9893   8.0417   8.0527   8.0649   8.0667   8.1221   8.1313
     8.1445   8.1614   8.2255   8.2372   8.2409   8.2425   8.3046   8.3271
     8.3531   8.3535   8.3585   8.3956   8.4182   8.4267   8.4638   8.4691
     8.4846   8.4870   8.5055   8.5283   8.5842   8.5996   8.6000   8.6130
     8.6428   8.6516   8.6863   8.7110   8.7532   8.7606   8.7772   8.8094
     8.8568   8.8753   8.8754   8.9270   8.9508   8.9854   9.0088   9.0284
     9.0698   9.0889   9.1171   9.1353   9.1540   9.1584   9.2076   9.2211
     9.2330   9.2462   9.2502   9.2719   9.2943   9.3356   9.3408   9.3920
     9.4068   9.4155   9.4403   9.4583   9.4660   9.4849   9.5029   9.5214
     9.5352   9.5456   9.5867   9.5884   9.6147   9.6174   9.6530   9.6577
     9.6778   9.6919   9.7059   9.7446   9.7447   9.7523   9.7723   9.7725
     9.8225   9.8350   9.8794   9.9016   9.9218   9.9531   9.9592   9.9896
    10.0011  10.0145  10.0273  10.0352  10.0460  10.0949  10.1203  10.1488
    10.1775  10.1911  10.1959  10.2437  10.2679  10.2868  10.2938  10.3575
    10.3706  10.3880  10.4280  10.4614  10.4928  10.5020  10.5213  10.5286
    10.5575  10.5969  10.6135  10.6247  10.6384  10.6761  10.7071  10.7312
    10.7362  10.7943  10.8129  10.8149  10.8324  10.8382  10.8538  10.8585
    10.8835  10.8853  10.9013  10.9069

          k = 0.0000 0.0000 0.0360 (110524 PWs)   bands (ev):

   -21.0915 -20.9852 -20.7485 -20.7422 -20.4314 -20.0335 -19.9070 -19.7949
   -19.5345 -19.5128 -19.2133 -19.1292 -19.1169 -18.5065 -18.3710 -18.3067
   -18.2965 -18.1836 -17.6030 -17.5187 -17.2252 -17.1201 -17.1021 -17.0227
   -16.9685 -16.8388 -16.8361 -16.5473 -16.2791 -16.1862 -16.0939 -16.0358
   -15.9825 -14.7804 -14.6223 -14.5718 -14.3238 -14.1905 -14.1250 -14.0962
   -13.8977 -13.7831 -13.6529 -13.5879 -13.5577 -13.4727 -13.4249 -13.2172
   -12.6657 -12.6413 -12.4070 -12.3898 -12.1501 -12.0066 -11.7101 -11.4954
   -11.3498 -11.2696 -11.1904 -11.1764 -11.0244 -10.8408 -10.8337 -10.7000
   -10.5836 -10.4523 -10.3101 -10.2568  -9.9432  -9.8524  -9.6056  -9.5837
    -9.5058  -9.2845  -9.2111  -9.1422  -9.1321  -9.1015  -9.0142  -9.0022
    -8.9378  -8.9105  -8.7979  -8.7331  -8.7259  -8.6953  -8.6801  -8.6208
    -8.5666  -8.5222  -8.4868  -8.3990  -8.3100  -8.1703  -8.1575  -8.1365
    -8.0704  -7.9569  -7.8750  -7.7878  -7.7265  -7.6919  -7.5977  -7.5959
    -7.2915  -7.2879  -7.2771  -7.2658  -7.1815  -6.9677  -6.9251  -6.9081
    -6.8192  -6.7365  -6.6028  -6.5679  -6.3321  -6.3069  -6.1348  -6.1275
    -6.0306  -5.9422  -5.8955  -5.8375  -5.8256  -5.7873  -5.5673  -5.3834
    -5.3254  -5.2089  -5.1486  -4.9951  -4.8809  -4.8115  -4.7380  -4.6948
    -4.3848  -4.3595  -3.9391  -3.9060  -3.6940  -3.6688  -3.5360  -3.5292
    -1.0922  -1.0898  -0.6932  -0.5039  -0.4646  -0.3932  -0.1002   0.0205
     0.1966   0.3400   0.3972   0.4306   0.5954   0.6588   0.7340   1.0686
     1.0954   1.1607   1.1696   1.2357   1.3656   1.6137   1.6319   1.6844
     1.6855   1.6870   1.9799   2.0628   2.1640   2.2198   2.2199   2.2532
     2.2862   2.2985   2.3178   2.3807   2.5871   2.6374   2.6906   2.7195
     2.7397   2.7583   2.7605   2.7846   2.9768   2.9793   2.9884   3.0016
     3.0147   3.0557   3.0747   3.1050   3.1147   3.1318   3.2533   3.2599
     3.3915   3.4032   3.4192   3.4423   3.4897   3.5522   3.5899   3.6495
     3.6767   3.7539   3.7793   3.8065   3.9025   3.9143   3.9599   3.9791
     4.0525   4.0581   4.0914   4.1568   4.2059   4.2067   4.2363   4.2770
     4.3322   4.3338   4.3623   4.3972   4.4057   4.4096   4.4525   4.4601
     4.5121   4.5597   4.5763   4.6084   4.6491   4.6817   4.7260   4.7834
     4.7862   4.7875   4.8473   4.8638   4.9465   4.9593   4.9732   4.9879
     4.9896   5.0898   5.1660   5.1676   5.1778   5.2075   5.2442   5.2666
     5.2673   5.2819   5.3171   5.3802   5.3950   5.4284   5.4631   5.4846
     5.5063   5.5369   5.5649   5.6406   5.6614   5.6933   5.7133   5.7285
     5.8095   5.8269   5.8333   5.8723   5.8871   5.8988   5.9058   6.0105
     6.0126   6.0169   6.0253   6.0637   6.0835   6.1468   6.2052   6.2411
     6.2470   6.2744   6.3190   6.3281   6.3446   6.3897   6.4133   6.4168
     6.4327   6.4519   6.4951   6.5087   6.5231   6.5681   6.5950   6.5962
     6.6280   6.6307   6.6611   6.7265   6.7968   6.8132   6.8793   6.9004
     6.9223   6.9234   6.9765   6.9911   6.9929   7.0149   7.0366   7.0636
     7.0966   7.1004   7.1434   7.1510   7.1793   7.1875   7.1892   7.1918
     7.2373   7.2491   7.2514   7.2707   7.2884   7.3575   7.3664   7.3844
     7.3860   7.4361   7.4592   7.4961   7.5025   7.5232   7.5384   7.5407
     7.5996   7.6230   7.6433   7.6639   7.7057   7.7353   7.7921   7.8203
     7.8228   7.8265   7.8452   7.8649   7.8802   7.9247   7.9308   7.9678
     7.9681   8.0073   8.0302   8.0452   8.0636   8.0823   8.0839   8.1244
     8.1263   8.1769   8.2046   8.2342   8.2655   8.2825   8.2852   8.3222
     8.3410   8.3435   8.3605   8.4076   8.4109   8.4568   8.4594   8.4659
     8.4773   8.4847   8.5260   8.5313   8.5760   8.5877   8.6006   8.6054
     8.6422   8.6668   8.6697   8.6759   8.7544   8.7739   8.7949   8.8158
     8.8366   8.8788   8.9120   8.9308   8.9418   8.9766   9.0046   9.0227
     9.0700   9.1016   9.1200   9.1261   9.1655   9.1667   9.1866   9.1949
     9.2320   9.2519   9.2555   9.2805   9.3335   9.3355   9.3393   9.3746
     9.3841   9.4071   9.4177   9.4456   9.4823   9.5022   9.5063   9.5077
     9.5438   9.5571   9.5850   9.5872   9.6022   9.6366   9.6377   9.6615
     9.6884   9.7006   9.7129   9.7304   9.7458   9.7568   9.7606   9.7674
     9.8244   9.8363   9.8735   9.8834   9.9183   9.9370   9.9656   9.9799
     9.9957  10.0111  10.0399  10.0484  10.0604  10.0812  10.1149  10.1382
    10.1871  10.1934  10.2105  10.2143  10.2274  10.3000  10.3039  10.3510
    10.3530  10.3957  10.4333  10.4403  10.4788  10.5185  10.5271  10.5414
    10.5597  10.5928  10.6013  10.6053  10.6441  10.6749  10.6788  10.7106
    10.7481  10.7939  10.8191  10.8205  10.8229  10.8333  10.8669  10.8740
    10.8797  10.8811  10.8953  10.9000

          k = 0.0000 0.0000 0.0376 (110516 PWs)   bands (ev):

   -21.0909 -20.9840 -20.7501 -20.7448 -20.4315 -20.0321 -19.9040 -19.7902
   -19.5308 -19.5152 -19.2217 -19.1346 -19.1164 -18.5069 -18.3550 -18.3214
   -18.2967 -18.1852 -17.5828 -17.5386 -17.2160 -17.1082 -17.0607 -17.0057
   -16.9902 -16.8769 -16.8522 -16.5532 -16.2787 -16.1875 -16.0817 -16.0455
   -15.9809 -14.7826 -14.6165 -14.5808 -14.3230 -14.1754 -14.1244 -14.1097
   -13.9006 -13.7665 -13.6108 -13.5592 -13.5518 -13.4992 -13.4621 -13.2348
   -12.6658 -12.6466 -12.4122 -12.3915 -12.1479 -12.0071 -11.7112 -11.4961
   -11.3521 -11.2379 -11.1799 -11.1739 -11.0472 -10.8556 -10.8346 -10.6816
   -10.6055 -10.4505 -10.3142 -10.2617  -9.9418  -9.8388  -9.6060  -9.5954
    -9.4968  -9.2724  -9.1992  -9.1415  -9.1230  -9.0926  -9.0006  -8.9852
    -8.9662  -8.9254  -8.8157  -8.7348  -8.7291  -8.6863  -8.6794  -8.6123
    -8.5810  -8.5207  -8.4974  -8.3993  -8.3027  -8.1680  -8.1489  -8.1466
    -8.0789  -7.9610  -7.8731  -7.7889  -7.7228  -7.6802  -7.6098  -7.5923
    -7.2875  -7.2851  -7.2692  -7.2603  -7.1995  -6.9724  -6.9345  -6.9076
    -6.8249  -6.7336  -6.5953  -6.5708  -6.3175  -6.3079  -6.1447  -6.1155
    -6.0422  -5.9160  -5.8948  -5.8633  -5.8265  -5.7891  -5.5660  -5.3778
    -5.3260  -5.2082  -5.1549  -4.9844  -4.8842  -4.8048  -4.7326  -4.6879
    -4.3888  -4.3693  -3.9363  -3.9117  -3.6871  -3.6712  -3.5440  -3.5324
    -1.0910  -1.0901  -0.6933  -0.4980  -0.4499  -0.4008  -0.1007   0.0201
     0.2080   0.3648   0.3901   0.4117   0.5695   0.6588   0.7425   1.0613
     1.1100   1.1530   1.1751   1.2192   1.3658   1.6277   1.6301   1.6696
     1.6831   1.6876   1.9795   2.0680   2.1747   2.2087   2.2202   2.2648
     2.2826   2.2875   2.3265   2.3685   2.5900   2.6459   2.7074   2.7108
     2.7428   2.7546   2.7719   2.8133   2.9664   2.9789   2.9809   3.0068
     3.0305   3.0353   3.0576   3.0812   3.1065   3.1266   3.2604   3.3012
     3.3982   3.4136   3.4208   3.4369   3.4770   3.5414   3.5664   3.6334
     3.6760   3.7528   3.8139   3.8218   3.9048   3.9214   3.9564   3.9753
     4.0320   4.0426   4.0889   4.1364   4.2048   4.2267   4.2485   4.2883
     4.3156   4.3525   4.3735   4.3913   4.3975   4.4397   4.4618   4.4784
     4.5079   4.5267   4.5290   4.6241   4.6277   4.6781   4.7538   4.7994
     4.8234   4.8262   4.8609   4.8653   4.9085   4.9187   4.9342   4.9475
     5.0259   5.0819   5.1642   5.1691   5.2102   5.2307   5.2448   5.2599
     5.2627   5.2967   5.3003   5.3413   5.3638   5.4262   5.4651   5.5007
     5.5073   5.5240   5.5934   5.6487   5.6630   5.6882   5.7072   5.7122
     5.8218   5.8310   5.8734   5.8930   5.9000   5.9074   5.9204   5.9840
     5.9844   5.9873   6.0177   6.0523   6.0761   6.1634   6.2185   6.2465
     6.2494   6.2639   6.3043   6.3348   6.3348   6.3919   6.4149   6.4155
     6.4267   6.4292   6.5008   6.5289   6.5364   6.5728   6.5892   6.6044
     6.6172   6.6218   6.6688   6.7245   6.8138   6.8561   6.8669   6.9248
     6.9308   6.9315   6.9787   6.9789   7.0130   7.0191   7.0201   7.0619
     7.0977   7.1121   7.1280   7.1551   7.1661   7.1688   7.1885   7.1953
     7.2299   7.2366   7.2455   7.2777   7.2799   7.3574   7.3577   7.3870
     7.3931   7.4317   7.4586   7.4931   7.5067   7.5156   7.5211   7.5424
     7.6265   7.6346   7.6483   7.6580   7.6924   7.7237   7.7783   7.8275
     7.8310   7.8410   7.8440   7.8683   7.8996   7.9087   7.9476   7.9815
     7.9848   8.0085   8.0086   8.0476   8.0545   8.0569   8.1055   8.1217
     8.1224   8.1890   8.1898   8.2271   8.2284   8.2958   8.3046   8.3103
     8.3276   8.3503   8.3875   8.4156   8.4235   8.4485   8.4557   8.4616
     8.4753   8.5077   8.5432   8.5553   8.5575   8.5638   8.5816   8.6116
     8.6276   8.6374   8.6564   8.7107   8.7398   8.7789   8.7982   8.8086
     8.8667   8.8821   8.9090   8.9432   8.9472   8.9682   8.9941   9.0408
     9.0677   9.0811   9.0889   9.1449   9.1591   9.1812   9.1915   9.2020
     9.2351   9.2511   9.2589   9.2866   9.3191   9.3243   9.3630   9.3724
     9.3851   9.3895   9.4004   9.4427   9.4801   9.4898   9.4959   9.5081
     9.5621   9.5643   9.5896   9.5901   9.6073   9.6271   9.6580   9.6658
     9.6866   9.7118   9.7197   9.7211   9.7434   9.7537   9.7650   9.7785
     9.8270   9.8304   9.8365   9.8699   9.9169   9.9287   9.9486   9.9710
    10.0096  10.0300  10.0545  10.0558  10.0564  10.0810  10.0945  10.1460
    10.1810  10.1829  10.2037  10.2202  10.2346  10.2980  10.3048  10.3162
    10.3564  10.4139  10.4174  10.4363  10.4692  10.5333  10.5513  10.5593
    10.5673  10.5694  10.5955  10.6014  10.6475  10.6531  10.6734  10.6906
    10.7562  10.7905  10.7972  10.8132  10.8198  10.8282  10.8651  10.8747
    10.8820  10.8986  10.9063  10.9255

          k = 0.0000 0.0000-0.0391 (110500 PWs)   bands (ev):

   -21.0907 -20.9836 -20.7506 -20.7457 -20.4316 -20.0316 -19.9030 -19.7886
   -19.5296 -19.5161 -19.2245 -19.1364 -19.1163 -18.5070 -18.3433 -18.3326
   -18.2968 -18.1857 -17.5682 -17.5533 -17.2128 -17.1053 -17.0294 -17.0148
   -16.9938 -16.8949 -16.8577 -16.5550 -16.2786 -16.1879 -16.0756 -16.0507
   -15.9803 -14.7834 -14.6137 -14.5846 -14.3228 -14.1685 -14.1243 -14.1161
   -13.9015 -13.7611 -13.5928 -13.5404 -13.5392 -13.5227 -13.4837 -13.2407
   -12.6659 -12.6483 -12.4140 -12.3921 -12.1471 -12.0072 -11.7116 -11.4963
   -11.3529 -11.2226 -11.1845 -11.1678 -11.0563 -10.8629 -10.8330 -10.6719
   -10.6162 -10.4499 -10.3155 -10.2633  -9.9414  -9.8338  -9.6061  -9.5996
    -9.4938  -9.2691  -9.1939  -9.1413  -9.1199  -9.0878  -9.0001  -8.9782
    -8.9689  -8.9361  -8.8229  -8.7353  -8.7302  -8.6884  -8.6732  -8.6036
    -8.5926  -8.5201  -8.5009  -8.3994  -8.3002  -8.1658  -8.1514  -8.1453
    -8.0824  -7.9624  -7.8724  -7.7892  -7.7215  -7.6750  -7.6157  -7.5904
    -7.2862  -7.2841  -7.2704  -7.2518  -7.2085  -6.9740  -6.9377  -6.9074
    -6.8268  -6.7326  -6.5922  -6.5723  -6.3122  -6.3082  -6.1485  -6.1105
    -6.0471  -5.8945  -5.8933  -5.8858  -5.8269  -5.7897  -5.5656  -5.3759
    -5.3262  -5.2080  -5.1571  -4.9805  -4.8857  -4.8028  -4.7305  -4.6852
    -4.3902  -4.3728  -3.9354  -3.9137  -3.6845  -3.6720  -3.5469  -3.5335
    -1.0906  -1.0902  -0.6934  -0.4959  -0.4437  -0.4046  -0.1009   0.0199
     0.2124   0.3759   0.3864   0.4048   0.5594   0.6588   0.7455   1.0587
     1.1186   1.1436   1.1835   1.2101   1.3659   1.6295   1.6359   1.6608
     1.6826   1.6878   1.9794   2.0697   2.1807   2.2024   2.2202   2.2759
     2.2766   2.2813   2.3311   2.3628   2.5911   2.6494   2.7072   2.7227
     2.7271   2.7531   2.7854   2.8252   2.9527   2.9796   2.9797   3.0156
     3.0219   3.0483   3.0546   3.0609   3.1037   3.1248   3.2629   3.3309
     3.3676   3.4181   3.4213   3.4704   3.4718   3.5070   3.5729   3.6263
     3.6757   3.7525   3.8168   3.8486   3.9006   3.9012   3.9730   3.9843
     4.0214   4.0240   4.0949   4.1260   4.2047   4.2359   4.2522   4.2916
     4.3077   4.3711   4.3755   4.3838   4.3869   4.4728   4.4769   4.4859
     4.4919   4.5048   4.5064   4.6189   4.6317   4.6749   4.7619   4.8109
     4.8455   4.8625   4.8652   4.8691   4.8841   4.8965   4.9087   4.9253
     5.0527   5.0652   5.1685   5.1696   5.2106   5.2277   5.2604   5.2701
     5.2769   5.2897   5.2957   5.3149   5.3506   5.4257   5.4655   5.5057
     5.5088   5.5182   5.6152   5.6520   5.6630   5.6630   5.7053   5.7185
     5.8285   5.8324   5.8950   5.8967   5.9008   5.9264   5.9293   5.9608
     5.9700   5.9706   6.0185   6.0420   6.0785   6.1734   6.2255   6.2454
     6.2507   6.2580   6.2935   6.3318   6.3420   6.4009   6.4071   6.4141
     6.4162   6.4302   6.5028   6.5316   6.5500   6.5744   6.5859   6.6016
     6.6142   6.6187   6.6688   6.7346   6.8139   6.8402   6.9161   6.9251
     6.9329   6.9478   6.9517   6.9753   6.9992   7.0279   7.0316   7.0608
     7.0959   7.1140   7.1257   7.1363   7.1581   7.1708   7.1884   7.2081
     7.2240   7.2379   7.2440   7.2774   7.2882   7.3354   7.3542   7.3946
     7.3954   7.4583   7.4592   7.4645   7.4977   7.5204   7.5205   7.5445
     7.6363   7.6385   7.6414   7.6661   7.6878   7.7180   7.7724   7.8333
     7.8367   7.8426   7.8523   7.8587   7.8953   7.9136   7.9598   7.9862
     7.9942   7.9984   8.0075   8.0435   8.0485   8.0526   8.0972   8.1180
     8.1535   8.1855   8.1950   8.1958   8.2248   8.2859   8.3092   8.3196
     8.3227   8.3631   8.3878   8.4242   8.4310   8.4375   8.4434   8.4755
     8.5024   8.5036   8.5321   8.5573   8.5602   8.5622   8.5733   8.6021
     8.6136   8.6362   8.6551   8.7314   8.7348   8.7791   8.7815   8.8100
     8.8834   8.8978   8.9009   8.9376   8.9556   8.9560   9.0087   9.0359
     9.0669   9.0718   9.0817   9.1322   9.1730   9.1760   9.1971   9.2337
     9.2343   9.2360   9.2599   9.2889   9.3098   9.3184   9.3541   9.3732
     9.3799   9.3977   9.4189   9.4452   9.4456   9.4912   9.4933   9.5074
     9.5686   9.5765   9.5873   9.5881   9.6133   9.6242   9.6661   9.6707
     9.6886   9.7015   9.7048   9.7506   9.7533   9.7579   9.7664   9.7724
     9.8089   9.8261   9.8280   9.8696   9.9065   9.9297   9.9434   9.9670
    10.0246  10.0455  10.0491  10.0570  10.0571  10.0621  10.1112  10.1468
    10.1579  10.1788  10.2033  10.2360  10.2527  10.2834  10.2934  10.3067
    10.3697  10.4014  10.4207  10.4373  10.4658  10.5402  10.5592  10.5593
    10.5781  10.5806  10.5887  10.5928  10.6408  10.6486  10.6727  10.6791
    10.7591  10.7785  10.8032  10.8050  10.8210  10.8245  10.8606  10.8735
    10.8871  10.9051  10.9131  10.9305

     the Fermi energy is    -3.1063 ev

     Writing output data file ANTI13-6-12.save/

     init_run     :     15.74s CPU     16.35s WALL (       1 calls)
     electrons    :   9378.72s CPU   9482.70s WALL (       1 calls)

     Called by init_run:
     wfcinit      :      0.00s CPU      0.01s WALL (       1 calls)
     potinit      :      1.08s CPU      1.20s WALL (       1 calls)
     hinit0       :     11.66s CPU     11.82s WALL (       1 calls)

     Called by electrons:
     c_bands      :   9378.70s CPU   9482.46s WALL (       1 calls)
     v_of_rho     :      0.84s CPU      0.90s WALL (       1 calls)
     newd         :      0.74s CPU      0.97s WALL (       1 calls)

     Called by c_bands:
     init_us_2    :      0.90s CPU      0.97s WALL (      26 calls)
     cegterg      :   9188.24s CPU   9281.41s WALL (     102 calls)

     Called by sum_band:

     Called by *egterg:
     h_psi        :   2776.56s CPU   2816.72s WALL (    1921 calls)
     s_psi        :    331.81s CPU    333.60s WALL (    1921 calls)
     g_psi        :     13.25s CPU     13.36s WALL (    1793 calls)
     cdiaghg      :   3403.88s CPU   3418.41s WALL (    1819 calls)

     Called by h_psi:
     h_psi:pot    :   2759.40s CPU   2793.46s WALL (    1921 calls)
     h_psi:calbec :    306.26s CPU    310.79s WALL (    1921 calls)
     vloc_psi     :   2121.06s CPU   2148.50s WALL (    1921 calls)
     add_vuspsi   :    332.05s CPU    334.14s WALL (    1921 calls)

     General routines
     calbec       :    306.25s CPU    310.78s WALL (    1921 calls)
     fft          :      0.87s CPU      0.95s WALL (      14 calls)
     ffts         :      0.01s CPU      0.01s WALL (       1 calls)
     fftw         :   1691.07s CPU   1713.00s WALL (  589042 calls)
     interpolate  :      0.05s CPU      0.06s WALL (       1 calls)
     davcio       :      0.00s CPU      7.25s WALL (      52 calls)

     Parallel routines
     fft_scatt_xy :    296.34s CPU    299.68s WALL (  589057 calls)
     fft_scatt_yz :    263.57s CPU    268.37s WALL (  589057 calls)

     PWSCF        :     2h36m CPU       36h 2m WALL

      42h

   This run was terminated on:   1:12:15  16Apr2021            

=------------------------------------------------------------------------------=
   JOB DONE.
=------------------------------------------------------------------------------=
