
     Program PWSCF v.6.3 starts on  3Jan2022 at 14:25:48 

     This program is part of the open-source Quantum ESPRESSO suite
     for quantum simulation of materials; please cite
         "P. Giannozzi et al., J. Phys.:Condens. Matter 21 395502 (2009);
         "P. Giannozzi et al., J. Phys.:Condens. Matter 29 465901 (2017);
          URL http://www.quantum-espresso.org", 
     in publications or presentations arising from this work. More details at
     http://www.quantum-espresso.org/quote

     Parallel version (MPI), running on    32 processors
     R & G space division:  proc/nbgrp/npool/nimage =      32
     Waiting for input...
     Reading input from standard input
     Message from routine read_cards :
     DEPRECATED: no units specified in CELL_PARAMETERS card

     Current dimensions of program PWSCF are:
     Max number of different atomic species (ntypx) = 10
     Max number of k-points (npk) =  40000
     Max angular momentum in pseudopotentials (lmaxx) =  3

     Atomic positions and unit cell read from directory:
     /home/zfwang/scratch/GNRDATASET/AGNR/ANTI13-8-6/ANTI13-8-6.save/


     Subspace diagonalization in iterative solution of the eigenvalue problem:
     a serial algorithm will be used


     Parallelization info
     --------------------
     sticks:   dense  smooth     PW     G-vecs:    dense   smooth      PW
     Min        1278     426    109               191438    36832    4821
     Max        1279     427    111               191443    36837    4826
     Sum       40909   13645   3521              6126037  1178677  154333



     bravais-lattice index     =            0
     lattice parameter (alat)  =       1.8897  a.u.
     unit-cell volume          =   34497.4860 (a.u.)^3
     number of atoms/cell      =          120
     number of atomic types    =            2
     number of electrons       =       414.00
     number of Kohn-Sham states=          500
     kinetic-energy cutoff     =      40.0000  Ry
     charge density cutoff     =     480.0000  Ry
     Exchange-correlation      = PBE ( 1  4  3  4 0 0)

     celldm(1)=  18.897261  celldm(2)=   3.000000  celldm(3)=   1.704000
     celldm(4)=   0.000000  celldm(5)=   0.000000  celldm(6)=   0.000000

     crystal axes: (cart. coord. in units of alat)
               a(1) = (  10.000000   0.000000   0.000000 )  
               a(2) = (   0.000000  30.000000   0.000000 )  
               a(3) = (   0.000000   0.000000  17.040000 )  

     reciprocal axes: (cart. coord. in units 2 pi/alat)
               b(1) = (  0.100000  0.000000  0.000000 )  
               b(2) = (  0.000000  0.033333  0.000000 )  
               b(3) = (  0.000000  0.000000  0.058685 )  


     PseudoPot. # 1 for C  read from file:
     /home/zfwang/hp_home/MySoftware/qe-6.3/pseudo/C.pbe-n-rrkjus_psl.0.1.UPF
     MD5 check sum: fff530ed632a789b3b184014e67dd7f1
     Pseudo is Ultrasoft + core correction, Zval =  4.0
     Generated using "atomic" code by A. Dal Corso v.5.0.2 svn rev. 9415
     Using radial grid of 1073 points,  4 beta functions with: 
                l(1) =   0
                l(2) =   0
                l(3) =   1
                l(4) =   1
     Q(r) pseudized with 0 coefficients 


     PseudoPot. # 2 for H  read from file:
     /home/zfwang/hp_home/MySoftware/qe-6.3/pseudo/H.pbe-rrkjus_psl.0.1.UPF
     MD5 check sum: e164a6907b691c6980f16942be34de84
     Pseudo is Ultrasoft, Zval =  1.0
     Generated using "atomic" code by A. Dal Corso v.5.0.2 svn rev. 9415
     Using radial grid of  929 points,  2 beta functions with: 
                l(1) =   0
                l(2) =   0
     Q(r) pseudized with 0 coefficients 


     atomic species   valence    mass     pseudopotential
        C              4.00    12.01070     C ( 1.00)
        H              1.00     1.00794     H ( 1.00)

     No symmetry found



   Cartesian axes

     site n.     atom                  positions (alat units)
         1           C   tau(   1) = (   4.9999921   7.6215939  15.6006016  )
         2           C   tau(   2) = (   4.9999922   8.8317549  16.3268779  )
         3           C   tau(   3) = (   4.9999954   7.6215920   1.4393862  )
         4           C   tau(   4) = (   4.9999890  10.0615982  15.6236309  )
         5           C   tau(   5) = (   4.9999911  11.2999856  16.3323889  )
         6           C   tau(   6) = (   4.9999949   8.8317548   0.7131169  )
         7           C   tau(   7) = (   4.9999951  10.0615938   1.4163655  )
         8           C   tau(   8) = (   4.9999896  12.5325995  15.6212828  )
         9           C   tau(   9) = (   4.9999920  13.7669677  16.3293107  )
        10           C   tau(  10) = (   4.9999937  11.2999840   0.7076101  )
        11           C   tau(  11) = (   4.9999918  12.5325972   1.4187167  )
        12           C   tau(  12) = (   4.9999907  15.0000409  15.6233844  )
        13           C   tau(  13) = (   4.9999917  16.2331181  16.3293135  )
        14           C   tau(  14) = (   4.9999914  13.7669675   0.7106906  )
        15           C   tau(  15) = (   4.9999871  15.0000400   1.4166161  )
        16           C   tau(  16) = (   4.9999920  17.4674858  15.6212870  )
        17           C   tau(  17) = (   4.9999931  18.7001042  16.3323935  )
        18           C   tau(  18) = (   4.9999894  16.2331177   0.7106901  )
        19           C   tau(  19) = (   4.9999887  17.4674882   1.4187156  )
        20           C   tau(  20) = (   4.9999934  19.9384921  15.6236343  )
        21           C   tau(  21) = (   4.9999939  21.1683368  16.3268816  )
        22           C   tau(  22) = (   4.9999928  18.7001034   0.7076117  )
        23           C   tau(  23) = (   4.9999972  19.9384971   1.4163666  )
        24           C   tau(  24) = (   4.9999946  22.3784915  15.6006022  )
        25           C   tau(  25) = (   4.9999969  21.1683339   0.7131216  )
        26           C   tau(  26) = (   5.0000014  22.3784941   1.4393872  )
        27           H   tau(  27) = (   4.9999955   6.6673314  16.1194674  )
        28           H   tau(  28) = (   4.9999940   6.6673322   0.9205185  )
        29           H   tau(  29) = (   4.9999971  23.3327616  16.1194611  )
        30           H   tau(  30) = (   4.9999951  23.3327591   0.9205332  )
        31           C   tau(  31) = (   4.9999976   7.6164134   2.8033895  )
        32           C   tau(  32) = (   5.0000001   8.8205146   3.5388369  )
        33           C   tau(  33) = (   4.9999969  10.0564321   2.8383995  )
        34           C   tau(  34) = (   4.9999946  11.2916365   3.5467133  )
        35           C   tau(  35) = (   4.9999895  12.5288475   2.8377707  )
        36           C   tau(  36) = (   4.9999821  13.7637597   3.5439722  )
        37           C   tau(  37) = (   4.9999801  15.0000376   2.8395822  )
        38           C   tau(  38) = (   4.9999769  16.2363143   3.5439722  )
        39           C   tau(  39) = (   4.9999846  17.4712330   2.8377740  )
        40           C   tau(  40) = (   4.9999940  18.7084399   3.5467157  )
        41           C   tau(  41) = (   5.0000023  19.9436517   2.8384034  )
        42           C   tau(  42) = (   5.0000149  21.1795643   3.5388381  )
        43           C   tau(  43) = (   5.0000140  22.3836677   2.8034014  )
        44           C   tau(  44) = (   5.0000092   7.6007313   7.0671041  )
        45           C   tau(  45) = (   5.0000059   8.8015988   7.8021017  )
        46           C   tau(  46) = (   5.0000099   7.6051153   5.6973194  )
        47           C   tau(  47) = (   5.0000072  10.0323897   7.0960531  )
        48           C   tau(  48) = (   5.0000059  11.2741820   7.7981081  )
        49           C   tau(  49) = (   5.0000057   8.8108320   4.9669871  )
        50           C   tau(  50) = (   5.0000052  10.0436985   5.6737797  )
        51           C   tau(  51) = (   5.0000023  12.4593504   7.0726139  )
        52           C   tau(  52) = (   4.9999983  11.2824050   4.9626407  )
        53           C   tau(  53) = (   4.9999946  12.5101926   5.6824725  )
        54           C   tau(  54) = (   4.9999823  13.7715709   4.9669558  )
        55           C   tau(  55) = (   4.9999760  15.0000340   5.6271732  )
        56           C   tau(  56) = (   4.9999815  17.5407150   7.0726129  )
        57           C   tau(  57) = (   5.0000002  18.7258780   7.7981147  )
        58           C   tau(  58) = (   4.9999742  16.2285015   4.9669545  )
        59           C   tau(  59) = (   4.9999824  17.4898775   5.6824683  )
        60           C   tau(  60) = (   5.0000145  19.9676708   7.0960535  )
        61           C   tau(  61) = (   5.0000193  21.1984553   7.8021085  )
        62           C   tau(  62) = (   4.9999972  18.7176682   4.9626379  )
        63           C   tau(  63) = (   5.0000132  19.9563705   5.6737819  )
        64           C   tau(  64) = (   5.0000262  22.3993204   7.0671100  )
        65           C   tau(  65) = (   5.0000222  21.1892419   4.9669909  )
        66           C   tau(  66) = (   5.0000296  22.3949493   5.6973348  )
        67           C   tau(  67) = (   4.9999849   7.6051223  11.3426851  )
        68           C   tau(  68) = (   4.9999829   8.8108415  12.0730090  )
        69           C   tau(  69) = (   4.9999907   7.6007329   9.9728993  )
        70           C   tau(  70) = (   4.9999844  10.0437033  11.3662144  )
        71           C   tau(  71) = (   4.9999814  11.2824098  12.0773545  )
        72           C   tau(  72) = (   4.9999972   8.8015994   9.2378979  )
        73           C   tau(  73) = (   4.9999932  10.0323933   9.9439412  )
        74           C   tau(  74) = (   4.9999857  12.5101956  11.3575200  )
        75           C   tau(  75) = (   4.9999829  13.7715733  12.0730382  )
        76           C   tau(  76) = (   5.0000003  11.2741851   9.2418823  )
        77           C   tau(  77) = (   4.9999971  12.4593543   9.9673756  )
        78           C   tau(  78) = (   4.9999844  15.0000361  11.4128191  )
        79           C   tau(  79) = (   4.9999857  16.2285008  12.0730414  )
        80           C   tau(  80) = (   4.9999901  17.4898785  11.3575282  )
        81           C   tau(  81) = (   4.9999932  18.7176648  12.0773621  )
        82           C   tau(  82) = (   4.9999923  17.5407122   9.9673829  )
        83           C   tau(  83) = (   4.9999974  19.9563667  11.3662173  )
        84           C   tau(  84) = (   4.9999921  21.1892336  12.0730128  )
        85           C   tau(  85) = (   5.0000004  18.7258777   9.2418806  )
        86           C   tau(  86) = (   5.0000040  19.9676672   9.9439469  )
        87           C   tau(  87) = (   4.9999859  22.3949434  11.3426751  )
        88           C   tau(  88) = (   5.0000089  21.1984569   9.2378977  )
        89           C   tau(  89) = (   4.9999961  22.3993204   9.9729007  )
        90           C   tau(  90) = (   4.9999882   7.6164201  14.2366055  )
        91           C   tau(  91) = (   4.9999835   8.8205230  13.5011585  )
        92           C   tau(  92) = (   4.9999839  10.0564384  14.2015995  )
        93           C   tau(  93) = (   4.9999813  11.2916422  13.4932820  )
        94           C   tau(  94) = (   4.9999843  12.5288505  14.2022271  )
        95           C   tau(  95) = (   4.9999833  13.7637624  13.4960234  )
        96           C   tau(  96) = (   4.9999868  15.0000392  14.2004166  )
        97           C   tau(  97) = (   4.9999867  16.2363129  13.4960269  )
        98           C   tau(  98) = (   4.9999901  17.4712312  14.2022284  )
        99           C   tau(  99) = (   4.9999915  18.7084373  13.4932846  )
       100           C   tau( 100) = (   4.9999926  19.9436470  14.2016036  )
       101           C   tau( 101) = (   4.9999922  21.1795581  13.5011613  )
       102           C   tau( 102) = (   4.9999943  22.3836599  14.2366063  )
       103           H   tau( 103) = (   4.9999897   6.6579346  13.7249371  )
       104           H   tau( 104) = (   4.9999980  23.3421453  13.7249343  )
       105           H   tau( 105) = (   5.0000019  13.3959407   7.6178192  )
       106           H   tau( 106) = (   4.9999800  15.0000339   6.7119041  )
       107           H   tau( 107) = (   4.9999641  16.6041208   7.6178153  )
       108           H   tau( 108) = (   5.0000059  13.3959463   9.4221750  )
       109           H   tau( 109) = (   4.9999878  15.0000358  10.3280866  )
       110           H   tau( 110) = (   4.9999879  16.6041177   9.4221833  )
       111           H   tau( 111) = (   4.9999972   6.6579258   3.3150496  )
       112           H   tau( 112) = (   5.0000218  23.3421513   3.3150585  )
       113           H   tau( 113) = (   5.0000091   6.6423848   7.5801902  )
       114           H   tau( 114) = (   5.0000114   6.6491503   5.1801134  )
       115           H   tau( 115) = (   5.0000240  23.3576663   7.5802106  )
       116           H   tau( 116) = (   5.0000327  23.3509259   5.1801387  )
       117           H   tau( 117) = (   4.9999828   6.6491617  11.8598991  )
       118           H   tau( 118) = (   4.9999907   6.6423829   9.4598214  )
       119           H   tau( 119) = (   4.9999708  23.3509152  11.8598808  )
       120           H   tau( 120) = (   4.9999914  23.3576708   9.4598093  )

     number of k points=    26  Marzari-Vanderbilt smearing, width (Ry)=  0.0100
                       cart. coord. in units 2pi/alat
        k(    1) = (   0.0000000   0.0000000   0.0000000), wk =   0.0400000
        k(    2) = (   0.0000000   0.0000000   0.0011737), wk =   0.0800000
        k(    3) = (   0.0000000   0.0000000   0.0023474), wk =   0.0800000
        k(    4) = (   0.0000000   0.0000000   0.0035211), wk =   0.0800000
        k(    5) = (   0.0000000   0.0000000   0.0046948), wk =   0.0800000
        k(    6) = (   0.0000000   0.0000000   0.0058685), wk =   0.0800000
        k(    7) = (   0.0000000   0.0000000   0.0070423), wk =   0.0800000
        k(    8) = (   0.0000000   0.0000000   0.0082160), wk =   0.0800000
        k(    9) = (   0.0000000   0.0000000   0.0093897), wk =   0.0800000
        k(   10) = (   0.0000000   0.0000000   0.0105634), wk =   0.0800000
        k(   11) = (   0.0000000   0.0000000   0.0117371), wk =   0.0800000
        k(   12) = (   0.0000000   0.0000000   0.0129108), wk =   0.0800000
        k(   13) = (   0.0000000   0.0000000   0.0140845), wk =   0.0800000
        k(   14) = (   0.0000000   0.0000000   0.0152582), wk =   0.0800000
        k(   15) = (   0.0000000   0.0000000   0.0164319), wk =   0.0800000
        k(   16) = (   0.0000000   0.0000000   0.0176056), wk =   0.0800000
        k(   17) = (   0.0000000   0.0000000   0.0187793), wk =   0.0800000
        k(   18) = (   0.0000000   0.0000000   0.0199531), wk =   0.0800000
        k(   19) = (   0.0000000   0.0000000   0.0211268), wk =   0.0800000
        k(   20) = (   0.0000000   0.0000000   0.0223005), wk =   0.0800000
        k(   21) = (   0.0000000   0.0000000   0.0234742), wk =   0.0800000
        k(   22) = (   0.0000000   0.0000000   0.0246479), wk =   0.0800000
        k(   23) = (   0.0000000   0.0000000   0.0258216), wk =   0.0800000
        k(   24) = (   0.0000000   0.0000000   0.0269953), wk =   0.0800000
        k(   25) = (   0.0000000   0.0000000   0.0281690), wk =   0.0800000
        k(   26) = (   0.0000000   0.0000000  -0.0293427), wk =   0.0400000

     Dense  grid:  6126037 G-vectors     FFT dimensions: ( 135, 400, 225)

     Smooth grid:  1178677 G-vectors     FFT dimensions: (  80, 240, 135)

     Estimated max dynamical RAM per process >     765.61 MB

     Estimated total dynamical RAM >      23.93 GB

     The potential is recalculated from file :
     /home/zfwang/scratch/GNRDATASET/AGNR/ANTI13-8-6/ANTI13-8-6.save/charge-density.dat


     negative rho (up, down):  3.247E-04 0.000E+00
     Starting wfcs are  414 randomized atomic wfcs +   86 random wfcs

     Band Structure Calculation
     Davidson diagonalization with overlap
     c_bands:  1 eigenvalues not converged
     c_bands:  1 eigenvalues not converged

     ethr =  2.42E-09,  avg # of iterations = 77.6

     total cpu time spent up to now is     8584.4 secs

     End of band structure calculation

          k = 0.0000 0.0000 0.0000 (147325 PWs)   bands (ev):

   -21.2912 -21.0641 -20.9270 -20.7847 -20.7150 -20.6551 -20.5027 -20.2451
   -20.0156 -19.9410 -19.7176 -19.6740 -19.5971 -19.5883 -19.3924 -19.3064
   -19.1754 -19.0580 -18.9209 -18.8042 -18.5955 -18.3635 -18.1595 -18.1187
   -17.9948 -17.8950 -17.8507 -17.8041 -17.7291 -17.7118 -17.4227 -17.3109
   -17.1376 -17.0020 -16.8846 -16.8420 -16.8374 -16.8040 -16.6004 -16.4446
   -16.3066 -16.1189 -16.0810 -16.0141 -16.0008 -15.8022 -15.6206 -15.0542
   -15.0084 -14.8836 -14.8304 -14.8298 -14.6991 -14.5315 -14.4823 -14.4520
   -14.3811 -14.1957 -14.1250 -13.8482 -13.7392 -13.6826 -13.6184 -13.4106
   -13.3212 -13.1956 -13.0544 -12.7525 -12.6585 -12.5864 -12.5043 -12.4814
   -12.4626 -12.4527 -12.2669 -12.2063 -12.2023 -12.0978 -11.7381 -11.5752
   -11.5079 -11.4564 -11.3920 -11.2970 -10.9427 -10.9072 -10.8786 -10.7591
   -10.6509 -10.6445 -10.6332 -10.5571 -10.4425 -10.4095 -10.3960 -10.2568
   -10.1182 -10.0447  -9.9007  -9.8342  -9.7874  -9.6639  -9.5866  -9.5075
    -9.3777  -9.3647  -9.2925  -9.2611  -9.1753  -9.1682  -9.1420  -9.1052
    -9.0251  -8.9413  -8.8929  -8.7819  -8.7393  -8.6880  -8.6434  -8.6283
    -8.6150  -8.5846  -8.5703  -8.5682  -8.5472  -8.4883  -8.4814  -8.4559
    -8.4520  -8.3774  -8.3709  -8.3403  -8.2894  -8.2749  -8.2332  -8.1402
    -8.0151  -8.0104  -7.9090  -7.8933  -7.8225  -7.8189  -7.7565  -7.7544
    -7.6779  -7.5248  -7.5179  -7.5110  -7.4623  -7.4509  -7.4053  -7.3912
    -7.3598  -7.3171  -7.2954  -7.2242  -7.1956  -7.1603  -7.1421  -6.9361
    -6.7845  -6.7525  -6.6948  -6.6691  -6.6040  -6.5200  -6.5005  -6.4234
    -6.3792  -6.3314  -6.2425  -6.2083  -6.1473  -6.0789  -6.0452  -5.9528
    -5.8378  -5.8201  -5.7082  -5.5795  -5.5784  -5.5707  -5.4600  -5.4405
    -5.3785  -5.3148  -5.3070  -5.2921  -5.0997  -5.0197  -4.7602  -4.7167
    -4.6141  -4.5422  -4.4973  -4.4379  -4.2063  -4.1998  -4.1612  -3.8532
    -3.8417  -3.7167  -3.6918  -3.6466  -3.3778  -2.2821  -2.2157  -1.7527
    -1.6940  -0.7810  -0.5344  -0.5242  -0.4089  -0.3654  -0.3384  -0.2321
    -0.0575   0.0948   0.2344   0.2740   0.3467   0.3542   0.4646   0.8250
     1.0053   1.0448   1.1105   1.1573   1.2287   1.2549   1.4059   1.4761
     1.4859   1.4941   1.5462   1.5836   1.5859   1.5951   1.5987   1.6054
     1.6056   1.7939   1.8732   1.9113   2.0131   2.0959   2.1029   2.1121
     2.1811   2.4003   2.4239   2.4425   2.4831   2.5410   2.5650   2.6041
     2.6208   2.6850   2.7023   2.8529   2.9343   2.9525   2.9635   2.9678
     3.0194   3.0620   3.0716   3.0904   3.0997   3.1484   3.1754   3.1832
     3.2568   3.2972   3.3266   3.3417   3.3569   3.3609   3.3653   3.3696
     3.3954   3.4089   3.4534   3.4722   3.5282   3.6113   3.6122   3.7286
     3.7757   3.7917   3.8129   3.8628   3.9150   3.9467   3.9468   3.9730
     3.9751   3.9878   3.9901   4.0045   4.0678   4.1376   4.1466   4.1562
     4.1781   4.2231   4.2327   4.2695   4.3061   4.4159   4.4228   4.4611
     4.4990   4.5011   4.5210   4.5408   4.5410   4.5556   4.5783   4.5801
     4.6421   4.7138   4.7441   4.7560   4.7742   4.7781   4.8006   4.8025
     4.8278   4.8472   4.8571   4.8710   4.8952   4.9166   4.9171   4.9694
     4.9848   4.9984   5.0128   5.0406   5.0442   5.0889   5.1091   5.1536
     5.2371   5.2653   5.2856   5.3244   5.3325   5.3477   5.3635   5.3684
     5.3719   5.3866   5.4092   5.4727   5.4839   5.4851   5.5229   5.5948
     5.6023   5.6161   5.6420   5.6748   5.7017   5.7142   5.7184   5.7344
     5.7511   5.7650   5.7774   5.7872   5.8142   5.8671   5.8682   5.8871
     5.9062   5.9919   5.9963   6.0129   6.0155   6.0187   6.0195   6.0540
     6.0687   6.0806   6.0845   6.1235   6.1559   6.1841   6.1904   6.1962
     6.2208   6.2239   6.2441   6.2441   6.2687   6.2981   6.3011   6.3026
     6.3280   6.3689   6.4025   6.4651   6.4802   6.4903   6.5034   6.5264
     6.5318   6.5319   6.5530   6.5531   6.5918   6.6139   6.6287   6.6350
     6.6536   6.7023   6.7090   6.7183   6.7406   6.7433   6.7470   6.7566
     6.8079   6.8220   6.8290   6.8679   6.8680   6.8937   6.9331   6.9533
     6.9546   6.9886   7.0093   7.0312   7.0325   7.0407   7.0614   7.1199
     7.1263   7.1508   7.1588   7.1805   7.1831   7.1941   7.2131   7.2213
     7.2475   7.2520   7.2540   7.2586   7.2653   7.3110   7.3199   7.3345
     7.3421   7.3545   7.3659   7.3694   7.3833   7.3835   7.4483   7.4669
     7.5164   7.5194   7.5475   7.5487   7.5653   7.5919   7.6010   7.6281
     7.6395   7.6594   7.6666   7.6677   7.6685   7.6765   7.7112   7.7235
     7.7256   7.7302   7.7348   7.7498   7.7584   7.8076   7.8214   7.8457
     7.8478   7.9001   7.9437   7.9532   7.9638   7.9830   7.9881   7.9915
     8.0217   8.0234   8.0462   8.0769

          k = 0.0000 0.0000 0.0012 (147355 PWs)   bands (ev):

   -21.2912 -21.0640 -20.9277 -20.7837 -20.7181 -20.6518 -20.5027 -20.2456
   -20.0154 -19.9409 -19.7182 -19.6815 -19.5930 -19.5856 -19.3910 -19.3051
   -19.1763 -19.0593 -18.9186 -18.8041 -18.5981 -18.3608 -18.1593 -18.1219
   -17.9951 -17.8985 -17.8682 -17.7832 -17.7263 -17.7132 -17.4206 -17.3103
   -17.1378 -17.0051 -16.8874 -16.8487 -16.8271 -16.8041 -16.5995 -16.4421
   -16.3082 -16.1214 -16.0811 -16.0144 -15.9981 -15.8049 -15.6227 -15.0539
   -15.0077 -14.8820 -14.8372 -14.8285 -14.6910 -14.5337 -14.4805 -14.4527
   -14.3798 -14.1962 -14.1235 -13.8487 -13.7510 -13.6705 -13.6180 -13.4110
   -13.3222 -13.1958 -13.0559 -12.7540 -12.6574 -12.5856 -12.5431 -12.5105
   -12.4419 -12.4048 -12.2661 -12.2073 -12.2033 -12.0966 -11.7370 -11.5755
   -11.5069 -11.4553 -11.3944 -11.2963 -10.9517 -10.8987 -10.8887 -10.7490
   -10.6539 -10.6427 -10.6376 -10.5552 -10.4492 -10.4072 -10.3863 -10.2577
   -10.1195 -10.0462  -9.9019  -9.8362  -9.7858  -9.6616  -9.5877  -9.5036
    -9.3814  -9.3647  -9.2913  -9.2604  -9.1940  -9.1516  -9.1417  -9.1050
    -9.0249  -8.9423  -8.8902  -8.7806  -8.7456  -8.6924  -8.6482  -8.6236
    -8.6150  -8.5816  -8.5796  -8.5660  -8.5382  -8.5027  -8.4834  -8.4519
    -8.4426  -8.3773  -8.3678  -8.3399  -8.2889  -8.2743  -8.2293  -8.1409
    -8.0143  -8.0095  -7.9104  -7.8930  -7.8262  -7.8188  -7.7613  -7.7503
    -7.6750  -7.5233  -7.5191  -7.5102  -7.4709  -7.4528  -7.4110  -7.3783
    -7.3639  -7.3142  -7.2938  -7.2221  -7.1977  -7.1571  -7.1400  -6.9370
    -6.7873  -6.7530  -6.6980  -6.6651  -6.6027  -6.5200  -6.5013  -6.4391
    -6.3641  -6.3313  -6.2474  -6.2147  -6.1391  -6.0739  -6.0506  -5.9476
    -5.8376  -5.8216  -5.7084  -5.5798  -5.5784  -5.5782  -5.4603  -5.4513
    -5.3595  -5.3150  -5.3093  -5.2924  -5.0985  -5.0176  -4.7611  -4.7170
    -4.6149  -4.5424  -4.4953  -4.4400  -4.2110  -4.2066  -4.1472  -3.8536
    -3.8465  -3.7127  -3.6926  -3.6463  -3.3778  -2.2853  -2.2181  -1.7504
    -1.6908  -0.7811  -0.5334  -0.5234  -0.4100  -0.3651  -0.3383  -0.2303
    -0.0597   0.0954   0.2344   0.2713   0.3193   0.3836   0.4671   0.8250
     1.0037   1.0450   1.1107   1.1433   1.2418   1.2550   1.3891   1.4653
     1.4828   1.5099   1.5458   1.5502   1.5860   1.5953   1.6021   1.6254
     1.6316   1.7925   1.8751   1.9133   2.0137   2.0791   2.1097   2.1200
     2.1812   2.3883   2.4191   2.4568   2.4880   2.5412   2.5652   2.6044
     2.6179   2.6851   2.7061   2.8531   2.9269   2.9523   2.9606   2.9625
     3.0156   3.0464   3.0876   3.0987   3.1002   3.1558   3.1576   3.2014
     3.2531   3.2974   3.3073   3.3390   3.3419   3.3665   3.3792   3.3880
     3.3912   3.4192   3.4457   3.4787   3.5317   3.5725   3.6515   3.7289
     3.7681   3.7911   3.8198   3.8590   3.9121   3.9197   3.9650   3.9717
     3.9787   3.9865   3.9886   4.0154   4.0632   4.1335   4.1490   4.1492
     4.1945   4.2077   4.2484   4.2706   4.3063   4.4036   4.4143   4.4550
     4.5055   4.5114   4.5176   4.5301   4.5418   4.5549   4.5830   4.5976
     4.6447   4.6966   4.7537   4.7595   4.7715   4.7736   4.7851   4.8160
     4.8278   4.8500   4.8543   4.8616   4.8634   4.9294   4.9516   4.9672
     4.9795   4.9960   5.0124   5.0447   5.0592   5.0887   5.1050   5.1533
     5.2373   5.2628   5.2731   5.3171   5.3264   5.3539   5.3654   5.3665
     5.3709   5.3939   5.4288   5.4624   5.4729   5.4861   5.5432   5.5885
     5.5953   5.6307   5.6388   5.6763   5.7002   5.7057   5.7155   5.7185
     5.7567   5.7573   5.7833   5.8038   5.8134   5.8557   5.8819   5.8971
     5.9062   5.9736   5.9874   5.9982   6.0129   6.0190   6.0266   6.0417
     6.0597   6.0983   6.1004   6.1332   6.1712   6.1846   6.1872   6.2018
     6.2064   6.2213   6.2235   6.2525   6.2820   6.2941   6.3012   6.3148
     6.3286   6.3658   6.4074   6.4504   6.4767   6.4932   6.5097   6.5245
     6.5312   6.5316   6.5410   6.5450   6.6014   6.6166   6.6400   6.6491
     6.6546   6.7039   6.7056   6.7213   6.7320   6.7338   6.7478   6.7619
     6.8097   6.8247   6.8274   6.8693   6.8792   6.8828   6.9193   6.9366
     6.9685   6.9936   7.0058   7.0096   7.0409   7.0550   7.0708   7.1144
     7.1215   7.1500   7.1617   7.1793   7.1837   7.1898   7.2094   7.2244
     7.2268   7.2271   7.2514   7.2823   7.2868   7.2952   7.3240   7.3341
     7.3377   7.3509   7.3582   7.3836   7.3877   7.4119   7.4484   7.4686
     7.4957   7.5146   7.5188   7.5619   7.5803   7.5968   7.6125   7.6274
     7.6322   7.6490   7.6546   7.6714   7.6801   7.6847   7.7152   7.7184
     7.7252   7.7299   7.7348   7.7563   7.7748   7.8042   7.8051   7.8448
     7.8647   7.9034   7.9352   7.9505   7.9716   7.9830   7.9860   7.9903
     8.0212   8.0267   8.0447   8.0695

          k = 0.0000 0.0000 0.0023 (147377 PWs)   bands (ev):

   -21.2910 -21.0636 -20.9299 -20.7808 -20.7258 -20.6431 -20.5026 -20.2471
   -20.0150 -19.9408 -19.7199 -19.6989 -19.5929 -19.5703 -19.3868 -19.3013
   -19.1791 -19.0627 -18.9121 -18.8037 -18.6056 -18.3533 -18.1588 -18.1312
   -17.9961 -17.9188 -17.8832 -17.7483 -17.7221 -17.7130 -17.4144 -17.3084
   -17.1383 -17.0139 -16.8948 -16.8537 -16.8126 -16.8045 -16.5969 -16.4349
   -16.3131 -16.1282 -16.0816 -16.0152 -15.9907 -15.8127 -15.6288 -15.0534
   -15.0051 -14.8817 -14.8505 -14.8229 -14.6710 -14.5394 -14.4758 -14.4545
   -14.3761 -14.1977 -14.1191 -13.8499 -13.7739 -13.6478 -13.6158 -13.4121
   -13.3251 -13.1964 -13.0602 -12.7587 -12.6544 -12.5892 -12.5869 -12.5590
   -12.3928 -12.3535 -12.2637 -12.2102 -12.2058 -12.0930 -11.7338 -11.5767
   -11.5038 -11.4519 -11.4015 -11.2946 -10.9693 -10.9126 -10.8826 -10.7253
   -10.6625 -10.6509 -10.6359 -10.5502 -10.4618 -10.4009 -10.3650 -10.2608
   -10.1230 -10.0504  -9.9079  -9.8394  -9.7811  -9.6555  -9.5900  -9.4926
    -9.3916  -9.3644  -9.2885  -9.2584  -9.2179  -9.1407  -9.1338  -9.1045
    -9.0249  -8.9452  -8.8822  -8.7768  -8.7615  -8.7028  -8.6607  -8.6159
    -8.6121  -8.6003  -8.5779  -8.5524  -8.5255  -8.5242  -8.4896  -8.4519
    -8.4218  -8.3787  -8.3576  -8.3385  -8.2873  -8.2727  -8.2183  -8.1428
    -8.0117  -8.0068  -7.9146  -7.8922  -7.8365  -7.8186  -7.7678  -7.7459
    -7.6671  -7.5226  -7.5191  -7.5078  -7.4913  -7.4580  -7.4169  -7.3739
    -7.3563  -7.3079  -7.2892  -7.2160  -7.2026  -7.1487  -7.1337  -6.9400
    -6.7945  -6.7543  -6.7072  -6.6542  -6.5995  -6.5198  -6.5034  -6.4670
    -6.3380  -6.3318  -6.2607  -6.2271  -6.1208  -6.0642  -6.0605  -5.9347
    -5.8371  -5.8259  -5.7090  -5.5958  -5.5807  -5.5786  -5.4963  -5.4301
    -5.3263  -5.3160  -5.3157  -5.2932  -5.0950  -5.0118  -4.7636  -4.7179
    -4.6169  -4.5428  -4.4897  -4.4463  -4.2284  -4.2077  -4.1213  -3.8592
    -3.8549  -3.7022  -3.6950  -3.6453  -3.3778  -2.2948  -2.2250  -1.7438
    -1.6815  -0.7813  -0.5307  -0.5210  -0.4132  -0.3642  -0.3382  -0.2249
    -0.0661   0.0966   0.2345   0.2638   0.2914   0.4177   0.4741   0.8248
     0.9989   1.0456   1.1113   1.1154   1.2555   1.2652   1.3577   1.4330
     1.4746   1.5353   1.5404   1.5445   1.5669   1.5959   1.6113   1.6456
     1.6831   1.7886   1.8802   1.9196   2.0154   2.0597   2.1023   2.1407
     2.1814   2.3682   2.4078   2.4835   2.4993   2.5419   2.5658   2.6055
     2.6106   2.6854   2.7159   2.8538   2.9071   2.9415   2.9518   2.9616
     3.0054   3.0273   3.1000   3.1079   3.1192   3.1367   3.1753   3.2232
     3.2459   3.2764   3.2980   3.3196   3.3366   3.3698   3.3949   3.3998
     3.4096   3.4366   3.4409   3.4874   3.5339   3.5419   3.6916   3.7295
     3.7528   3.7890   3.8323   3.8508   3.8758   3.9304   3.9523   3.9629
     3.9780   3.9912   4.0027   4.0321   4.0579   4.1217   4.1463   4.1554
     4.1888   4.2234   4.2683   4.2738   4.3071   4.3674   4.4094   4.4419
     4.4811   4.5119   4.5279   4.5446   4.5520   4.5555   4.5896   4.6269
     4.6516   4.6714   4.7476   4.7558   4.7651   4.7716   4.7758   4.8188
     4.8271   4.8278   4.8523   4.8561   4.8601   4.9499   4.9568   4.9612
     4.9943   5.0108   5.0225   5.0469   5.0757   5.0904   5.1026   5.1537
     5.2378   5.2452   5.2543   5.2995   5.3320   5.3418   5.3485   5.3773
     5.3900   5.4272   5.4289   5.4468   5.4735   5.4952   5.5703   5.5711
     5.5981   5.6305   5.6511   5.6742   5.6793   5.6916   5.7003   5.7187
     5.7457   5.7651   5.7921   5.8119   5.8371   5.8473   5.8970   5.9059
     5.9164   5.9414   5.9595   5.9667   6.0058   6.0211   6.0214   6.0287
     6.0818   6.1103   6.1310   6.1490   6.1689   6.1821   6.1897   6.1992
     6.2108   6.2158   6.2230   6.2408   6.2840   6.2977   6.3198   6.3300
     6.3301   6.3593   6.4193   6.4304   6.4717   6.4844   6.4937   6.5179
     6.5292   6.5307   6.5356   6.5608   6.6066   6.6188   6.6526   6.6686
     6.6833   6.6963   6.7060   6.7109   6.7226   6.7307   6.7504   6.7691
     6.8132   6.8223   6.8329   6.8577   6.8734   6.8993   6.9021   6.9052
     6.9774   6.9889   7.0018   7.0103   7.0374   7.0632   7.0905   7.0940
     7.1295   7.1451   7.1647   7.1702   7.1763   7.1864   7.1909   7.1931
     7.2138   7.2481   7.2494   7.2752   7.2784   7.3018   7.3287   7.3378
     7.3406   7.3622   7.3706   7.4031   7.4071   7.4243   7.4409   7.4515
     7.4875   7.5099   7.5182   7.5626   7.5657   7.6069   7.6111   7.6241
     7.6245   7.6413   7.6502   7.6904   7.6988   7.7022   7.7031   7.7176
     7.7263   7.7302   7.7481   7.7644   7.7943   7.7957   7.8054   7.8383
     7.8817   7.9152   7.9216   7.9429   7.9655   7.9822   7.9960   7.9973
     8.0201   8.0310   8.0404   8.0520

          k = 0.0000 0.0000 0.0035 (147387 PWs)   bands (ev):

   -21.2908 -21.0629 -20.9334 -20.7761 -20.7360 -20.6315 -20.5026 -20.2496
   -20.0143 -19.9405 -19.7227 -19.7205 -19.5953 -19.5496 -19.3800 -19.2950
   -19.1836 -19.0673 -18.9021 -18.8030 -18.6172 -18.3418 -18.1579 -18.1458
   -17.9979 -17.9530 -17.8867 -17.7282 -17.7114 -17.6999 -17.4046 -17.3053
   -17.1392 -17.0276 -16.9045 -16.8565 -16.8061 -16.7964 -16.5919 -16.4234
   -16.3210 -16.1379 -16.0824 -16.0165 -15.9803 -15.8254 -15.6383 -15.0534
   -15.0005 -14.8993 -14.8473 -14.8134 -14.6459 -14.5470 -14.4693 -14.4573
   -14.3703 -14.2002 -14.1120 -13.8520 -13.7989 -13.6299 -13.6052 -13.4140
   -13.3299 -13.1976 -13.0671 -12.7680 -12.6536 -12.6278 -12.6232 -12.5702
   -12.3444 -12.3046 -12.2600 -12.2140 -12.2089 -12.0868 -11.7285 -11.5785
   -11.4989 -11.4464 -11.4125 -11.2922 -10.9895 -10.9422 -10.8647 -10.6967
   -10.6751 -10.6689 -10.6261 -10.5437 -10.4750 -10.3915 -10.3386 -10.2666
   -10.1270 -10.0568  -9.9229  -9.8379  -9.7740  -9.6475  -9.5923  -9.4767
    -9.4063  -9.3641  -9.2866  -9.2549  -9.2426  -9.1391  -9.1173  -9.1037
    -9.0260  -8.9498  -8.8702  -8.7812  -8.7708  -8.7159  -8.6779  -8.6289
    -8.6141  -8.5973  -8.5774  -8.5565  -8.5223  -8.5159  -8.4939  -8.4517
    -8.4019  -8.3826  -8.3407  -8.3355  -8.2848  -8.2703  -8.2014  -8.1459
    -8.0074  -8.0023  -7.9214  -7.8910  -7.8516  -7.8182  -7.7751  -7.7421
    -7.6563  -7.5279  -7.5164  -7.5135  -7.5038  -7.4647  -7.4227  -7.3864
    -7.3324  -7.3013  -7.2823  -7.2085  -7.2062  -7.1371  -7.1234  -6.9450
    -6.8039  -6.7565  -6.7211  -6.6387  -6.5955  -6.5194  -6.5065  -6.4973
    -6.3352  -6.3105  -6.2796  -6.2371  -6.0988  -6.0823  -6.0416  -5.9178
    -5.8362  -5.8334  -5.7099  -5.6169  -5.5822  -5.5789  -5.5355  -5.4028
    -5.3264  -5.3170  -5.2946  -5.2921  -5.0888  -5.0028  -4.7677  -4.7193
    -4.6198  -4.5433  -4.4813  -4.4569  -4.2436  -4.2095  -4.0922  -3.8770
    -3.8571  -3.6990  -3.6885  -3.6439  -3.3776  -2.3098  -2.2361  -1.7333
    -1.6667  -0.7817  -0.5261  -0.5170  -0.4179  -0.3626  -0.3378  -0.2164
    -0.0760   0.0968   0.2342   0.2527   0.2678   0.4529   0.4846   0.8244
     0.9911   1.0466   1.0838   1.1123   1.2563   1.2729   1.3404   1.3887
     1.4630   1.5331   1.5424   1.5482   1.5720   1.5969   1.6244   1.6663
     1.7366   1.7832   1.8877   1.9304   2.0184   2.0406   2.0903   2.1618
     2.1817   2.3490   2.3939   2.5124   2.5134   2.5429   2.5668   2.6020
     2.6074   2.6857   2.7295   2.8548   2.8800   2.9154   2.9507   2.9616
     2.9908   3.0084   3.0960   3.1161   3.1287   3.1441   3.2020   3.2409
     3.2454   3.2466   3.2991   3.3005   3.3256   3.3717   3.4033   3.4110
     3.4207   3.4558   3.4629   3.4953   3.4960   3.5578   3.7289   3.7339
     3.7355   3.7847   3.8392   3.8429   3.8430   3.9354   3.9427   3.9523
     3.9732   3.9963   3.9984   4.0506   4.0697   4.1034   4.1527   4.1639
     4.1700   4.2559   4.2779   4.2882   4.3088   4.3287   4.4014   4.4267
     4.4465   4.5117   4.5284   4.5476   4.5623   4.5874   4.5953   4.6520
     4.6530   4.6614   4.7339   4.7376   4.7457   4.7676   4.7729   4.7813
     4.8273   4.8350   4.8578   4.8667   4.8731   4.9219   4.9523   4.9856
     5.0108   5.0294   5.0554   5.0569   5.0610   5.0868   5.1230   5.1614
     5.2127   5.2379   5.2387   5.2865   5.3235   5.3400   5.3448   5.3807
     5.3998   5.4150   5.4480   5.4633   5.4744   5.5202   5.5531   5.5844
     5.6030   5.6243   5.6384   5.6724   5.6753   5.6831   5.6851   5.7217
     5.7462   5.7688   5.8056   5.8098   5.8442   5.8699   5.9001   5.9080
     5.9103   5.9212   5.9315   5.9377   5.9960   6.0031   6.0234   6.0452
     6.1118   6.1148   6.1317   6.1619   6.1657   6.1809   6.1860   6.1949
     6.2046   6.2198   6.2270   6.2643   6.2787   6.2935   6.3296   6.3405
     6.3551   6.3575   6.4162   6.4262   6.4521   6.4701   6.4915   6.5181
     6.5258   6.5286   6.5393   6.5743   6.6169   6.6196   6.6546   6.6750
     6.6829   6.6964   6.7058   6.7098   6.7341   6.7506   6.7554   6.7753
     6.8061   6.8131   6.8373   6.8465   6.8633   6.8799   6.8811   6.9369
     6.9531   7.0036   7.0089   7.0113   7.0117   7.0654   7.0884   7.0990
     7.1205   7.1265   7.1421   7.1550   7.1679   7.1856   7.1875   7.1968
     7.2112   7.2389   7.2418   7.2529   7.2989   7.3001   7.3398   7.3608
     7.3623   7.3663   7.3854   7.3872   7.4130   7.4187   7.4270   7.4664
     7.5055   7.5195   7.5244   7.5518   7.5632   7.5682   7.5947   7.6177
     7.6289   7.6555   7.6596   7.6701   7.7010   7.7204   7.7239   7.7286
     7.7368   7.7499   7.7635   7.7703   7.7786   7.8031   7.8336   7.8353
     7.8889   7.9059   7.9296   7.9325   7.9489   7.9882   8.0098   8.0144
     8.0188   8.0269   8.0357   8.0415

          k = 0.0000 0.0000 0.0047 (147403 PWs)   bands (ev):

   -21.2904 -21.0621 -20.9378 -20.7700 -20.7471 -20.6182 -20.5025 -20.2530
   -20.0135 -19.9401 -19.7436 -19.7261 -19.5989 -19.5273 -19.3708 -19.2864
   -19.1901 -19.0723 -18.8900 -18.8017 -18.6318 -18.3274 -18.1646 -18.1565
   -18.0006 -17.9900 -17.8880 -17.7380 -17.6809 -17.6742 -17.3920 -17.3009
   -17.1405 -17.0452 -16.9147 -16.8583 -16.8096 -16.7792 -16.5844 -16.4083
   -16.3317 -16.1492 -16.0836 -16.0183 -15.9687 -15.8424 -15.6505 -15.0546
   -14.9936 -14.9285 -14.8307 -14.8002 -14.6199 -14.5549 -14.4615 -14.4604
   -14.3629 -14.2037 -14.1023 -13.8547 -13.8239 -13.6248 -13.5804 -13.4169
   -13.3364 -13.1995 -13.0761 -12.7849 -12.6765 -12.6752 -12.6340 -12.5635
   -12.3013 -12.2630 -12.2533 -12.2160 -12.2085 -12.0775 -11.7212 -11.5811
   -11.4923 -11.4388 -11.4265 -11.2898 -11.0113 -10.9738 -10.8460 -10.6947
   -10.6902 -10.6628 -10.6130 -10.5367 -10.4876 -10.3801 -10.3096 -10.2756
   -10.1300 -10.0644  -9.9470  -9.8307  -9.7652  -9.6392  -9.5930  -9.4579
    -9.4240  -9.3635  -9.2913  -9.2625  -9.2500  -9.1367  -9.1028  -9.1026
    -9.0283  -8.9558  -8.8579  -8.7981  -8.7630  -8.7299  -8.6978  -8.6566
    -8.6172  -8.5942  -8.5808  -8.5633  -8.5262  -8.4968  -8.4827  -8.4515
    -8.3890  -8.3849  -8.3302  -8.3195  -8.2813  -8.2675  -8.1803  -8.1501
    -8.0013  -7.9959  -7.9304  -7.8895  -7.8696  -7.8176  -7.7831  -7.7389
    -7.6443  -7.5436  -7.5345  -7.5101  -7.4982  -7.4692  -7.4291  -7.3998
    -7.3083  -7.2957  -7.2737  -7.2146  -7.1932  -7.1232  -7.1094  -6.9522
    -6.8135  -6.7597  -6.7387  -6.6203  -6.5920  -6.5287  -6.5188  -6.5099
    -6.3439  -6.3016  -6.2832  -6.2406  -6.1025  -6.0755  -6.0195  -5.8992
    -5.8444  -5.8347  -5.7112  -5.6379  -5.5843  -5.5808  -5.5744  -5.3729
    -5.3394  -5.3186  -5.2965  -5.2598  -5.0790  -4.9915  -4.7735  -4.7213
    -4.6227  -4.5438  -4.4713  -4.4706  -4.2550  -4.2119  -4.0618  -3.8975
    -3.8600  -3.7042  -3.6739  -3.6419  -3.3767  -2.3298  -2.2509  -1.7193
    -1.6470  -0.7825  -0.5199  -0.5115  -0.4233  -0.3605  -0.3373  -0.2056
    -0.0888   0.0934   0.2313   0.2417   0.2506   0.4888   0.4975   0.8238
     0.9801   1.0479   1.0514   1.1137   1.2444   1.2574   1.3408   1.3588
     1.4495   1.5298   1.5361   1.5395   1.5984   1.6005   1.6399   1.6873
     1.7773   1.7912   1.8966   1.9464   2.0219   2.0228   2.0740   2.1822
     2.1833   2.3319   2.3792   2.5237   2.5444   2.5447   2.5682   2.5955
     2.6104   2.6861   2.7451   2.8497   2.8562   2.8856   2.9490   2.9620
     2.9735   2.9898   3.0868   3.0958   3.1501   3.1616   3.2277   3.2321
     3.2402   3.2676   3.2819   3.3007   3.3137   3.3731   3.3878   3.4323
     3.4420   3.4593   3.4760   3.4854   3.5101   3.5778   3.7175   3.7316
     3.7737   3.7775   3.8026   3.8378   3.8465   3.9176   3.9455   3.9539
     3.9570   3.9905   4.0049   4.0670   4.0803   4.0902   4.1515   4.1692
     4.1726   4.2714   4.2899   4.3021   4.3042   4.3152   4.3907   4.4111
     4.4111   4.5048   4.5297   4.5431   4.5751   4.5980   4.6182   4.6450
     4.6641   4.6729   4.7161   4.7164   4.7308   4.7563   4.7603   4.7603
     4.8257   4.8440   4.8792   4.8800   4.8889   4.8992   4.9416   4.9914
     5.0338   5.0358   5.0407   5.0825   5.0889   5.0906   5.1309   5.1811
     5.1874   5.2136   5.2398   5.2792   5.3126   5.3411   5.3456   5.3575
     5.4015   5.4391   5.4409   5.4759   5.4980   5.5398   5.5522   5.5698
     5.5982   5.6020   5.6336   5.6660   5.6694   5.6944   5.6947   5.7225
     5.7536   5.7702   5.8064   5.8164   5.8474   5.8566   5.8828   5.8895
     5.9086   5.9159   5.9382   5.9393   5.9665   6.0051   6.0265   6.0707
     6.0948   6.1175   6.1343   6.1539   6.1749   6.1836   6.1938   6.1956
     6.2000   6.2225   6.2376   6.2481   6.2910   6.3202   6.3296   6.3465
     6.3565   6.3943   6.4088   6.4164   6.4320   6.4690   6.5073   6.5176
     6.5208   6.5241   6.5514   6.5757   6.6195   6.6325   6.6444   6.6557
     6.6664   6.6972   6.7212   6.7219   6.7516   6.7649   6.7745   6.7759
     6.7959   6.7963   6.8301   6.8365   6.8561   6.8753   6.8892   6.9292
     6.9701   6.9802   7.0020   7.0133   7.0266   7.0415   7.0813   7.0911
     7.1050   7.1063   7.1236   7.1302   7.1601   7.1701   7.1926   7.1927
     7.2188   7.2328   7.2498   7.2612   7.2924   7.3233   7.3350   7.3471
     7.3578   7.3883   7.3957   7.3973   7.4024   7.4263   7.4391   7.4899
     7.5034   7.5241   7.5254   7.5398   7.5606   7.5638   7.5855   7.6063
     7.6371   7.6399   7.6598   7.6744   7.7057   7.7345   7.7383   7.7400
     7.7473   7.7560   7.7780   7.7802   7.7971   7.8205   7.8358   7.8600
     7.8877   7.8936   7.9207   7.9391   7.9392   7.9903   8.0099   8.0177
     8.0231   8.0284   8.0379   8.0459

          k = 0.0000 0.0000 0.0059 (147375 PWs)   bands (ev):

   -21.2899 -21.0609 -20.9431 -20.7625 -20.7587 -20.6040 -20.5024 -20.2572
   -20.0126 -19.9397 -19.7675 -19.7300 -19.6033 -19.5046 -19.3594 -19.2754
   -19.1983 -19.0770 -18.8765 -18.7997 -18.6487 -18.3110 -18.1867 -18.1546
   -18.0276 -18.0044 -17.8889 -17.7492 -17.6582 -17.6372 -17.3774 -17.2951
   -17.1421 -17.0657 -16.9244 -16.8598 -16.8153 -16.7613 -16.5742 -16.3903
   -16.3449 -16.1616 -16.0855 -16.0206 -15.9573 -15.8630 -15.6641 -15.0574
   -14.9847 -14.9613 -14.8082 -14.7834 -14.5981 -14.5593 -14.4637 -14.4525
   -14.3541 -14.2084 -14.0902 -13.8580 -13.8483 -13.6237 -13.5509 -13.4208
   -13.3444 -13.2024 -13.0867 -12.8127 -12.7280 -12.7019 -12.6255 -12.5540
   -12.2811 -12.2438 -12.2331 -12.2093 -12.1908 -12.0636 -11.7118 -11.5842
   -11.4842 -11.4430 -11.4294 -11.2876 -11.0340 -11.0060 -10.8266 -10.7145
   -10.7134 -10.6314 -10.5973 -10.5311 -10.4982 -10.3677 -10.2882 -10.2792
   -10.1303 -10.0724  -9.9772  -9.8201  -9.7556  -9.6324  -9.5902  -9.4434
    -9.4378  -9.3629  -9.3118  -9.2681  -9.2435  -9.1335  -9.1012  -9.0927
    -9.0303  -8.9626  -8.8553  -8.8008  -8.7535  -8.7443  -8.7193  -8.6866
    -8.6229  -8.6213  -8.5633  -8.5593  -8.5429  -8.4694  -8.4662  -8.4513
    -8.3976  -8.3723  -8.3212  -8.2964  -8.2766  -8.2646  -8.1562  -8.1553
    -7.9933  -7.9876  -7.9410  -7.8894  -7.8878  -7.8169  -7.7918  -7.7363
    -7.6325  -7.5716  -7.5419  -7.5148  -7.4911  -7.4652  -7.4364  -7.4129
    -7.2917  -7.2844  -7.2641  -7.2206  -7.1776  -7.1074  -7.0920  -6.9617
    -6.8222  -6.7638  -6.7592  -6.6005  -6.5899  -6.5606  -6.5177  -6.5130
    -6.3581  -6.3255  -6.2565  -6.2369  -6.1238  -6.0517  -5.9959  -5.8799
    -5.8589  -5.8327  -5.7129  -5.6576  -5.6175  -5.5869  -5.5790  -5.3575
    -5.3386  -5.3208  -5.2990  -5.2309  -5.0648  -4.9788  -4.7810  -4.7237
    -4.6252  -4.5442  -4.4891  -4.4585  -4.2626  -4.2150  -4.0311  -3.9196
    -3.8636  -3.7104  -3.6601  -3.6395  -3.3749  -2.3539  -2.2687  -1.7025
    -1.6233  -0.7839  -0.5122  -0.5047  -0.4285  -0.3578  -0.3364  -0.1931
    -0.1037   0.0846   0.2188   0.2387   0.2413   0.5116   0.5252   0.8230
     0.9660   1.0189   1.0497   1.1155   1.2026   1.2589   1.2924   1.3904
     1.4350   1.5119   1.5358   1.5418   1.6002   1.6245   1.6567   1.7087
     1.7716   1.8463   1.9060   1.9679   2.0035   2.0285   2.0540   2.1827
     2.2053   2.3170   2.3645   2.5292   2.5462   2.5701   2.5755   2.5953
     2.6157   2.6862   2.7609   2.8190   2.8539   2.8580   2.9458   2.9546
     2.9627   2.9716   3.0736   3.0758   3.1519   3.1717   3.2385   3.2416
     3.2629   3.2637   3.2892   3.3036   3.3051   3.3710   3.3747   3.4244
     3.4545   3.4639   3.4939   3.4969   3.5388   3.6008   3.6994   3.7335
     3.7664   3.7673   3.8151   3.8366   3.8386   3.8995   3.9307   3.9476
     3.9624   3.9893   4.0174   4.0539   4.0800   4.1100   4.1334   4.1797
     4.1950   4.2378   4.3054   4.3090   4.3238   4.3330   4.3758   4.3782
     4.3964   4.4946   4.5241   4.5314   4.5907   4.6050   4.6349   4.6436
     4.6470   4.6849   4.6865   4.7049   4.7313   4.7423   4.7481   4.7627
     4.8221   4.8566   4.8843   4.8904   4.9059   4.9064   4.9302   4.9853
     5.0069   5.0440   5.0699   5.0767   5.1121   5.1258   5.1312   5.1661
     5.1845   5.2225   5.2414   5.2777   5.3074   5.3166   5.3372   5.3614
     5.4101   5.4319   5.4605   5.4785   5.5089   5.5342   5.5519   5.5663
     5.5852   5.5999   5.6370   5.6494   5.6705   5.7158   5.7170   5.7207
     5.7610   5.7693   5.7904   5.8009   5.8466   5.8513   5.8624   5.8680
     5.9141   5.9278   5.9399   5.9491   5.9559   6.0121   6.0306   6.0582
     6.0908   6.1122   6.1292   6.1458   6.1698   6.1866   6.1938   6.1960
     6.2119   6.2264   6.2493   6.2630   6.2832   6.3090   6.3403   6.3641
     6.3867   6.4025   6.4025   6.4288   6.4310   6.4672   6.5139   6.5158
     6.5165   6.5366   6.5671   6.5727   6.6190   6.6195   6.6435   6.6476
     6.6551   6.6872   6.7301   6.7379   6.7404   6.7610   6.7704   6.7864
     6.7868   6.8106   6.8351   6.8379   6.8468   6.8982   6.9038   6.9058
     6.9458   6.9973   7.0030   7.0155   7.0186   7.0387   7.0393   7.0594
     7.0928   7.1034   7.1073   7.1240   7.1303   7.1554   7.1709   7.2012
     7.2247   7.2666   7.2669   7.2698   7.2788   7.2863   7.3421   7.3489
     7.3706   7.3721   7.4021   7.4227   7.4328   7.4359   7.4370   7.4908
     7.5009   7.5072   7.5219   7.5462   7.5566   7.5658   7.5847   7.6167
     7.6253   7.6524   7.6550   7.6877   7.7099   7.7107   7.7503   7.7566
     7.7604   7.7795   7.7874   7.7977   7.8094   7.8408   7.8511   7.8782
     7.8844   7.8984   7.9089   7.9366   7.9450   7.9872   7.9955   7.9961
     8.0061   8.0235   8.0516   8.0590

          k = 0.0000 0.0000 0.0070 (147319 PWs)   bands (ev):

   -21.2893 -21.0595 -20.9489 -20.7703 -20.7541 -20.5891 -20.5023 -20.2622
   -20.0118 -19.9392 -19.7918 -19.7341 -19.6084 -19.4818 -19.3463 -19.2624
   -19.2081 -19.0809 -18.8628 -18.7964 -18.6670 -18.2936 -18.2112 -18.1522
   -18.0652 -18.0093 -17.8896 -17.7612 -17.6329 -17.6008 -17.3613 -17.2878
   -17.1441 -17.0883 -16.9328 -16.8612 -16.8232 -16.7430 -16.5617 -16.3699
   -16.3603 -16.1746 -16.0882 -16.0234 -15.9476 -15.8864 -15.6777 -15.0616
   -14.9955 -14.9743 -14.7816 -14.7631 -14.5913 -14.5501 -14.4668 -14.4419
   -14.3443 -14.2142 -14.0761 -13.8715 -13.8618 -13.6235 -13.5200 -13.4260
   -13.3536 -13.2068 -13.0982 -12.8509 -12.7803 -12.7186 -12.6144 -12.5430
   -12.2852 -12.2451 -12.2160 -12.1758 -12.1605 -12.0424 -11.7006 -11.5879
   -11.4749 -11.4614 -11.4184 -11.2861 -11.0574 -11.0379 -10.8069 -10.7373
   -10.7369 -10.6001 -10.5794 -10.5328 -10.5013 -10.3552 -10.3042 -10.2488
   -10.1275 -10.0795 -10.0107  -9.8086  -9.7461  -9.6280  -9.5828  -9.4637
    -9.4180  -9.3621  -9.3394  -9.2676  -9.2352  -9.1296  -9.0994  -9.0909
    -9.0286  -8.9702  -8.8655  -8.7860  -8.7586  -8.7429  -8.7417  -8.7177
    -8.6534  -8.6280  -8.5594  -8.5532  -8.5452  -8.4510  -8.4493  -8.4426
    -8.4078  -8.3643  -8.3092  -8.2730  -8.2695  -8.2617  -8.1615  -8.1302
    -7.9840  -7.9774  -7.9524  -7.9100  -7.8862  -7.8160  -7.8012  -7.7341
    -7.6218  -7.6000  -7.5495  -7.5272  -7.4833  -7.4532  -7.4443  -7.4245
    -7.2895  -7.2611  -7.2539  -7.2264  -7.1599  -7.0901  -7.0717  -6.9733
    -6.8294  -6.7820  -6.7690  -6.5928  -6.5897  -6.5802  -6.5157  -6.5156
    -6.3757  -6.3504  -6.2311  -6.2279  -6.1452  -6.0277  -5.9719  -5.8771
    -5.8603  -5.8297  -5.7150  -5.6751  -5.6587  -5.5900  -5.5794  -5.3734
    -5.3234  -5.3070  -5.3021  -5.2067  -5.0455  -4.9655  -4.7902  -4.7264
    -4.6267  -4.5446  -4.5092  -4.4453  -4.2669  -4.2186  -4.0010  -3.9424
    -3.8676  -3.7173  -3.6483  -3.6366  -3.3714  -2.3813  -2.2891  -1.6835
    -1.5965  -0.7860  -0.5032  -0.4968  -0.4326  -0.3546  -0.3351  -0.1795
    -0.1203   0.0701   0.2021   0.2389   0.2401   0.5262   0.5621   0.8219
     0.9487   0.9868   1.0519   1.1177   1.1579   1.2447   1.2606   1.4200
     1.4252   1.4943   1.5313   1.5489   1.6024   1.6433   1.6738   1.7305
     1.7670   1.9017   1.9157   1.9856   1.9949   2.0312   2.0357   2.1831
     2.2277   2.3043   2.3501   2.5265   2.5484   2.5723   2.5995   2.6038
     2.6293   2.6859   2.7686   2.7965   2.8212   2.8603   2.9327   2.9428
     2.9538   2.9633   3.0563   3.0589   3.1257   3.1938   3.2397   3.2458
     3.2675   3.2905   3.3016   3.3040   3.3161   3.3543   3.3767   3.3950
     3.4759   3.4860   3.4982   3.5184   3.5702   3.6265   3.6811   3.7309
     3.7357   3.7548   3.8203   3.8388   3.8569   3.8804   3.9024   3.9582
     3.9680   3.9905   4.0256   4.0338   4.0895   4.1157   4.1293   4.1773
     4.2068   4.2272   4.3113   4.3161   4.3380   4.3527   4.3566   4.3646
     4.3870   4.4834   4.4959   4.5336   4.6071   4.6108   4.6171   4.6200
     4.6413   4.6726   4.6893   4.6965   4.7306   4.7405   4.7426   4.7820
     4.8172   4.8722   4.8776   4.8905   4.9224   4.9252   4.9339   4.9769
     4.9833   5.0461   5.0693   5.0933   5.1082   5.1307   5.1491   5.1630
     5.1943   5.2435   5.2566   5.2814   5.2851   5.3067   5.3332   5.3685
     5.4182   5.4234   5.4728   5.4861   5.4944   5.4969   5.5333   5.5884
     5.6034   5.6157   5.6333   5.6383   5.6696   5.7192   5.7354   5.7402
     5.7415   5.7623   5.7740   5.7961   5.8165   5.8528   5.8672   5.8808
     5.9011   5.9168   5.9471   5.9595   5.9742   6.0220   6.0239   6.0396
     6.0851   6.0878   6.1272   6.1444   6.1559   6.1879   6.1926   6.1993
     6.2191   6.2422   6.2552   6.2688   6.2984   6.3154   6.3246   6.3748
     6.3959   6.3967   6.4422   6.4431   6.4529   6.4671   6.5044   6.5075
     6.5161   6.5688   6.5697   6.5837   6.6034   6.6190   6.6265   6.6487
     6.6506   6.6795   6.7061   6.7118   6.7543   6.7628   6.7670   6.7954
     6.8016   6.8108   6.8350   6.8402   6.8707   6.8857   6.9100   6.9148
     6.9408   6.9876   6.9948   6.9973   7.0183   7.0285   7.0310   7.0391
     7.0764   7.0909   7.0950   7.1032   7.1038   7.1528   7.1672   7.2100
     7.2187   7.2315   7.2709   7.2857   7.2859   7.3150   7.3384   7.3422
     7.3523   7.4027   7.4041   7.4121   7.4358   7.4476   7.4686   7.4799
     7.4933   7.5079   7.5235   7.5241   7.5690   7.5715   7.5955   7.6086
     7.6377   7.6602   7.6646   7.6821   7.6977   7.7264   7.7642   7.7670
     7.7887   7.7963   7.8022   7.8041   7.8157   7.8377   7.8614   7.8909
     7.8984   7.9045   7.9219   7.9393   7.9501   7.9515   7.9730   7.9892
     7.9936   8.0288   8.0666   8.0722

          k = 0.0000 0.0000 0.0082 (147293 PWs)   bands (ev):

   -21.2886 -21.0578 -20.9551 -20.7819 -20.7448 -20.5736 -20.5021 -20.2680
   -20.0111 -19.9386 -19.8161 -19.7380 -19.6139 -19.4592 -19.3317 -19.2473
   -19.2193 -19.0838 -18.8502 -18.7910 -18.6865 -18.2760 -18.2375 -18.1494
   -18.1020 -18.0156 -17.8903 -17.7731 -17.6056 -17.5654 -17.3446 -17.2789
   -17.1465 -17.1124 -16.9398 -16.8627 -16.8330 -16.7242 -16.5472 -16.3774
   -16.3476 -16.1880 -16.0922 -16.0265 -15.9409 -15.9116 -15.6899 -15.0671
   -15.0307 -14.9629 -14.7522 -14.7399 -14.5966 -14.5307 -14.4696 -14.4288
   -14.3336 -14.2212 -14.0602 -13.8934 -13.8658 -13.6238 -13.4885 -13.4325
   -13.3638 -13.2134 -13.1100 -12.8954 -12.8315 -12.7295 -12.6017 -12.5311
   -12.2979 -12.2514 -12.2036 -12.1350 -12.1295 -12.0117 -11.6877 -11.5919
   -11.4811 -11.4646 -11.4060 -11.2852 -11.0813 -11.0689 -10.7885 -10.7610
   -10.7598 -10.5700 -10.5601 -10.5443 -10.4944 -10.3436 -10.3226 -10.2200
   -10.1223 -10.0837 -10.0447  -9.7979  -9.7379  -9.6248  -9.5713  -9.4845
    -9.3997  -9.3676  -9.3612  -9.2660  -9.2250  -9.1250  -9.0994  -9.0974
    -9.0227  -8.9782  -8.8773  -8.7728  -8.7653  -8.7645  -8.7492  -8.7313
    -8.6831  -8.6387  -8.5732  -8.5460  -8.5265  -8.4507  -8.4327  -8.4192
    -8.4173  -8.3596  -8.2981  -8.2591  -8.2575  -8.2502  -8.1686  -8.1030
    -7.9782  -7.9652  -7.9593  -7.9306  -7.8848  -7.8151  -7.8112  -7.7326
    -7.6286  -7.6129  -7.5568  -7.5435  -7.4766  -7.4527  -7.4368  -7.4324
    -7.2892  -7.2435  -7.2385  -7.2318  -7.1406  -7.0714  -7.0486  -6.9866
    -6.8350  -6.8068  -6.7754  -6.6249  -6.5919  -6.5612  -6.5175  -6.5115
    -6.3948  -6.3759  -6.2156  -6.2090  -6.1645  -6.0040  -5.9483  -5.8985
    -5.8407  -5.8254  -5.7174  -5.7001  -5.6907  -5.5937  -5.5797  -5.3910
    -5.3265  -5.3056  -5.2740  -5.1874  -5.0208  -4.9524  -4.8010  -4.7293
    -4.6271  -4.5449  -4.5308  -4.4316  -4.2684  -4.2227  -3.9730  -3.9655
    -3.8713  -3.7243  -3.6395  -3.6332  -3.3658  -2.4112  -2.3114  -1.6627
    -1.5671  -0.7891  -0.4934  -0.4885  -0.4345  -0.3513  -0.3329  -0.1653
    -0.1382   0.0512   0.1846   0.2399   0.2454   0.5405   0.5992   0.8202
     0.9282   0.9554   1.0544   1.1127   1.1203   1.1987   1.2626   1.4048
     1.4613   1.4771   1.5262   1.5569   1.6050   1.6572   1.6903   1.7527
     1.7643   1.9250   1.9562   1.9680   2.0070   2.0271   2.0444   2.1835
     2.2504   2.2932   2.3363   2.5181   2.5509   2.5749   2.6105   2.6185
     2.6570   2.6848   2.7454   2.7880   2.8053   2.8629   2.9116   2.9362
     2.9364   2.9634   3.0371   3.0451   3.0968   3.2154   3.2291   3.2317
     3.3001   3.3017   3.3051   3.3120   3.3378   3.3388   3.3793   3.3833
     3.4952   3.5017   3.5084   3.5404   3.6003   3.6530   3.6629   3.6982
     3.7383   3.7409   3.7956   3.8439   3.8581   3.8770   3.8992   3.9687
     3.9736   3.9926   4.0003   4.0522   4.0965   4.0983   4.1466   4.1491
     4.2030   4.2622   4.3014   4.3165   4.3281   4.3502   4.3560   4.3772
     4.4029   4.4639   4.4729   4.5362   4.5843   4.5843   4.5971   4.6229
     4.6513   4.6698   4.6729   4.7001   4.7161   4.7499   4.7519   4.8121
     4.8123   4.8744   4.8758   4.8831   4.9280   4.9449   4.9483   4.9620
     4.9906   5.0456   5.0604   5.0646   5.1185   5.1308   5.1474   5.1897
     5.2340   5.2413   5.2461   5.2894   5.3032   5.3117   5.3305   5.3687
     5.4166   5.4247   5.4593   5.4710   5.4829   5.4885   5.5176   5.6077
     5.6182   5.6282   5.6378   5.6401   5.6656   5.6829   5.7242   5.7440
     5.7638   5.7737   5.7749   5.7825   5.7950   5.8521   5.8783   5.8848
     5.9021   5.9199   5.9462   5.9684   5.9862   5.9930   6.0294   6.0539
     6.0550   6.0666   6.1297   6.1409   6.1563   6.1712   6.1829   6.2070
     6.2239   6.2455   6.2683   6.2799   6.2995   6.3336   6.3368   6.3840
     6.3974   6.3982   6.4448   6.4567   6.4667   6.4914   6.4985   6.5193
     6.5196   6.5647   6.5928   6.5998   6.6028   6.6035   6.6178   6.6433
     6.6497   6.6745   6.6756   6.6920   6.7588   6.7727   6.7741   6.7829
     6.8088   6.8247   6.8255   6.8440   6.8736   6.8788   6.8985   6.9359
     6.9533   6.9697   6.9754   6.9856   7.0047   7.0216   7.0233   7.0288
     7.0591   7.0699   7.0880   7.0973   7.1029   7.1587   7.1590   7.1684
     7.2168   7.2338   7.2656   7.2954   7.3019   7.3253   7.3417   7.3476
     7.3492   7.3687   7.4024   7.4346   7.4442   7.4610   7.4622   7.4811
     7.4891   7.4962   7.5250   7.5439   7.5705   7.5994   7.6007   7.6026
     7.6202   7.6616   7.6659   7.6991   7.7072   7.7575   7.7634   7.7835
     7.7976   7.8030   7.8191   7.8214   7.8229   7.8358   7.8796   7.8907
     7.8999   7.9098   7.9132   7.9340   7.9413   7.9571   7.9598   7.9830
     8.0104   8.0402   8.0708   8.0760

          k = 0.0000 0.0000 0.0094 (147291 PWs)   bands (ev):

   -21.2879 -21.0560 -20.9614 -20.7933 -20.7349 -20.5577 -20.5021 -20.2744
   -20.0108 -19.9381 -19.8403 -19.7415 -19.6197 -19.4369 -19.3159 -19.2315
   -19.2303 -19.0858 -18.8399 -18.7824 -18.7066 -18.2650 -18.2590 -18.1527
   -18.1312 -18.0234 -17.8908 -17.7844 -17.5768 -17.5313 -17.3277 -17.2683
   -17.1493 -17.1372 -16.9449 -16.8643 -16.8442 -16.7053 -16.5313 -16.3958
   -16.3238 -16.2021 -16.0981 -16.0300 -15.9387 -15.9375 -15.6989 -15.0737
   -15.0664 -14.9507 -14.7217 -14.7142 -14.6034 -14.5115 -14.4719 -14.4126
   -14.3222 -14.2293 -14.0429 -13.9138 -13.8698 -13.6246 -13.4567 -13.4405
   -13.3746 -13.2230 -13.1216 -12.9430 -12.8808 -12.7375 -12.5880 -12.5189
   -12.3144 -12.2587 -12.1896 -12.1169 -12.0815 -11.9727 -11.6737 -11.5957
   -11.5016 -11.4538 -11.3926 -11.2853 -11.1050 -11.0984 -10.7916 -10.7865
   -10.7603 -10.5615 -10.5421 -10.5387 -10.4826 -10.3459 -10.3300 -10.1960
   -10.1214 -10.0820 -10.0718  -9.7895  -9.7321  -9.6209  -9.5567  -9.5054
    -9.3945  -9.3840  -9.3601  -9.2644  -9.2127  -9.1199  -9.1156  -9.0950
    -9.0164  -8.9864  -8.8847  -8.7878  -8.7867  -8.7802  -8.7518  -8.7189
    -8.7036  -8.6538  -8.5830  -8.5379  -8.5073  -8.4504  -8.4316  -8.4169
    -8.3942  -8.3568  -8.2909  -8.2564  -8.2388  -8.2292  -8.1763  -8.0752
    -7.9866  -7.9552  -7.9505  -7.9464  -7.8838  -7.8218  -7.8140  -7.7317
    -7.6572  -7.6061  -7.5634  -7.5619  -7.4746  -7.4614  -7.4326  -7.4179
    -7.2907  -7.2369  -7.2331  -7.2164  -7.1202  -7.0518  -7.0233  -7.0012
    -6.8390  -6.8333  -6.7834  -6.6566  -6.5966  -6.5462  -6.5190  -6.5027
    -6.4136  -6.4018  -6.2049  -6.2012  -6.1668  -5.9805  -5.9264  -5.9229
    -5.8213  -5.8192  -5.7413  -5.7202  -5.7046  -5.5979  -5.5798  -5.4091
    -5.3300  -5.3096  -5.2405  -5.1725  -4.9919  -4.9401  -4.8132  -4.7319
    -4.6262  -4.5530  -4.5453  -4.4178  -4.2678  -4.2271  -3.9885  -3.9499
    -3.8727  -3.7308  -3.6343  -3.6291  -3.3576  -2.4433  -2.3352  -1.6406
    -1.5358  -0.7933  -0.4832  -0.4809  -0.4326  -0.3482  -0.3296  -0.1567
    -0.1509   0.0299   0.1670   0.2412   0.2551   0.5539   0.6365   0.8178
     0.9042   0.9252   1.0574   1.0679   1.1232   1.1549   1.2648   1.3897
     1.4603   1.4979   1.5203   1.5653   1.6080   1.6666   1.7042   1.7655
     1.7753   1.9340   1.9509   1.9754   2.0165   2.0547   2.0636   2.1837
     2.2736   2.2836   2.3234   2.5071   2.5538   2.5779   2.6168   2.6360
     2.6822   2.6907   2.7140   2.7546   2.8230   2.8659   2.8901   2.9195
     2.9275   2.9623   3.0183   3.0337   3.0692   3.2104   3.2196   3.2398
     3.2848   3.3081   3.3153   3.3261   3.3424   3.3603   3.3825   3.4008
     3.5051   3.5115   3.5313   3.5626   3.6271   3.6446   3.6545   3.6950
     3.7260   3.7413   3.7674   3.8317   3.8515   3.8570   3.9418   3.9545
     3.9894   3.9901   3.9954   4.0724   4.0813   4.1019   4.1085   4.1694
     4.2076   4.2674   4.2962   4.3185   4.3355   4.3402   4.3469   4.3992
     4.4285   4.4303   4.4681   4.5387   4.5447   4.5510   4.5708   4.6356
     4.6565   4.6672   4.6699   4.6808   4.7231   4.7574   4.7644   4.8068
     4.8475   4.8486   4.8740   4.8817   4.9260   4.9500   4.9647   4.9897
     5.0059   5.0251   5.0505   5.0559   5.0853   5.1315   5.1871   5.2067
     5.2108   5.2492   5.2690   5.3007   5.3252   5.3338   5.3367   5.3578
     5.4124   5.4187   5.4471   5.4497   5.4694   5.4855   5.5266   5.6046
     5.6121   5.6298   5.6386   5.6453   5.6604   5.6689   5.7308   5.7410
     5.7505   5.7738   5.7825   5.7879   5.8054   5.8438   5.8775   5.9016
     5.9235   5.9269   5.9463   5.9509   5.9682   6.0119   6.0120   6.0228
     6.0440   6.0911   6.1295   6.1362   6.1439   6.1586   6.1793   6.2115
     6.2283   6.2459   6.2708   6.2762   6.3081   6.3606   6.3760   6.3897
     6.4022   6.4107   6.4141   6.4636   6.4687   6.4732   6.5309   6.5403
     6.5481   6.5605   6.5775   6.5804   6.6096   6.6165   6.6296   6.6495
     6.6497   6.6580   6.6716   6.6828   6.7564   6.7668   6.7803   6.7920
     6.8085   6.8091   6.8205   6.8370   6.8538   6.8934   6.9182   6.9191
     6.9409   6.9481   6.9609   6.9935   6.9979   7.0000   7.0207   7.0254
     7.0392   7.0629   7.0980   7.1018   7.1140   7.1285   7.1475   7.1589
     7.2189   7.2292   7.2643   7.2979   7.3018   7.3135   7.3420   7.3443
     7.3594   7.3725   7.4037   7.4228   7.4468   7.4514   7.4664   7.4696
     7.4922   7.5160   7.5523   7.5572   7.5690   7.5805   7.6003   7.6227
     7.6430   7.6442   7.6664   7.7138   7.7336   7.7537   7.7872   7.7947
     7.7985   7.8069   7.8194   7.8341   7.8393   7.8669   7.8739   7.8914
     7.8928   7.9072   7.9242   7.9258   7.9284   7.9432   7.9692   7.9771
     8.0497   8.0573   8.0737   8.0785

          k = 0.0000 0.0000 0.0106 (147327 PWs)   bands (ev):

   -21.2871 -21.0538 -20.9679 -20.8045 -20.7244 -20.5414 -20.5020 -20.2813
   -20.0108 -19.9378 -19.8642 -19.7443 -19.6258 -19.4151 -19.2993 -19.2444
   -19.2116 -19.0868 -18.8326 -18.7702 -18.7272 -18.2934 -18.2437 -18.1821
   -18.1318 -18.0327 -17.8913 -17.7949 -17.5470 -17.4991 -17.3112 -17.2561
   -17.1618 -17.1523 -16.9481 -16.8661 -16.8566 -16.6863 -16.5144 -16.4149
   -16.2990 -16.2167 -16.1068 -16.0338 -15.9625 -15.9419 -15.7036 -15.1024
   -15.0813 -14.9380 -14.6934 -14.6866 -14.6062 -14.4954 -14.4735 -14.3929
   -14.3102 -14.2386 -14.0243 -13.9324 -13.8736 -13.6258 -13.4500 -13.4249
   -13.3856 -13.2361 -13.1334 -12.9919 -12.9270 -12.7440 -12.5740 -12.5068
   -12.3330 -12.2658 -12.1736 -12.1040 -12.0336 -11.9289 -11.6598 -11.5979
   -11.5226 -11.4427 -11.3790 -11.2866 -11.1282 -11.1257 -10.8140 -10.8131
   -10.7412 -10.5803 -10.5179 -10.5174 -10.4684 -10.3662 -10.3206 -10.1803
   -10.1415 -10.0744 -10.0708  -9.7843  -9.7296  -9.6150  -9.5400  -9.5267
    -9.4181  -9.3713  -9.3590  -9.2628  -9.1989  -9.1367  -9.1145  -9.0923
    -9.0137  -8.9946  -8.8854  -8.8141  -8.8072  -8.8004  -8.7670  -8.7060
    -8.6946  -8.6722  -8.5896  -8.5292  -8.4877  -8.4500  -8.4447  -8.4024
    -8.3736  -8.3548  -8.2871  -8.2539  -8.2150  -8.2103  -8.1848  -8.0477
    -8.0005  -7.9713  -7.9348  -7.9326  -7.8834  -7.8329  -7.8130  -7.7314
    -7.6857  -7.6017  -7.5818  -7.5689  -7.4780  -7.4702  -7.4243  -7.3974
    -7.2939  -7.2416  -7.2229  -7.1949  -7.0993  -7.0314  -7.0166  -6.9959
    -6.8614  -6.8415  -6.7935  -6.6872  -6.6039  -6.5373  -6.5209  -6.4871
    -6.4306  -6.4277  -6.2232  -6.1857  -6.1478  -5.9575  -5.9494  -5.9072
    -5.8116  -5.8023  -5.7808  -5.7233  -5.7174  -5.6025  -5.5797  -5.4271
    -5.3340  -5.3142  -5.2068  -5.1609  -4.9602  -4.9291  -4.8264  -4.7342
    -4.6238  -4.5751  -4.5456  -4.4044  -4.2657  -4.2314  -4.0112  -3.9365
    -3.8686  -3.7358  -3.6330  -3.6241  -3.3466  -2.4770  -2.3603  -1.6176
    -1.5029  -0.7988  -0.4752  -0.4730  -0.4257  -0.3457  -0.3247  -0.1751
    -0.1370   0.0078   0.1499   0.2428   0.2675   0.5658   0.6738   0.8141
     0.8765   0.8968   1.0244   1.0607   1.1138   1.1266   1.2673   1.3748
     1.4439   1.5139   1.5348   1.5736   1.6114   1.6726   1.7132   1.7728
     1.7982   1.9342   1.9424   1.9493   2.0664   2.0702   2.1036   2.1835
     2.2752   2.2972   2.3115   2.4951   2.5568   2.5813   2.6223   2.6525
     2.6775   2.6846   2.7211   2.7260   2.8416   2.8693   2.8694   2.9029
     2.9165   2.9583   3.0000   3.0256   3.0454   3.1939   3.2057   3.2537
     3.2640   3.3016   3.3112   3.3429   3.3754   3.3826   3.3870   3.4323
     3.5085   3.5244   3.5544   3.5850   3.6190   3.6262   3.6586   3.7104
     3.7228   3.7376   3.7447   3.8056   3.8404   3.8605   3.9298   3.9848
     3.9908   3.9988   4.0026   4.0647   4.0751   4.0937   4.1066   4.1901
     4.2129   4.2327   4.3137   4.3205   4.3218   4.3512   4.3524   4.3962
     4.4216   4.4359   4.4834   4.5046   4.5160   4.5406   4.5431   4.6347
     4.6403   4.6649   4.6687   4.6911   4.7324   4.7591   4.7797   4.7998
     4.8185   4.8669   4.8741   4.8827   4.9170   4.9787   4.9801   5.0024
     5.0163   5.0264   5.0402   5.0524   5.0584   5.1320   5.1723   5.2234
     5.2270   5.2527   5.2854   5.3144   5.3178   5.3474   5.3551   5.3817
     5.4070   5.4118   5.4145   5.4574   5.4626   5.4869   5.5344   5.5777
     5.5944   5.6164   5.6259   5.6408   5.6595   5.7099   5.7154   5.7202
     5.7698   5.7731   5.7738   5.8125   5.8231   5.8341   5.8910   5.9156
     5.9162   5.9257   5.9465   5.9539   5.9581   5.9713   6.0148   6.0309
     6.0456   6.0898   6.1067   6.1456   6.1549   6.1556   6.1780   6.2117
     6.2329   6.2412   6.2459   6.2861   6.3317   6.3765   6.3890   6.4034
     6.4085   6.4149   6.4281   6.4482   6.4641   6.4699   6.5340   6.5457
     6.5544   6.5571   6.5601   6.6031   6.6184   6.6279   6.6331   6.6497
     6.6554   6.6705   6.6748   6.6908   6.7468   6.7544   6.7863   6.7874
     6.8005   6.8059   6.8102   6.8166   6.8626   6.8800   6.9068   6.9153
     6.9234   6.9347   6.9603   6.9717   6.9809   6.9900   7.0054   7.0296
     7.0599   7.0627   7.0946   7.0982   7.1261   7.1376   7.1436   7.1492
     7.2148   7.2233   7.2593   7.2651   7.3040   7.3080   7.3501   7.3505
     7.3737   7.3813   7.3846   7.4088   7.4503   7.4504   7.4531   7.4703
     7.5110   7.5196   7.5524   7.5630   7.5800   7.5921   7.6214   7.6259
     7.6277   7.6656   7.6800   7.7198   7.7433   7.7552   7.7714   7.8062
     7.8136   7.8214   7.8251   7.8414   7.8487   7.8641   7.9010   7.9017
     7.9054   7.9055   7.9126   7.9151   7.9233   7.9420   7.9672   7.9873
     8.0581   8.0678   8.0723   8.0784

          k = 0.0000 0.0000 0.0117 (147325 PWs)   bands (ev):

   -21.2862 -21.0515 -20.9743 -20.8154 -20.7135 -20.5247 -20.5019 -20.2887
   -20.0112 -19.9380 -19.8874 -19.7464 -19.6319 -19.3938 -19.2826 -19.2572
   -19.1911 -19.0869 -18.8279 -18.7549 -18.7480 -18.3224 -18.2342 -18.2143
   -18.1232 -18.0437 -17.8916 -17.8042 -17.5164 -17.4692 -17.2956 -17.2439
   -17.1841 -17.1553 -16.9490 -16.8696 -16.8681 -16.6675 -16.4969 -16.4344
   -16.2737 -16.2321 -16.1194 -16.0378 -15.9848 -15.9509 -15.7033 -15.1387
   -15.0898 -14.9248 -14.6748 -14.6581 -14.5976 -14.4823 -14.4740 -14.3702
   -14.2978 -14.2489 -14.0050 -13.9492 -13.8768 -13.6276 -13.4611 -13.4011
   -13.3889 -13.2530 -13.1470 -13.0412 -12.9681 -12.7496 -12.5601 -12.4955
   -12.3527 -12.2720 -12.1560 -12.0939 -11.9866 -11.8831 -11.6489 -11.5955
   -11.5434 -11.4320 -11.3658 -11.2892 -11.1500 -11.1499 -10.8404 -10.8375
   -10.7212 -10.6005 -10.5003 -10.4955 -10.4522 -10.3857 -10.3113 -10.1748
   -10.1738 -10.0595 -10.0492  -9.7829  -9.7314  -9.6061  -9.5491  -9.5217
    -9.4367  -9.3616  -9.3577  -9.2614  -9.1845  -9.1609  -9.1091  -9.0894
    -9.0160  -9.0028  -8.8803  -8.8436  -8.8290  -8.8137  -8.7954  -8.6925
    -8.6923  -8.6711  -8.5942  -8.5200  -8.4676  -8.4583  -8.4497  -8.3896
    -8.3581  -8.3507  -8.2847  -8.2512  -8.1944  -8.1937  -8.1883  -8.0231
    -8.0153  -7.9861  -7.9162  -7.9135  -7.8836  -7.8445  -7.8121  -7.7318
    -7.7139  -7.6027  -7.5997  -7.5732  -7.4830  -7.4790  -7.4112  -7.3756
    -7.2986  -7.2461  -7.2130  -7.1738  -7.0792  -7.0312  -7.0104  -6.9670
    -6.8906  -6.8428  -6.8068  -6.7153  -6.6137  -6.5330  -6.5242  -6.4666
    -6.4536  -6.4445  -6.2459  -6.1696  -6.1253  -5.9777  -5.9349  -5.8919
    -5.8285  -5.7919  -5.7839  -5.7298  -5.7265  -5.6075  -5.5793  -5.4445
    -5.3383  -5.3192  -5.1732  -5.1517  -4.9286  -4.9198  -4.8390  -4.7358
    -4.6199  -4.5965  -4.5460  -4.3920  -4.2624  -4.2353  -4.0331  -3.9353
    -3.8581  -3.7375  -3.6356  -3.6179  -3.3328  -2.5119  -2.3862  -1.5940
    -1.4690  -0.8056  -0.4713  -0.4637  -0.4136  -0.3439  -0.3189  -0.1921
    -0.1239  -0.0142   0.1341   0.2447   0.2819   0.5751   0.7112   0.8083
     0.8452   0.8710   0.9830   1.0645   1.0759   1.1304   1.2699   1.3603
     1.4279   1.5069   1.5717   1.5813   1.6152   1.6761   1.7168   1.7865
     1.8215   1.9178   1.9216   1.9504   2.0793   2.1245   2.1461   2.1827
     2.2683   2.3010   2.3212   2.4827   2.5598   2.5851   2.6278   2.6418
     2.6698   2.6831   2.6876   2.7620   2.8505   2.8596   2.8728   2.8871
     2.9037   2.9495   2.9821   3.0205   3.0286   3.1775   3.1912   3.2213
     3.2861   3.2868   3.3145   3.3596   3.3939   3.4040   3.4098   3.4678
     3.5117   3.5333   3.5780   3.5880   3.6071   3.6077   3.6835   3.6940
     3.7071   3.7415   3.7485   3.7909   3.8275   3.8666   3.9096   3.9949
     3.9949   4.0027   4.0281   4.0486   4.0632   4.1110   4.1158   4.1982
     4.2108   4.2182   4.3053   4.3062   4.3256   4.3601   4.3622   4.3785
     4.4345   4.4442   4.4653   4.4823   4.5089   4.5095   4.5468   4.6163
     4.6245   4.6638   4.6722   4.7132   4.7395   4.7544   4.7893   4.7907
     4.7930   4.8589   4.8649   4.9077   4.9197   4.9692   5.0123   5.0137
     5.0159   5.0299   5.0463   5.0509   5.0631   5.1250   5.1456   5.2303
     5.2563   5.2668   5.2784   5.2850   5.3293   5.3726   5.3822   5.3898
     5.3922   5.4180   5.4226   5.4491   5.4812   5.4877   5.5180   5.5452
     5.5897   5.6041   5.6207   5.6301   5.6592   5.6845   5.7134   5.7505
     5.7531   5.7737   5.8081   5.8196   5.8366   5.8454   5.8834   5.9012
     5.9141   5.9171   5.9273   5.9511   5.9705   5.9822   6.0177   6.0493
     6.0496   6.0505   6.1102   6.1453   6.1541   6.1683   6.1948   6.2089
     6.2127   6.2378   6.2466   6.2967   6.3361   6.3482   6.4068   6.4151
     6.4163   6.4289   6.4471   6.4521   6.4641   6.4687   6.5016   6.5454
     6.5498   6.5596   6.5622   6.6093   6.6290   6.6371   6.6509   6.6624
     6.6657   6.6720   6.6920   6.7099   6.7387   6.7534   6.7588   6.7645
     6.7964   6.8021   6.8206   6.8277   6.8524   6.8677   6.8680   6.8852
     6.9350   6.9395   6.9419   6.9474   6.9476   6.9940   7.0155   7.0343
     7.0506   7.0648   7.0918   7.1173   7.1291   7.1325   7.1558   7.1721
     7.2059   7.2131   7.2214   7.2604   7.3028   7.3170   7.3381   7.3597
     7.3646   7.3845   7.3877   7.4176   7.4345   7.4406   7.4616   7.4732
     7.4841   7.5407   7.5608   7.5812   7.5919   7.6060   7.6074   7.6173
     7.6571   7.6772   7.6976   7.7344   7.7380   7.7534   7.7582   7.7967
     7.8307   7.8316   7.8324   7.8497   7.8586   7.8762   7.8843   7.8928
     7.9042   7.9091   7.9240   7.9279   7.9468   7.9511   7.9611   8.0095
     8.0531   8.0587   8.0657   8.0669

          k = 0.0000 0.0000 0.0129 (147299 PWs)   bands (ev):

   -21.2852 -21.0489 -20.9806 -20.8261 -20.7023 -20.5077 -20.5020 -20.2965
   -20.0121 -19.9401 -19.9085 -19.7476 -19.6380 -19.3729 -19.2753 -19.2605
   -19.1692 -19.0859 -18.8250 -18.7690 -18.7375 -18.3517 -18.2594 -18.2149
   -18.1111 -18.0563 -17.8917 -17.8122 -17.4853 -17.4423 -17.2815 -17.2402
   -17.1948 -17.1582 -16.9478 -16.8831 -16.8703 -16.6492 -16.4791 -16.4536
   -16.2489 -16.2483 -16.1365 -16.0422 -16.0026 -15.9652 -15.6983 -15.1751
   -15.0989 -14.9113 -14.6709 -14.6295 -14.5727 -14.4732 -14.4715 -14.3455
   -14.2858 -14.2592 -13.9854 -13.9639 -13.8788 -13.6299 -13.4737 -13.4099
   -13.3599 -13.2735 -13.1653 -13.0902 -13.0010 -12.7548 -12.5474 -12.4855
   -12.3721 -12.2766 -12.1367 -12.0853 -11.9412 -11.8373 -11.6450 -11.5842
   -11.5634 -11.4225 -11.3544 -11.2934 -11.1698 -11.1694 -10.8684 -10.8606
   -10.7032 -10.6201 -10.4937 -10.4733 -10.4344 -10.4005 -10.3023 -10.2089
   -10.1732 -10.0383 -10.0206  -9.7852  -9.7381  -9.5944  -9.5731  -9.5020
    -9.4488  -9.3564  -9.3547  -9.2601  -9.1870  -9.1711  -9.1040  -9.0861
    -9.0224  -9.0109  -8.8759  -8.8723  -8.8484  -8.8267  -8.8206  -8.7125
    -8.6787  -8.6454  -8.5980  -8.5103  -8.4721  -8.4495  -8.4472  -8.3789
    -8.3560  -8.3364  -8.2821  -8.2482  -8.2031  -8.1817  -8.1608  -8.0297
    -8.0157  -7.9826  -7.8955  -7.8918  -7.8846  -7.8564  -7.8116  -7.7414
    -7.7331  -7.6244  -7.6000  -7.5760  -7.4877  -7.4870  -7.3959  -7.3529
    -7.3045  -7.2503  -7.2036  -7.1530  -7.0670  -7.0381  -6.9891  -6.9366
    -6.9210  -6.8429  -6.8247  -6.7395  -6.6261  -6.5309  -6.5295  -6.4795
    -6.4542  -6.4437  -6.2698  -6.1532  -6.1026  -6.0071  -5.9131  -5.8811
    -5.8681  -5.7760  -5.7666  -5.7422  -5.7294  -5.6129  -5.5783  -5.4609
    -5.3430  -5.3247  -5.1441  -5.1396  -4.9124  -4.9049  -4.8438  -4.7367
    -4.6169  -4.6147  -4.5465  -4.3814  -4.2583  -4.2381  -4.0541  -3.9430
    -3.8472  -3.7343  -3.6419  -3.6100  -3.3165  -2.5477  -2.4127  -1.5700
    -1.4342  -0.8138  -0.4680  -0.4561  -0.3976  -0.3427  -0.3136  -0.2054
    -0.1125  -0.0356   0.1200   0.2470   0.2974   0.5809   0.7485   0.7990
     0.8103   0.8488   0.9454   1.0414   1.0686   1.1346   1.2726   1.3462
     1.4123   1.4995   1.5877   1.6075   1.6195   1.6786   1.7171   1.8047
     1.8452   1.8942   1.9019   1.9578   2.0933   2.1760   2.1811   2.1905
     2.2649   2.2921   2.3455   2.4703   2.5624   2.5893   2.6112   2.6337
     2.6542   2.6585   2.7025   2.7984   2.8348   2.8695   2.8744   2.8788
     2.8898   2.9372   2.9646   3.0178   3.0202   3.1613   3.1765   3.1873
     3.2705   3.3107   3.3178   3.3730   3.4055   3.4238   3.4415   3.5048
     3.5136   3.5380   3.5597   3.5892   3.6019   3.6276   3.6771   3.6783
     3.7081   3.7305   3.7527   3.7941   3.8304   3.8584   3.9076   3.9640
     4.0000   4.0071   4.0328   4.0717   4.0757   4.1153   4.1385   4.1642
     4.2236   4.2310   4.2894   4.2940   4.3293   4.3298   4.3651   4.3916
     4.4282   4.4487   4.4491   4.4668   4.4768   4.5267   4.5510   4.6032
     4.6090   4.6644   4.6728   4.7335   4.7358   4.7437   4.7727   4.7838
     4.8027   4.8556   4.8569   4.8984   4.9271   4.9835   4.9837   5.0205
     5.0341   5.0435   5.0707   5.0724   5.0800   5.0954   5.1410   5.2353
     5.2373   5.2607   5.2787   5.3028   5.3371   5.3620   5.3829   5.3899
     5.4127   5.4383   5.4555   5.4590   5.4626   5.4958   5.5030   5.5372
     5.5796   5.5915   5.6152   5.6245   5.6526   5.6566   5.7086   5.7405
     5.7733   5.7896   5.8096   5.8424   5.8456   5.8520   5.8712   5.8842
     5.8896   5.9044   5.9331   5.9557   5.9827   6.0112   6.0243   6.0277
     6.0533   6.0679   6.1089   6.1390   6.1573   6.1635   6.1887   6.2044
     6.2309   6.2432   6.2488   6.2943   6.3076   6.3600   6.3796   6.4196
     6.4219   6.4325   6.4367   6.4735   6.4818   6.4884   6.4918   6.5400
     6.5517   6.5604   6.5671   6.5942   6.6401   6.6436   6.6576   6.6593
     6.6771   6.6983   6.7004   6.7281   6.7300   6.7310   6.7544   6.7689
     6.7960   6.8077   6.8264   6.8277   6.8348   6.8422   6.8564   6.8670
     6.9038   6.9145   6.9260   6.9427   6.9476   7.0045   7.0073   7.0395
     7.0653   7.0779   7.0870   7.1027   7.1231   7.1323   7.1642   7.1937
     7.1996   7.2042   7.2231   7.2483   7.3024   7.3102   7.3291   7.3656
     7.3756   7.3845   7.3912   7.3975   7.4288   7.4457   7.4605   7.4750
     7.4781   7.5566   7.5689   7.5761   7.5885   7.5948   7.6215   7.6324
     7.6739   7.6954   7.7042   7.7266   7.7360   7.7617   7.7623   7.7916
     7.8274   7.8420   7.8426   7.8556   7.8661   7.8703   7.8787   7.8869
     7.8943   7.9164   7.9299   7.9343   7.9672   7.9819   7.9867   8.0139
     8.0333   8.0475   8.0647   8.0704

          k = 0.0000 0.0000 0.0141 (147253 PWs)   bands (ev):

   -21.2843 -21.0461 -20.9867 -20.8364 -20.6908 -20.5021 -20.4903 -20.3046
   -20.0135 -19.9494 -19.9222 -19.7479 -19.6440 -19.3525 -19.2871 -19.2448
   -19.1459 -19.0838 -18.8231 -18.7900 -18.7189 -18.3811 -18.2956 -18.2070
   -18.0965 -18.0703 -17.8913 -17.8189 -17.4538 -17.4191 -17.2694 -17.2545
   -17.1835 -17.1607 -16.9444 -16.8967 -16.8726 -16.6320 -16.4717 -16.4613
   -16.2653 -16.2276 -16.1561 -16.0475 -16.0145 -15.9837 -15.6897 -15.2116
   -15.1087 -14.8973 -14.6755 -14.6023 -14.5383 -14.4704 -14.4617 -14.3197
   -14.2802 -14.2635 -13.9765 -13.9663 -13.8788 -13.6330 -13.4878 -13.4207
   -13.3300 -13.2975 -13.1909 -13.1375 -13.0236 -12.7596 -12.5375 -12.4774
   -12.3894 -12.2792 -12.1161 -12.0774 -11.8982 -11.7930 -11.6473 -11.5816
   -11.5642 -11.4152 -11.3467 -11.2989 -11.1856 -11.1832 -10.8968 -10.8832
   -10.6934 -10.6333 -10.5015 -10.4510 -10.4153 -10.4106 -10.2930 -10.2384
   -10.1750 -10.0135  -9.9885  -9.7908  -9.7494  -9.5987  -9.5802  -9.4813
    -9.4542  -9.3551  -9.3501  -9.2589  -9.2141  -9.1616  -9.0988  -9.0826
    -9.0315  -9.0187  -8.8992  -8.8889  -8.8651  -8.8393  -8.8256  -8.7318
    -8.6647  -8.6198  -8.6016  -8.5002  -8.4860  -8.4492  -8.4265  -8.3708
    -8.3575  -8.3221  -8.2778  -8.2449  -8.2128  -8.1729  -8.1346  -8.0423
    -8.0245  -7.9612  -7.8863  -7.8739  -7.8677  -7.8676  -7.8127  -7.7672
    -7.7352  -7.6466  -7.6020  -7.5773  -7.4962  -7.4893  -7.3797  -7.3294
    -7.3114  -7.2543  -7.1947  -7.1324  -7.0753  -7.0249  -6.9678  -6.9522
    -6.9050  -6.8478  -6.8417  -6.7586  -6.6413  -6.5368  -6.5297  -6.5052
    -6.4597  -6.4196  -6.2941  -6.1368  -6.0804  -6.0372  -5.9098  -5.8920
    -5.8728  -5.7558  -5.7552  -5.7528  -5.7297  -5.6186  -5.5766  -5.4763
    -5.3480  -5.3306  -5.1378  -5.1063  -4.9069  -4.9044  -4.8262  -4.7368
    -4.6359  -4.6082  -4.5471  -4.3736  -4.2536  -4.2392  -4.0738  -3.9557
    -3.8408  -3.7254  -3.6514  -3.5996  -3.2981  -2.5841  -2.4396  -1.5460
    -1.3989  -0.8233  -0.4645  -0.4512  -0.3787  -0.3421  -0.3111  -0.2116
    -0.1033  -0.0560   0.1084   0.2497   0.3136   0.5819   0.7721   0.7853
     0.7858   0.8296   0.9138   1.0104   1.0731   1.1392   1.2750   1.3330
     1.3971   1.4917   1.5921   1.6241   1.6391   1.6840   1.7160   1.8254
     1.8682   1.8693   1.8864   1.9650   2.1081   2.1785   2.2150   2.2360
     2.2742   2.2852   2.3703   2.4580   2.5639   2.5792   2.5939   2.6211
     2.6399   2.6438   2.7236   2.8228   2.8349   2.8549   2.8753   2.8777
     2.8827   2.9315   2.9479   3.0169   3.0184   3.1443   3.1543   3.1619
     3.2553   3.3212   3.3351   3.3819   3.4224   3.4402   3.4637   3.5114
     3.5385   3.5425   3.5431   3.5714   3.6261   3.6379   3.6486   3.6716
     3.7072   3.7347   3.7574   3.7858   3.8404   3.8596   3.9200   3.9269
     4.0062   4.0121   4.0174   4.0962   4.1152   4.1196   4.1310   4.1615
     4.2291   4.2492   4.2710   4.2828   4.3000   4.3344   4.3595   4.3866
     4.3999   4.4156   4.4447   4.4820   4.4891   4.5198   4.5555   4.5940
     4.6111   4.6632   4.6672   4.6997   4.7482   4.7583   4.7663   4.7832
     4.8082   4.8470   4.8613   4.8699   4.9349   4.9507   5.0134   5.0135
     5.0528   5.0606   5.0721   5.0852   5.0996   5.1139   5.1388   5.1997
     5.2405   5.2650   5.2705   5.3014   5.3498   5.3724   5.3756   5.3981
     5.4103   5.4126   5.4714   5.4838   5.4959   5.4967   5.5198   5.5285
     5.5636   5.5960   5.5961   5.6249   5.6336   5.6400   5.7043   5.7355
     5.7723   5.7905   5.8042   5.8368   5.8380   5.8609   5.8775   5.8841
     5.8958   5.8995   5.9372   5.9622   5.9694   6.0391   6.0401   6.0418
     6.0573   6.0862   6.1041   6.1294   6.1489   6.1622   6.1766   6.2003
     6.2490   6.2520   6.2525   6.2691   6.3189   6.3402   6.3700   6.3918
     6.4226   6.4303   6.4385   6.4892   6.4924   6.4934   6.5140   6.5486
     6.5543   6.5703   6.5707   6.5879   6.6078   6.6483   6.6736   6.6746
     6.6876   6.6908   6.6911   6.6957   6.7445   6.7582   6.7593   6.7834
     6.7855   6.7909   6.8068   6.8306   6.8454   6.8470   6.8504   6.8571
     6.8665   6.9051   6.9066   6.9321   6.9506   7.0125   7.0154   7.0452
     7.0560   7.0783   7.0905   7.1055   7.1164   7.1276   7.1357   7.1795
     7.2222   7.2248   7.2328   7.2521   7.2746   7.3209   7.3414   7.3617
     7.3697   7.3766   7.3856   7.3995   7.4175   7.4466   7.4712   7.4835
     7.4928   7.5532   7.5539   7.5588   7.5892   7.5947   7.6343   7.6630
     7.6731   7.7014   7.7067   7.7099   7.7379   7.7701   7.7875   7.8001
     7.8051   7.8285   7.8584   7.8588   7.8700   7.8750   7.8803   7.8806
     7.9076   7.9143   7.9237   7.9431   7.9737   7.9999   8.0056   8.0198
     8.0401   8.0578   8.0708   8.0751

          k = 0.0000 0.0000 0.0153 (147267 PWs)   bands (ev):

   -21.2833 -21.0431 -20.9926 -20.8464 -20.6792 -20.5023 -20.4727 -20.3130
   -20.0153 -19.9682 -19.9263 -19.7473 -19.6499 -19.3326 -19.3006 -19.2279
   -19.1212 -19.0805 -18.8218 -18.8109 -18.6995 -18.4105 -18.3324 -18.2005
   -18.0857 -18.0798 -17.8905 -17.8242 -17.4221 -17.4008 -17.2749 -17.2597
   -17.1624 -17.1613 -16.9393 -16.9100 -16.8747 -16.6167 -16.4875 -16.4435
   -16.2833 -16.2215 -16.1659 -16.0539 -16.0204 -16.0051 -15.6785 -15.2480
   -15.1188 -14.8830 -14.6831 -14.5782 -14.5020 -14.4646 -14.4504 -14.2938
   -14.2886 -14.2535 -13.9868 -13.9487 -13.8755 -13.6369 -13.5033 -13.4311
   -13.3249 -13.3046 -13.2232 -13.1798 -13.0359 -12.7641 -12.5332 -12.4717
   -12.4019 -12.2792 -12.0943 -12.0698 -11.8594 -11.7524 -11.6515 -11.5962
   -11.5383 -11.4120 -11.3442 -11.3044 -11.1980 -11.1883 -10.9256 -10.9051
   -10.7021 -10.6297 -10.5203 -10.4285 -10.4234 -10.3956 -10.2824 -10.2591
   -10.1773  -9.9860  -9.9555  -9.7990  -9.7648  -9.6250  -9.5640  -9.4598
    -9.4540  -9.3537  -9.3472  -9.2587  -9.2406  -9.1593  -9.0926  -9.0788
    -9.0424  -9.0262  -8.9236  -8.9187  -8.8786  -8.8516  -8.8121  -8.7488
    -8.6504  -8.6054  -8.5954  -8.4995  -8.4898  -8.4491  -8.4054  -8.3659
    -8.3611  -8.3103  -8.2702  -8.2412  -8.2229  -8.1680  -8.1144  -8.0489
    -8.0321  -7.9390  -7.8887  -7.8818  -7.8479  -7.8412  -7.8193  -7.7871
    -7.7387  -7.6690  -7.6046  -7.5772  -7.5044  -7.4901  -7.3632  -7.3189
    -7.3055  -7.2584  -7.1865  -7.1120  -7.0906  -7.0052  -6.9839  -6.9475
    -6.8751  -6.8723  -6.8391  -6.7729  -6.6590  -6.5450  -6.5307  -6.5289
    -6.4619  -6.3950  -6.3188  -6.1206  -6.0677  -6.0588  -5.9510  -5.8717
    -5.8675  -5.7690  -5.7488  -5.7340  -5.7213  -5.6245  -5.5736  -5.4902
    -5.3533  -5.3368  -5.1325  -5.0733  -4.9199  -4.9032  -4.7934  -4.7363
    -4.6535  -4.6008  -4.5478  -4.3693  -4.2486  -4.2381  -4.0916  -3.9718
[...]
    -7.6285  -7.5575  -7.5547  -7.5407  -7.5203  -7.4661  -7.3744  -7.3327
    -7.2995  -7.2507  -7.2102  -7.1814  -7.1248  -7.0586  -6.9377  -6.9060
    -6.8801  -6.8792  -6.7364  -6.7364  -6.6968  -6.5922  -6.5495  -6.5461
    -6.5198  -6.4479  -6.3210  -6.3162  -6.1744  -6.0109  -5.9277  -5.8979
    -5.8532  -5.8143  -5.7491  -5.6682  -5.6340  -5.6040  -5.5515  -5.4174
    -5.3998  -5.3963  -5.2030  -5.0545  -4.9255  -4.7753  -4.7470  -4.7267
    -4.6218  -4.5478  -4.4469  -4.3706  -4.2855  -4.2501  -4.1678  -4.0590
    -3.8758  -3.8257  -3.6539  -3.3506  -3.0949  -2.9290  -2.6780  -1.3486
    -1.0784  -0.9399  -0.6148  -0.3897  -0.3523  -0.2830  -0.2257  -0.2077
    -0.0568   0.0551   0.1163   0.2990   0.3158   0.3700   0.4722   0.5409
     0.7829   0.7933   0.8765   1.1395   1.1654   1.1978   1.2066   1.2664
     1.3296   1.4088   1.4143   1.6306   1.6921   1.7036   1.7538   1.7954
     2.0259   2.0434   2.0755   2.1109   2.1305   2.1829   2.2316   2.2538
     2.2925   2.2996   2.3046   2.4229   2.6253   2.6388   2.6479   2.6553
     2.6624   2.7203   2.7235   2.7332   2.7897   2.8096   2.8215   2.8240
     2.9514   2.9878   3.0133   3.0308   3.0526   3.0852   3.1090   3.1104
     3.1556   3.2123   3.2175   3.2693   3.3653   3.3974   3.4321   3.4467
     3.4852   3.5144   3.5920   3.5978   3.6576   3.6913   3.7549   3.7644
     3.8251   3.8288   3.8760   3.8803   3.8865   3.9283   3.9408   3.9637
     3.9973   4.0103   4.0505   4.0685   4.1305   4.1339   4.1373   4.1620
     4.1671   4.1967   4.2089   4.2170   4.2580   4.2777   4.2925   4.3373
     4.3585   4.3682   4.4023   4.4306   4.4627   4.5425   4.5654   4.5751
     4.6000   4.6176   4.6224   4.6750   4.6883   4.7222   4.7313   4.7559
     4.8170   4.8312   4.8330   4.8922   4.8978   4.9675   4.9949   5.0183
     5.0220   5.0693   5.0847   5.1426   5.1934   5.1946   5.2022   5.2221
     5.2572   5.2796   5.3066   5.3320   5.3328   5.3448   5.3687   5.3847
     5.3946   5.4016   5.4517   5.4831   5.4931   5.5069   5.5332   5.5377
     5.5699   5.5728   5.6165   5.6181   5.6764   5.7033   5.7073   5.7405
     5.7697   5.7720   5.8056   5.8318   5.8536   5.8559   5.8739   5.8875
     5.8906   5.9294   5.9467   5.9738   5.9899   6.0098   6.0763   6.1007
     6.1085   6.1094   6.1604   6.1730   6.1918   6.2291   6.2464   6.2481
     6.2720   6.2922   6.3004   6.3085   6.3127   6.3186   6.3297   6.3613
     6.3681   6.3794   6.3983   6.4023   6.4124   6.4177   6.4236   6.4747
     6.5162   6.5199   6.5277   6.5303   6.5762   6.5770   6.5970   6.6177
     6.6347   6.6726   6.6848   6.6892   6.6908   6.7101   6.7258   6.7289
     6.7298   6.7722   6.7791   6.8255   6.8256   6.8580   6.8671   6.9195
     6.9557   6.9840   6.9906   6.9980   7.0292   7.0668   7.0923   7.0980
     7.0996   7.1143   7.1262   7.1608   7.1674   7.1972   7.1994   7.2021
     7.2348   7.2542   7.2703   7.2725   7.2852   7.3080   7.3160   7.3348
     7.3414   7.3661   7.3879   7.4005   7.4298   7.4334   7.4364   7.4490
     7.4534   7.4616   7.5194   7.5531   7.5729   7.5737   7.5799   7.5951
     7.6229   7.6573   7.6692   7.6912   7.6963   7.7076   7.7225   7.7503
     7.7710   7.7848   7.8288   7.8358   7.8533   7.9025   7.9632   7.9730
     7.9763   7.9840   7.9972   8.0243   8.0245   8.0411   8.0443   8.0862
     8.0951   8.0990   8.1399   8.1476

          k = 0.0000 0.0000 0.0270 (147192 PWs)   bands (ev):

   -21.2755 -21.0292 -21.0121 -20.9169 -20.5742 -20.5184 -20.3836 -20.2834
   -20.1899 -20.0372 -19.9208 -19.7190 -19.6878 -19.3980 -19.1654 -19.1454
   -18.9950 -18.9718 -18.8226 -18.8107 -18.6891 -18.6620 -18.5210 -18.2457
   -18.1807 -17.9623 -17.8383 -17.8114 -17.5395 -17.2568 -17.2501 -17.1502
   -17.1202 -17.0433 -17.0122 -16.7813 -16.7717 -16.6456 -16.6027 -16.4842
   -16.3832 -16.3005 -16.2341 -16.1407 -16.0713 -15.8475 -15.5756 -15.5612
   -15.2088 -14.7477 -14.7440 -14.5309 -14.4744 -14.4277 -14.2350 -14.1593
   -14.1501 -13.9873 -13.8983 -13.8353 -13.7706 -13.7370 -13.7090 -13.6478
   -13.6341 -13.5417 -13.4815 -13.0087 -12.9428 -12.8256 -12.7406 -12.4967
   -12.3073 -12.2098 -11.9814 -11.8616 -11.8553 -11.8132 -11.6223 -11.4658
   -11.3664 -11.3405 -11.2710 -11.2304 -11.2221 -11.1154 -11.0524 -10.9931
   -10.9808 -10.8527 -10.7783 -10.4691 -10.3025 -10.2717 -10.1757 -10.0860
   -10.0828 -10.0098  -9.9564  -9.9557  -9.6210  -9.5489  -9.4663  -9.4448
    -9.4121  -9.3682  -9.3425  -9.3130  -9.2918  -9.2060  -9.2039  -9.1839
    -9.1661  -9.0906  -9.0731  -9.0370  -8.9409  -8.8557  -8.7452  -8.6170
    -8.5935  -8.5607  -8.5237  -8.4985  -8.4955  -8.4850  -8.4620  -8.3367
    -8.3100  -8.2743  -8.2447  -8.1997  -8.1779  -8.1400  -8.0723  -8.0606
    -8.0028  -7.9858  -7.9335  -7.9204  -7.8814  -7.8518  -7.7924  -7.7886
    -7.6155  -7.5568  -7.5376  -7.5249  -7.5203  -7.4392  -7.3773  -7.3695
    -7.3031  -7.2575  -7.2161  -7.1982  -7.1231  -7.0350  -6.9236  -6.9041
    -6.9037  -6.8830  -6.7517  -6.7259  -6.6728  -6.5938  -6.5713  -6.5182
    -6.5115  -6.4470  -6.3557  -6.3355  -6.1596  -6.0058  -5.9418  -5.8848
    -5.8529  -5.8239  -5.7447  -5.6696  -5.6328  -5.5977  -5.5531  -5.4025
    -5.4003  -5.3938  -5.2252  -5.0555  -4.9259  -4.7505  -4.7480  -4.7255
    -4.6427  -4.5471  -4.4107  -4.3623  -4.2974  -4.2735  -4.1748  -4.0464
    -3.8778  -3.8398  -3.6527  -3.3306  -3.0834  -2.9502  -2.6904  -1.3396
    -1.0605  -0.9466  -0.6307  -0.3832  -0.3522  -0.2764  -0.2294  -0.2171
    -0.0394   0.0944   0.1143   0.2724   0.2941   0.3656   0.4796   0.5240
     0.7837   0.7843   0.8781   1.1482   1.1873   1.1972   1.2155   1.2556
     1.3329   1.3793   1.4097   1.6286   1.7009   1.7033   1.7430   1.7973
     2.0312   2.0803   2.0900   2.1174   2.1586   2.1804   2.2223   2.2395
     2.2564   2.2747   2.2997   2.4283   2.6095   2.6623   2.6647   2.6699
     2.6739   2.7131   2.7253   2.7315   2.7822   2.7906   2.8230   2.8568
     2.9603   3.0024   3.0138   3.0280   3.0602   3.0607   3.0933   3.0985
     3.1487   3.2209   3.2430   3.2480   3.3416   3.3888   3.4322   3.4356
     3.4715   3.5094   3.5996   3.6253   3.6478   3.7090   3.7322   3.7729
     3.8341   3.8554   3.8613   3.8740   3.9067   3.9339   3.9702   3.9774
     3.9790   4.0207   4.0496   4.0750   4.1239   4.1264   4.1323   4.1554
     4.1653   4.1734   4.1776   4.2231   4.2391   4.2665   4.2994   4.3339
     4.3814   4.3934   4.4111   4.4518   4.4577   4.5116   4.5544   4.5890
     4.5977   4.6160   4.6332   4.6692   4.6775   4.6976   4.7393   4.7612
     4.8244   4.8253   4.8320   4.8689   4.8836   4.9712   5.0062   5.0409
     5.0494   5.0687   5.1091   5.1545   5.1759   5.1913   5.1920   5.1958
     5.2298   5.2585   5.3263   5.3369   5.3431   5.3709   5.3780   5.3789
     5.3841   5.4037   5.4406   5.4781   5.4787   5.4795   5.5431   5.5593
     5.5717   5.6017   5.6341   5.6379   5.6790   5.7005   5.7141   5.7281
     5.7378   5.7740   5.7912   5.8030   5.8575   5.8597   5.8751   5.8923
     5.9065   5.9138   5.9445   6.0112   6.0204   6.0331   6.0649   6.0791
     6.0927   6.1045   6.1578   6.1911   6.2016   6.2075   6.2247   6.2495
     6.2810   6.2877   6.3136   6.3139   6.3202   6.3272   6.3301   6.3640
     6.3687   6.3767   6.3933   6.3939   6.4021   6.4442   6.4448   6.4532
     6.4890   6.5201   6.5230   6.5412   6.5426   6.5726   6.6008   6.6171
     6.6329   6.6416   6.6825   6.6864   6.6925   6.7159   6.7260   6.7292
     6.7464   6.7686   6.7700   6.8120   6.8287   6.8496   6.8602   6.9277
     6.9505   6.9796   7.0206   7.0209   7.0386   7.0820   7.0858   7.0894
     7.1093   7.1362   7.1363   7.1599   7.1783   7.1806   7.2043   7.2181
     7.2283   7.2424   7.2694   7.2709   7.3143   7.3204   7.3208   7.3367
     7.3448   7.3534   7.3689   7.3893   7.3946   7.4229   7.4290   7.4548
     7.4763   7.4924   7.5065   7.5597   7.5671   7.5769   7.5906   7.5962
     7.6006   7.6371   7.6731   7.6907   7.6942   7.7009   7.7129   7.7439
     7.7595   7.7747   7.8115   7.8273   7.8436   7.9318   7.9571   7.9642
     7.9841   7.9866   8.0182   8.0251   8.0253   8.0415   8.0502   8.0879
     8.1010   8.1039   8.1610   8.1639

          k = 0.0000 0.0000 0.0282 (147224 PWs)   bands (ev):

   -21.2752 -21.0301 -21.0109 -20.9191 -20.5693 -20.5206 -20.3859 -20.2660
   -20.2081 -20.0379 -19.9205 -19.7177 -19.6887 -19.4007 -19.1579 -19.1445
   -19.0027 -18.9654 -18.8093 -18.7903 -18.7229 -18.6715 -18.5147 -18.2522
   -18.1804 -17.9607 -17.8383 -17.8043 -17.5489 -17.2576 -17.2469 -17.1497
   -17.0972 -17.0464 -17.0307 -16.7758 -16.7314 -16.6444 -16.6440 -16.4947
   -16.3720 -16.2957 -16.2465 -16.1440 -16.0710 -15.8327 -15.5916 -15.5575
   -15.2118 -14.7455 -14.7422 -14.5318 -14.4789 -14.4268 -14.2295 -14.1551
   -14.1487 -13.9425 -13.8727 -13.8340 -13.8065 -13.7602 -13.7205 -13.6459
   -13.6235 -13.5694 -13.4823 -13.0070 -12.9134 -12.8459 -12.7497 -12.4984
   -12.3023 -12.2070 -11.9755 -11.8668 -11.8419 -11.8213 -11.6357 -11.4648
   -11.3480 -11.3129 -11.2735 -11.2510 -11.2309 -11.0854 -11.0468 -11.0149
   -10.9577 -10.8917 -10.7947 -10.4637 -10.3027 -10.2714 -10.1540 -10.0810
   -10.0734 -10.0144  -9.9762  -9.9677  -9.5820  -9.5347  -9.5043  -9.4398
    -9.4085  -9.3717  -9.3422  -9.3087  -9.3059  -9.1978  -9.1956  -9.1871
    -9.1772  -9.1086  -9.0742  -9.0351  -8.9439  -8.8469  -8.7519  -8.6029
    -8.5767  -8.5577  -8.5183  -8.5180  -8.5103  -8.4839  -8.4642  -8.3207
    -8.3130  -8.2877  -8.2454  -8.1974  -8.1554  -8.1381  -8.0956  -8.0394
    -8.0105  -7.9818  -7.9524  -7.9215  -7.8844  -7.8387  -7.8022  -7.7882
    -7.6061  -7.5581  -7.5356  -7.5301  -7.4829  -7.4134  -7.4068  -7.3823
    -7.3068  -7.2689  -7.2197  -7.2046  -7.1221  -7.0146  -6.9245  -6.9138
    -6.9031  -6.8850  -6.7623  -6.7192  -6.6488  -6.5959  -6.5948  -6.5169
    -6.4732  -6.4464  -6.3948  -6.3450  -6.1495  -6.0027  -5.9515  -5.8742
    -5.8527  -5.8325  -5.7422  -5.6704  -5.6322  -5.5938  -5.5541  -5.4042
    -5.4028  -5.3754  -5.2428  -5.0558  -4.9263  -4.7527  -4.7299  -4.7165
    -4.6654  -4.5467  -4.3769  -4.3546  -4.3071  -4.3009  -4.1777  -4.0377
    -3.8790  -3.8493  -3.6520  -3.3173  -3.0760  -2.9641  -2.6982  -1.3340
    -1.0490  -0.9508  -0.6410  -0.3789  -0.3522  -0.2712  -0.2324  -0.2240
    -0.0265   0.1116   0.1329   0.2313   0.2882   0.3664   0.4843   0.5128
     0.7787   0.7842   0.8791   1.1571   1.1774   1.2230   1.2246   1.2453
     1.3352   1.3547   1.4067   1.6274   1.7031   1.7096   1.7330   1.7985
     2.0348   2.0911   2.1130   2.1396   2.1789   2.1871   2.1949   2.2241
     2.2418   2.2451   2.2994   2.4329   2.5990   2.6697   2.6774   2.6804
     2.6953   2.7069   2.7212   2.7417   2.7603   2.7716   2.8219   2.9081
     2.9692   2.9923   3.0113   3.0259   3.0389   3.0659   3.0826   3.1010
     3.1380   3.2241   3.2322   3.2811   3.3225   3.3662   3.4306   3.4380
     3.4618   3.5062   3.6063   3.6400   3.6528   3.7069   3.7190   3.7888
     3.8383   3.8435   3.8635   3.8840   3.9299   3.9434   3.9452   3.9655
     4.0132   4.0382   4.0477   4.0798   4.1166   4.1182   4.1444   4.1454
     4.1515   4.1516   4.1736   4.2028   4.2280   4.2698   4.3054   4.3286
     4.4076   4.4202   4.4217   4.4416   4.4812   4.4824   4.5245   4.5634
     4.6182   4.6354   4.6486   4.6706   4.6737   4.6767   4.7393   4.7645
     4.7990   4.8289   4.8342   4.8668   4.8764   4.9530   5.0461   5.0589
     5.0683   5.0726   5.1178   5.1573   5.1598   5.1695   5.1900   5.1919
     5.2116   5.2392   5.3264   5.3524   5.3621   5.3736   5.3790   5.3851
     5.3983   5.4054   5.4178   5.4541   5.4590   5.4757   5.5469   5.5714
     5.5981   5.6345   5.6521   5.6557   5.6806   5.6841   5.6904   5.7225
     5.7342   5.7525   5.7780   5.8007   5.8331   5.8649   5.8718   5.9009
     5.9261   5.9310   5.9469   6.0068   6.0285   6.0644   6.0647   6.0779
     6.0919   6.1035   6.1576   6.1669   6.1736   6.2088   6.2338   6.2515
     6.2741   6.2851   6.3012   6.3160   6.3373   6.3413   6.3520   6.3577
     6.3644   6.3819   6.3869   6.4015   6.4153   6.4170   6.4556   6.4608
     6.4955   6.5026   6.5140   6.5282   6.5460   6.5700   6.5762   6.6207
     6.6385   6.6391   6.6698   6.6865   6.6980   6.7188   6.7261   6.7295
     6.7303   6.7641   6.7931   6.7997   6.8341   6.8449   6.8590   6.9200
     6.9481   6.9757   7.0229   7.0523   7.0616   7.0678   7.0847   7.1020
     7.1187   7.1464   7.1583   7.1588   7.1693   7.1733   7.1800   7.2240
     7.2337   7.2580   7.2584   7.2691   7.3137   7.3336   7.3377   7.3457
     7.3483   7.3486   7.3559   7.3617   7.3920   7.4103   7.4128   7.4759
     7.4888   7.4983   7.5138   7.5521   7.5605   7.5668   7.5894   7.6049
     7.6145   7.6285   7.6762   7.6860   7.6861   7.7008   7.7088   7.7321
     7.7388   7.7474   7.7995   7.8520   7.8536   7.9336   7.9432   7.9522
     7.9889   7.9898   8.0236   8.0269   8.0287   8.0422   8.0893   8.0918
     8.1019   8.1074   8.1466   8.1627

          k = 0.0000 0.0000-0.0293 (147164 PWs)   bands (ev):

   -21.2752 -21.0304 -21.0104 -20.9198 -20.5676 -20.5214 -20.3867 -20.2569
   -20.2174 -20.0381 -19.9204 -19.7173 -19.6890 -19.4016 -19.1553 -19.1442
   -19.0054 -18.9631 -18.8088 -18.7623 -18.7514 -18.6748 -18.5124 -18.2545
   -18.1804 -17.9602 -17.8383 -17.8017 -17.5522 -17.2579 -17.2458 -17.1495
   -17.0855 -17.0474 -17.0410 -16.7740 -16.7006 -16.6752 -16.6437 -16.4984
   -16.3678 -16.2940 -16.2511 -16.1451 -16.0709 -15.8274 -15.5974 -15.5562
   -15.2128 -14.7460 -14.7404 -14.5322 -14.4805 -14.4266 -14.2276 -14.1537
   -14.1483 -13.9154 -13.8603 -13.8533 -13.8101 -13.7721 -13.7255 -13.6495
   -13.5998 -13.5938 -13.4826 -13.0064 -12.8961 -12.8604 -12.7525 -12.4989
   -12.3005 -12.2060 -11.9734 -11.8686 -11.8371 -11.8242 -11.6407 -11.4647
   -11.3394 -11.2983 -11.2782 -11.2603 -11.2354 -11.0733 -11.0390 -11.0282
   -10.9393 -10.9169 -10.8007 -10.4619 -10.3029 -10.2713 -10.1440 -10.0847
   -10.0685 -10.0095  -9.9880  -9.9721  -9.5439  -9.5421  -9.5301  -9.4357
    -9.4074  -9.3749  -9.3421  -9.3147  -9.3030  -9.1994  -9.1920  -9.1846
    -9.1789  -9.1170  -9.0746  -9.0344  -8.9449  -8.8435  -8.7546  -8.5970
    -8.5690  -8.5541  -8.5286  -8.5174  -8.5159  -8.4835  -8.4650  -8.3139
    -8.3093  -8.2984  -8.2457  -8.1965  -8.1418  -8.1374  -8.1095  -8.0245
    -8.0191  -7.9804  -7.9605  -7.9218  -7.8855  -7.8322  -7.8076  -7.7880
    -7.6025  -7.5585  -7.5349  -7.5324  -7.4498  -7.4397  -7.3959  -7.3912
    -7.3089  -7.2742  -7.2209  -7.2059  -7.1218  -7.0051  -6.9341  -6.9102
    -6.9028  -6.8856  -6.7661  -6.7168  -6.6309  -6.6141  -6.5951  -6.5164
    -6.4462  -6.4395  -6.4288  -6.3483  -6.1458  -6.0016  -5.9549  -5.8695
    -5.8527  -5.8365  -5.7414  -5.6706  -5.6320  -5.5925  -5.5544  -5.4047
    -5.4036  -5.3679  -5.2501  -5.0559  -4.9264  -4.7534  -4.7281  -4.6981
    -4.6841  -4.5466  -4.3557  -4.3510  -4.3202  -4.3113  -4.1785  -4.0345
    -3.8794  -3.8527  -3.6518  -3.3126  -3.0735  -2.9690  -2.7008  -1.3321
    -1.0451  -0.9522  -0.6446  -0.3774  -0.3522  -0.2691  -0.2336  -0.2267
    -0.0216   0.1104   0.1577   0.2056   0.2858   0.3673   0.4860   0.5087
     0.7768   0.7844   0.8794   1.1639   1.1702   1.2319   1.2342   1.2376
     1.3360   1.3440   1.4056   1.6270   1.7030   1.7152   1.7271   1.7990
     2.0360   2.0905   2.1296   2.1624   2.1710   2.1784   2.2077   2.2157
     2.2162   2.2428   2.2992   2.4347   2.5953   2.6731   2.6825   2.6829
     2.6955   2.7204   2.7264   2.7343   2.7475   2.7656   2.8214   2.9522
     2.9679   2.9751   2.9860   3.0252   3.0619   3.0624   3.0686   3.1044
     3.1334   3.2170   3.2384   3.2999   3.3143   3.3499   3.4319   3.4388
     3.4579   3.5050   3.6093   3.6365   3.6776   3.6827   3.7220   3.8045
     3.8201   3.8522   3.8544   3.9125   3.9155   3.9472   3.9476   3.9540
     4.0327   4.0418   4.0466   4.0816   4.1120   4.1153   4.1319   4.1444
     4.1503   4.1697   4.1713   4.1736   4.2298   4.2706   4.3083   4.3259
     4.4217   4.4269   4.4345   4.4490   4.4532   4.4954   4.5092   4.5500
     4.6333   4.6430   4.6459   4.6579   4.6683   4.6975   4.7302   4.7656
     4.7859   4.8289   4.8367   4.8695   4.8733   4.9457   5.0665   5.0681
     5.0749   5.0802   5.1079   5.1432   5.1528   5.1842   5.1882   5.1896
     5.2007   5.2302   5.3260   5.3594   5.3664   5.3809   5.3825   5.3871
     5.3981   5.4061   5.4200   5.4330   5.4508   5.4746   5.5482   5.5710
     5.6403   5.6406   5.6559   5.6564   5.6631   5.6812   5.6880   5.7277
     5.7302   5.7306   5.7797   5.7997   5.8236   5.8682   5.8703   5.8951
     5.9368   5.9407   5.9715   5.9791   6.0196   6.0702   6.0714   6.0929
     6.1032   6.1177   6.1411   6.1449   6.1577   6.2115   6.2465   6.2521
     6.2717   6.2832   6.2896   6.3174   6.3439   6.3499   6.3560   6.3571
     6.3728   6.3841   6.3847   6.3885   6.4156   6.4364   6.4414   6.4677
     6.4753   6.5108   6.5250   6.5310   6.5450   6.5477   6.5690   6.6218
     6.6432   6.6531   6.6541   6.6869   6.7000   6.7175   6.7194   6.7297
     6.7337   6.7620   6.7842   6.8100   6.8440   6.8473   6.8513   6.9090
     6.9534   6.9712   7.0355   7.0424   7.0674   7.0753   7.0835   7.1222
     7.1307   7.1438   7.1468   7.1536   7.1621   7.1625   7.2008   7.2180
     7.2224   7.2558   7.2683   7.2887   7.3138   7.3183   7.3352   7.3381
     7.3414   7.3431   7.3805   7.3806   7.3821   7.3934   7.4056   7.4941
     7.4948   7.5029   7.5181   7.5200   7.5572   7.5644   7.5985   7.6094
     7.6225   7.6489   7.6721   7.6777   7.6833   7.6838   7.6947   7.7370
     7.7406   7.7438   7.7828   7.8585   7.8866   7.9014   7.9372   7.9575
     7.9898   7.9921   8.0226   8.0305   8.0372   8.0425   8.0898   8.1015
     8.1033   8.1087   8.1424   8.1627

     the Fermi energy is    -2.1541 ev

     Writing output data file ANTI13-8-6.save/

     init_run     :     13.74s CPU     14.17s WALL (       1 calls)
     electrons    :   8458.61s CPU   8569.31s WALL (       1 calls)

     Called by init_run:
     wfcinit      :      0.00s CPU      0.01s WALL (       1 calls)
     potinit      :      0.86s CPU      0.99s WALL (       1 calls)
     hinit0       :      9.05s CPU      9.10s WALL (       1 calls)

     Called by electrons:
     c_bands      :   8458.59s CPU   8569.14s WALL (       1 calls)
     v_of_rho     :      0.60s CPU      0.66s WALL (       1 calls)
     newd         :      0.61s CPU      0.81s WALL (       1 calls)

     Called by c_bands:
     init_us_2    :      0.88s CPU      1.05s WALL (      26 calls)
     cegterg      :   8298.24s CPU   8357.80s WALL (     115 calls)

     Called by sum_band:

     Called by *egterg:
     h_psi        :   2316.65s CPU   2348.87s WALL (    2159 calls)
     s_psi        :    345.65s CPU    346.32s WALL (    2159 calls)
     g_psi        :     10.15s CPU     10.19s WALL (    2018 calls)
     cdiaghg      :   3614.04s CPU   3618.37s WALL (    2044 calls)

     Called by h_psi:
     h_psi:pot    :   2303.52s CPU   2330.96s WALL (    2159 calls)
     h_psi:calbec :    321.65s CPU    325.06s WALL (    2159 calls)
     vloc_psi     :   1637.90s CPU   1661.27s WALL (    2159 calls)
     add_vuspsi   :    343.94s CPU    344.60s WALL (    2159 calls)

     General routines
     calbec       :    321.64s CPU    325.05s WALL (    2159 calls)
     fft          :      0.66s CPU      0.74s WALL (      14 calls)
     ffts         :      0.01s CPU      0.01s WALL (       1 calls)
     fftw         :   1391.60s CPU   1413.48s WALL (  652634 calls)
     interpolate  :      0.05s CPU      0.06s WALL (       1 calls)
     davcio       :      0.01s CPU     50.65s WALL (      52 calls)

     Parallel routines
     fft_scatt_xy :    173.81s CPU    174.59s WALL (  652649 calls)
     fft_scatt_yz :    611.70s CPU    627.80s WALL (  652649 calls)

     PWSCF        :     2h21m CPU       21h 2m WALL

      40h

   This run was terminated on:  17: 6:45   3Jan2022            

=------------------------------------------------------------------------------=
   JOB DONE.
=------------------------------------------------------------------------------=
