
     Program PWSCF v.6.3 starts on 20Apr2021 at  3:13: 9 

     This program is part of the open-source Quantum ESPRESSO suite
     for quantum simulation of materials; please cite
         "P. Giannozzi et al., J. Phys.:Condens. Matter 21 395502 (2009);
         "P. Giannozzi et al., J. Phys.:Condens. Matter 29 465901 (2017);
          URL http://www.quantum-espresso.org", 
     in publications or presentations arising from this work. More details at
     http://www.quantum-espresso.org/quote

     Parallel version (MPI), running on    16 processors
     R & G space division:  proc/nbgrp/npool/nimage =      16
     Waiting for input...
     Reading input from standard input
     Message from routine read_cards :
     DEPRECATED: no units specified in CELL_PARAMETERS card

     Current dimensions of program PWSCF are:
     Max number of different atomic species (ntypx) = 10
     Max number of k-points (npk) =  40000
     Max angular momentum in pseudopotentials (lmaxx) =  3

     Atomic positions and unit cell read from directory:
     /home/zfwang/scratch/GNRDATASET/AGNR/F13/F13.save/


     Subspace diagonalization in iterative solution of the eigenvalue problem:
     a serial algorithm will be used


     Parallelization info
     --------------------
     sticks:   dense  smooth     PW     G-vecs:    dense   smooth      PW
     Min        2287     761    215                85663    16489    2472
     Max        2289     763    217                85664    16490    2473
     Sum       36603   12197   3449              1370611   263825   39565



     bravais-lattice index     =            0
     lattice parameter (alat)  =       1.8897  a.u.
     unit-cell volume          =    7718.8125 (a.u.)^3
     number of atoms/cell      =           30
     number of atomic types    =            2
     number of electrons       =       132.00
     number of Kohn-Sham states=          500
     kinetic-energy cutoff     =      40.0000  Ry
     charge density cutoff     =     480.0000  Ry
     Exchange-correlation      = PBE ( 1  4  3  4 0 0)

     celldm(1)=  18.897261  celldm(2)=   2.685000  celldm(3)=   0.426000
     celldm(4)=   0.000000  celldm(5)=   0.000000  celldm(6)=   0.000000

     crystal axes: (cart. coord. in units of alat)
               a(1) = (  10.000000   0.000000   0.000000 )  
               a(2) = (   0.000000  26.850000   0.000000 )  
               a(3) = (   0.000000   0.000000   4.260000 )  

     reciprocal axes: (cart. coord. in units 2 pi/alat)
               b(1) = (  0.100000  0.000000  0.000000 )  
               b(2) = (  0.000000  0.037244  0.000000 )  
               b(3) = (  0.000000  0.000000  0.234742 )  


     PseudoPot. # 1 for C  read from file:
     /home/zfwang/hp_home/MySoftware/qe-6.3/pseudo/C.pbe-n-rrkjus_psl.0.1.UPF
     MD5 check sum: fff530ed632a789b3b184014e67dd7f1
     Pseudo is Ultrasoft + core correction, Zval =  4.0
     Generated using "atomic" code by A. Dal Corso v.5.0.2 svn rev. 9415
     Using radial grid of 1073 points,  4 beta functions with: 
                l(1) =   0
                l(2) =   0
                l(3) =   1
                l(4) =   1
     Q(r) pseudized with 0 coefficients 


     PseudoPot. # 2 for F  read from file:
     /home/zfwang/hp_home/MySoftware/qe-6.3/pseudo/F.pbe-n-rrkjus_psl.0.1.UPF
     MD5 check sum: 147397eca92fbb10e5415488e6f13084
     Pseudo is Ultrasoft + core correction, Zval =  7.0
     Generated using "atomic" code by A. Dal Corso v.5.0.2 svn rev. 9415
     Using radial grid of 1105 points,  4 beta functions with: 
                l(1) =   0
                l(2) =   0
                l(3) =   1
                l(4) =   1
     Q(r) pseudized with 0 coefficients 


     atomic species   valence    mass     pseudopotential
        C              4.00    12.01070     C ( 1.00)
        F              7.00    18.99840     F ( 1.00)

     No symmetry found



   Cartesian axes

     site n.     atom                  positions (alat units)
         1           C   tau(   1) = (   5.0000032   6.0794418   2.8051794  )
         2           C   tau(   2) = (   5.0000018   7.2550998   3.5537324  )
         3           C   tau(   3) = (   5.0000023   6.0794408   1.4548207  )
         4           C   tau(   4) = (   5.0000005   8.4846781   2.8387054  )
         5           C   tau(   5) = (   5.0000001   9.7217698   3.5520564  )
         6           C   tau(   6) = (   5.0000021   7.2550989   0.7062675  )
         7           C   tau(   7) = (   5.0000010   8.4846779   1.4212947  )
         8           C   tau(   8) = (   5.0000000  10.9553988   2.8414843  )
         9           C   tau(   9) = (   5.0000001  12.1882687   3.5493738  )
        10           C   tau(  10) = (   5.0000003   9.7217697   0.7079438  )
        11           C   tau(  11) = (   5.0000003  10.9553985   1.4185162  )
        12           C   tau(  12) = (   5.0000002  13.4249862   2.8386931  )
        13           C   tau(  13) = (   5.0000006  14.6617049   3.5493745  )
        14           C   tau(  14) = (   5.0000002  12.1882691   0.7106266  )
        15           C   tau(  15) = (   5.0000004  13.4249861   1.4213075  )
        16           C   tau(  16) = (   5.0000010  15.8945838   2.8414818  )
        17           C   tau(  17) = (   5.0000008  17.1282254   3.5520583  )
        18           C   tau(  18) = (   5.0000008  14.6617050   0.7106266  )
        19           C   tau(  19) = (   5.0000008  15.8945838   1.4185195  )
        20           C   tau(  20) = (   4.9999994  18.3653272   2.8387061  )
        21           C   tau(  21) = (   4.9999978  19.5949170   3.5537316  )
        22           C   tau(  22) = (   5.0000003  17.1282250   0.7079424  )
        23           C   tau(  23) = (   4.9999992  18.3653274   1.4212938  )
        24           C   tau(  24) = (   4.9999965  20.7705762   2.8051909  )
        25           C   tau(  25) = (   4.9999981  19.5949166   0.7062676  )
        26           C   tau(  26) = (   4.9999978  20.7705752   1.4548075  )
        27           F   tau(  27) = (   5.0000015   4.8162493   3.2314510  )
        28           F   tau(  28) = (   4.9999984   4.8162477   1.0285523  )
        29           F   tau(  29) = (   4.9999944  22.0337804   3.2314506  )
        30           F   tau(  30) = (   5.0000007  22.0337793   1.0285462  )

     number of k points=    26  Marzari-Vanderbilt smearing, width (Ry)=  0.0100
                       cart. coord. in units 2pi/alat
        k(    1) = (   0.0000000   0.0000000   0.0000000), wk =   0.0400000
        k(    2) = (   0.0000000   0.0000000   0.0046948), wk =   0.0800000
        k(    3) = (   0.0000000   0.0000000   0.0093897), wk =   0.0800000
        k(    4) = (   0.0000000   0.0000000   0.0140845), wk =   0.0800000
        k(    5) = (   0.0000000   0.0000000   0.0187793), wk =   0.0800000
        k(    6) = (   0.0000000   0.0000000   0.0234742), wk =   0.0800000
        k(    7) = (   0.0000000   0.0000000   0.0281690), wk =   0.0800000
        k(    8) = (   0.0000000   0.0000000   0.0328638), wk =   0.0800000
        k(    9) = (   0.0000000   0.0000000   0.0375587), wk =   0.0800000
        k(   10) = (   0.0000000   0.0000000   0.0422535), wk =   0.0800000
        k(   11) = (   0.0000000   0.0000000   0.0469484), wk =   0.0800000
        k(   12) = (   0.0000000   0.0000000   0.0516432), wk =   0.0800000
        k(   13) = (   0.0000000   0.0000000   0.0563380), wk =   0.0800000
        k(   14) = (   0.0000000   0.0000000   0.0610329), wk =   0.0800000
        k(   15) = (   0.0000000   0.0000000   0.0657277), wk =   0.0800000
        k(   16) = (   0.0000000   0.0000000   0.0704225), wk =   0.0800000
        k(   17) = (   0.0000000   0.0000000   0.0751174), wk =   0.0800000
        k(   18) = (   0.0000000   0.0000000   0.0798122), wk =   0.0800000
        k(   19) = (   0.0000000   0.0000000   0.0845070), wk =   0.0800000
        k(   20) = (   0.0000000   0.0000000   0.0892019), wk =   0.0800000
        k(   21) = (   0.0000000   0.0000000   0.0938967), wk =   0.0800000
        k(   22) = (   0.0000000   0.0000000   0.0985915), wk =   0.0800000
        k(   23) = (   0.0000000   0.0000000   0.1032864), wk =   0.0800000
        k(   24) = (   0.0000000   0.0000000   0.1079812), wk =   0.0800000
        k(   25) = (   0.0000000   0.0000000   0.1126761), wk =   0.0800000
        k(   26) = (   0.0000000   0.0000000  -0.1173709), wk =   0.0400000

     Dense  grid:  1370611 G-vectors     FFT dimensions: ( 135, 360,  60)

     Smooth grid:   263825 G-vectors     FFT dimensions: (  80, 216,  36)

     Estimated max dynamical RAM per process >     424.45 MB

     Estimated total dynamical RAM >       6.63 GB

     Check: negative/imaginary core charge=   -0.000005    0.000000

     The potential is recalculated from file :
     /home/zfwang/scratch/GNRDATASET/AGNR/F13/F13.save/charge-density.dat


     negative rho (up, down):  1.861E-03 0.000E+00
     Starting wfcs are  120 randomized atomic wfcs +  380 random wfcs

     Band Structure Calculation
     Davidson diagonalization with overlap
     c_bands:  1 eigenvalues not converged

     ethr =  7.58E-09,  avg # of iterations = 32.8

     total cpu time spent up to now is     2229.6 secs

     End of band structure calculation

          k = 0.0000 0.0000 0.0000 ( 32901 PWs)   bands (ev):

   -29.5892 -29.5890 -28.0081 -28.0079 -21.4231 -21.2412 -20.7973 -20.1459
   -19.2872 -18.2777 -17.1950 -16.2611 -16.1735 -16.0516 -15.7151 -15.6768
   -15.2930 -15.1258 -15.1056 -14.7040 -14.6891 -14.3752 -13.4969 -12.8200
   -12.6523 -12.5433 -12.4620 -12.1232 -11.6521 -11.4036 -11.2724 -10.8954
   -10.4061 -10.3154 -10.3135 -10.1900 -10.0738  -9.5066  -9.3916  -9.0498
    -9.0026  -8.9817  -8.6868  -8.3614  -8.0260  -8.0156  -8.0154  -7.7264
    -7.5835  -7.2447  -6.6465  -6.5408  -6.4897  -5.8425  -5.5867  -5.5778
    -5.4022  -5.2716  -5.2351  -4.4226  -4.1621  -3.8634  -3.3024  -3.2658
    -2.5228  -2.2219  -1.4894  -1.3858  -0.8628  -0.5213  -0.3107  -0.2777
     1.1031   1.1568   1.3239   1.5966   2.0352   2.3760   2.6192   2.8110
     2.8714   3.0177   3.0824   3.3109   3.4122   3.4477   3.7834   3.9100
     3.9589   4.2074   4.2108   4.2643   4.5815   4.6315   4.8418   4.8436
     4.9264   5.1464   5.4898   5.7968   5.8058   6.0031   6.1860   6.1941
     6.1959   6.2163   6.3785   6.4467   6.6475   6.6855   6.9902   7.0167
     7.0393   7.2225   7.4114   7.7904   7.8603   7.8617   7.8748   8.1469
     8.2567   8.3991   8.4087   8.4473   8.6519   8.6953   8.7260   8.7351
     8.7608   8.8228   8.8817   8.9302   8.9620   9.0467   9.1330   9.1889
     9.2104   9.2253   9.2396   9.3162   9.3253   9.3905   9.4922   9.5894
     9.6377   9.8956   9.8997   9.9097   9.9376  10.0345  10.0625  10.0844
    10.1441  10.1632  10.2840  10.3897  10.4994  10.5350  10.5430  10.5705
    10.5712  10.6383  10.7668  10.7959  10.8395  10.8428  10.8597  10.9169
    10.9586  10.9988  11.0193  11.0691  11.0768  11.1532  11.1930  11.1974
    11.2335  11.2357  11.3298  11.4065  11.5100  11.5134  11.7190  11.7444
    11.7668  11.8077  11.8087  11.8514  11.8848  11.9021  11.9999  12.0093
    12.0408  12.0883  12.1292  12.1303  12.4028  12.5019  12.5233  12.6027
    12.6203  12.6538  12.7994  12.8154  12.9317  12.9359  12.9362  12.9729
    13.0040  13.1225  13.1651  13.2006  13.3377  13.3945  13.4177  13.4863
    13.5048  13.6141  13.6994  13.7221  13.8065  13.9365  13.9836  14.0314
    14.2315  14.3086  14.3438  14.4253  14.4338  14.5448  14.5837  14.6213
    14.8707  14.9080  14.9331  14.9391  15.0261  15.1245  15.1558  15.2178
    15.2881  15.2906  15.3286  15.5791  15.6371  15.7216  15.7341  15.7763
    15.8127  15.8225  16.0048  16.0103  16.1387  16.1426  16.1749  16.1972
    16.2848  16.3420  16.3570  16.3670  16.4322  16.5131  16.5289  16.5732
    16.6666  16.7000  16.7327  16.8822  16.9359  16.9851  17.0504  17.0963
    17.1165  17.1342  17.1365  17.1779  17.2311  17.2601  17.2646  17.2922
    17.3500  17.3632  17.3653  17.4453  17.4586  17.4674  17.5389  17.5407
    17.6513  17.6808  17.6823  17.7460  17.8699  18.0553  18.0665  18.1089
    18.1442  18.1522  18.1646  18.1680  18.1960  18.2563  18.3966  18.3987
    18.4042  18.4472  18.4777  18.7004  18.7717  18.7976  18.9516  19.1393
    19.1756  19.1774  19.2214  19.2644  19.2826  19.3366  19.3449  19.4253
    19.4625  19.5989  19.7041  19.7472  19.8585  19.9185  19.9319  19.9404
    20.0539  20.0811  20.0951  20.1380  20.2194  20.2522  20.3395  20.4143
    20.4541  20.4913  20.4990  20.5718  20.5811  20.7759  20.8085  20.8813
    20.8814  20.9407  20.9959  21.0389  21.0874  21.2127  21.2167  21.2447
    21.2491  21.3237  21.4134  21.4610  21.5235  21.5467  21.6062  21.6237
    21.6442  21.7796  21.8241  21.9123  21.9372  21.9527  21.9930  22.0576
    22.0844  22.1364  22.1527  22.1866  22.2531  22.2721  22.3056  22.3077
    22.3762  22.3872  22.4947  22.5056  22.5266  22.5974  22.6728  22.8250
    22.8668  22.9038  22.9468  22.9629  22.9828  23.0055  23.0460  23.1514
    23.1581  23.1935  23.2897  23.3561  23.3781  23.4148  23.4717  23.5093
    23.5463  23.6871  23.8101  23.9064  23.9248  23.9666  24.0486  24.0554
    24.1608  24.2042  24.3523  24.4036  24.4548  24.4645  24.6168  24.6202
    24.6325  24.6808  24.7092  24.7657  24.8796  24.9132  24.9248  24.9265
    24.9571  25.0439  25.2305  25.3899  25.4917  25.5342  25.5418  25.5889
    25.5992  25.7115  25.7727  25.7994  25.8095  25.8234  25.8936  25.9068
    25.9352  25.9598  26.1250  26.1531  26.2239  26.2354  26.2389  26.2430
    26.3117  26.3403  26.3433  26.5013  26.5473  26.5935  26.6069  26.6712
    26.6873  26.7054  26.7609  26.8240  26.8302  27.0027  27.0040  27.2180
    27.2715  27.3672  27.4147  27.5203  27.5860  27.5878  27.6627  27.7101
    27.8281  27.8497  27.9088  27.9289  27.9462  27.9991  28.0265  28.1044
    28.1795  28.2140  28.2554  28.3832  28.3926  28.3962  28.4411  28.4509
    28.5630  28.5777  28.6276  28.7145  28.8234  28.8259  28.8753  28.9583
    28.9757  29.0850  29.0920  29.1671

          k = 0.0000 0.0000 0.0047 ( 32911 PWs)   bands (ev):

   -29.5880 -29.5878 -28.0099 -28.0097 -21.4207 -21.2389 -20.7950 -20.1436
   -19.2850 -18.2756 -17.1935 -16.2783 -16.2237 -16.0759 -15.7835 -15.6236
   -15.2775 -15.1539 -15.0661 -14.6772 -14.6503 -14.3680 -13.5172 -12.8047
   -12.6602 -12.5578 -12.4338 -12.1127 -11.6688 -11.3889 -11.2628 -10.9040
   -10.4015 -10.3136 -10.3117 -10.1816 -10.0795  -9.5030  -9.3889  -9.0429
    -9.0111  -8.9791  -8.6824  -8.3590  -8.0185  -8.0178  -8.0177  -7.7387
    -7.5811  -7.2391  -6.6443  -6.5641  -6.4775  -5.8506  -5.5908  -5.5758
    -5.4038  -5.2726  -5.2427  -4.4216  -4.1782  -3.8806  -3.3223  -3.2677
    -2.5542  -2.2489  -1.4632  -1.3535  -0.8406  -0.5010  -0.2910  -0.2779
     1.0987   1.1600   1.3270   1.5997   2.0383   2.3793   2.6132   2.8142
     2.8740   3.0209   3.0852   3.3141   3.4151   3.4509   3.7866   3.9132
     3.9621   4.2036   4.2100   4.2674   4.5846   4.6348   4.8456   4.8465
     4.9292   5.1481   5.4929   5.7901   5.8078   5.9926   6.1843   6.1960
     6.1995   6.2200   6.3890   6.4501   6.6508   6.6758   6.9925   7.0080
     7.0402   7.2150   7.4180   7.7946   7.8482   7.8493   7.8642   8.1501
     8.2589   8.3906   8.4123   8.4565   8.6562   8.6974   8.7147   8.7296
     8.7605   8.8285   8.8717   8.8985   8.9303   8.9464   9.1233   9.1358
     9.1813   9.1902   9.2024   9.2421   9.3226   9.5360   9.5598   9.6169
     9.6789   9.7668   9.8869   9.9000  10.0001  10.0648  10.0793  10.1075
    10.1389  10.1400  10.1718  10.3091  10.3169  10.5436  10.5816  10.6120
    10.6763  10.7322  10.7601  10.7983  10.8173  10.8519  10.8963  10.9193
    10.9544  10.9801  11.0404  11.0721  11.0998  11.1286  11.1984  11.2069
    11.2550  11.2659  11.3740  11.4023  11.4820  11.4929  11.5203  11.6771
    11.7163  11.7712  11.8021  11.8095  11.8871  11.9005  11.9415  12.0281
    12.0754  12.1616  12.2206  12.2294  12.3223  12.4175  12.6126  12.6223
    12.6855  12.6940  12.7659  12.8423  12.9150  12.9177  12.9319  13.0107
    13.0205  13.0793  13.1739  13.2702  13.2711  13.4406  13.4799  13.5258
    13.5370  13.6010  13.7783  13.8072  13.8184  13.9238  13.9618  14.0461
    14.1275  14.2083  14.4071  14.4124  14.5309  14.5355  14.6011  14.6483
    14.6825  14.7834  14.9497  14.9933  15.0732  15.1544  15.2094  15.2453
    15.3296  15.3335  15.3356  15.6024  15.7077  15.7175  15.7594  15.7631
    15.7780  15.8041  16.0060  16.0361  16.0745  16.1295  16.1641  16.2064
    16.2540  16.2594  16.2812  16.3807  16.4342  16.4884  16.5867  16.6481
    16.6486  16.6873  16.6881  16.8659  16.9038  16.9951  17.0241  17.0256
    17.0651  17.1087  17.1295  17.1532  17.1834  17.1968  17.2500  17.2698
    17.3172  17.3923  17.5031  17.5056  17.5116  17.5401  17.6116  17.6219
    17.6557  17.6837  17.7110  17.7485  17.9439  18.0640  18.0844  18.1235
    18.1368  18.1382  18.1626  18.1947  18.2298  18.2873  18.3313  18.3333
    18.3968  18.4759  18.4815  18.6999  18.7046  18.7874  18.8389  19.0947
    19.1956  19.2177  19.2711  19.2765  19.2933  19.3618  19.3671  19.5087
    19.5293  19.5417  19.6186  19.7314  19.8226  19.9335  19.9373  19.9582
    20.0908  20.1037  20.1463  20.2401  20.2480  20.2830  20.3737  20.4535
    20.4657  20.4729  20.5031  20.5380  20.5755  20.7818  20.8079  20.8845
    20.8858  20.9472  20.9861  21.0473  21.0644  21.1768  21.2017  21.2145
    21.2291  21.2899  21.4199  21.4527  21.5212  21.5490  21.5798  21.6511
    21.6531  21.7737  21.7991  21.9454  21.9573  21.9600  21.9767  21.9874
    22.1093  22.1415  22.1806  22.1928  22.2441  22.2992  22.3254  22.3754
    22.4047  22.4343  22.4905  22.5117  22.5369  22.6006  22.6575  22.8113
    22.8497  22.8987  22.9148  22.9413  22.9823  23.0723  23.0748  23.1171
    23.1432  23.2144  23.3097  23.3174  23.3313  23.4016  23.4057  23.5319
    23.6737  23.7890  23.8582  23.8665  23.8891  23.8933  23.9812  24.0236
    24.1949  24.2055  24.3713  24.3893  24.3933  24.4521  24.4633  24.6413
    24.6925  24.7117  24.7709  24.8137  24.8237  24.8741  24.9269  24.9552
    25.0889  25.0944  25.2948  25.3431  25.4292  25.4841  25.5365  25.5583
    25.5881  25.7560  25.7778  25.8021  25.8138  25.8528  25.8705  25.9279
    25.9384  25.9444  26.1190  26.1203  26.1937  26.1998  26.2388  26.2389
    26.2644  26.3424  26.3817  26.4844  26.5050  26.5853  26.6650  26.7009
    26.7157  26.7629  26.7931  26.8305  26.8629  27.0083  27.0188  27.2786
    27.3343  27.3728  27.4126  27.5420  27.5536  27.6024  27.6424  27.6707
    27.8095  27.8185  27.8199  27.8933  27.9088  27.9142  27.9347  28.1058
    28.1851  28.2129  28.2595  28.3970  28.4112  28.4576  28.4957  28.5590
    28.6113  28.6193  28.6248  28.7140  28.7804  28.8214  28.8749  28.8877
    29.0128  29.0974  29.1009  29.1989

          k = 0.0000 0.0000 0.0094 ( 32891 PWs)   bands (ev):

   -29.5842 -29.5841 -28.0153 -28.0151 -21.4136 -21.2319 -20.7880 -20.1368
   -19.2783 -18.2692 -17.1890 -16.3455 -16.3421 -16.1194 -15.9025 -15.5592
   -15.3391 -15.1065 -14.9704 -14.6423 -14.5302 -14.3416 -13.5731 -12.7628
   -12.7019 -12.5520 -12.3801 -12.0821 -11.7118 -11.3515 -11.2351 -10.9282
   -10.3891 -10.3081 -10.3062 -10.1575 -10.0951  -9.4924  -9.3807  -9.0350
    -9.0232  -8.9714  -8.6692  -8.3516  -8.0245  -8.0244  -7.9971  -7.7731
    -7.5740  -7.2245  -6.6375  -6.6108  -6.4637  -5.8746  -5.6033  -5.5700
    -5.4086  -5.2759  -5.2652  -4.4185  -4.2255  -3.9311  -3.3801  -3.2736
    -2.6394  -2.3209  -1.3936  -1.2657  -0.7759  -0.4417  -0.2781  -0.2329
     1.0857   1.1696   1.3364   1.6090   2.0475   2.3891   2.5952   2.8238
     2.8817   3.0305   3.0934   3.3236   3.4236   3.4603   3.7961   3.9227
     3.9717   4.1821   4.2178   4.2765   4.5939   4.6444   4.8552   4.8569
     4.9376   5.1532   5.5023   5.7702   5.8138   5.9662   6.1588   6.2102
     6.2209   6.2311   6.4178   6.4602   6.6490   6.6607   6.9768   7.0000
     7.0482   7.1928   7.4354   7.7767   7.8071   7.8138   7.8760   8.1597
     8.2665   8.3664   8.4219   8.4673   8.5997   8.6459   8.6688   8.7073
     8.7405   8.7603   8.8450   8.8802   8.9167   8.9302   8.9376   9.0352
     9.1442   9.1771   9.1935   9.2361   9.3144   9.4603   9.5611   9.6264
     9.7884   9.8432   9.8480   9.8583   9.9296   9.9386   9.9787  10.0811
    10.1183  10.1389  10.1963  10.2632  10.4290  10.5508  10.5518  10.5789
    10.6424  10.7288  10.7462  10.7893  10.8092  10.8375  10.9074  10.9365
    11.0391  11.0509  11.1197  11.1472  11.1623  11.1990  11.2111  11.2299
    11.2360  11.2898  11.3188  11.3220  11.3423  11.4403  11.4500  11.5563
    11.6598  11.6793  11.7101  11.7936  11.8505  11.8874  11.9011  12.0113
    12.0539  12.1650  12.2278  12.3696  12.4898  12.5179  12.5239  12.6098
    12.6527  12.7291  12.7651  12.8755  12.9180  12.9572  13.0167  13.0792
    13.0936  13.2109  13.2316  13.2331  13.2673  13.5511  13.5632  13.5942
    13.6080  13.6882  13.7975  13.8046  13.8623  13.8737  14.0279  14.1000
    14.1002  14.1242  14.3981  14.4076  14.4644  14.5311  14.5917  14.6183
    14.6394  14.8062  14.9482  14.9908  15.0500  15.1612  15.2206  15.3471
    15.3855  15.4593  15.5287  15.5557  15.6138  15.7254  15.7378  15.7658
    15.8488  15.8938  15.9209  16.0022  16.0925  16.0978  16.1085  16.1780
    16.1980  16.2579  16.2746  16.3382  16.3997  16.5015  16.5150  16.5755
    16.5887  16.6573  16.7446  16.7760  16.8835  16.9068  16.9408  16.9429
    16.9608  17.0566  17.0631  17.0993  17.2385  17.2564  17.3080  17.3211
    17.3721  17.3830  17.4872  17.5157  17.5853  17.5911  17.6659  17.6901
    17.7546  17.8385  17.8553  17.8797  18.0327  18.0538  18.0614  18.1551
    18.1590  18.1692  18.1930  18.2148  18.2240  18.2747  18.2980  18.3877
    18.4093  18.4756  18.5524  18.5669  18.6642  18.7097  18.7580  18.9097
    19.2408  19.2680  19.2735  19.2932  19.3660  19.3930  19.4207  19.4299
    19.6081  19.6426  19.6972  19.7169  19.7911  19.9756  19.9787  20.0457
    20.1169  20.1803  20.2159  20.2268  20.2847  20.3638  20.4520  20.4753
    20.4934  20.5074  20.5573  20.5769  20.6276  20.7880  20.8200  20.8881
    20.8894  20.9496  20.9642  20.9658  21.0434  21.1380  21.1445  21.1864
    21.1933  21.2607  21.4017  21.4467  21.4592  21.5372  21.6468  21.6592
    21.6970  21.7081  21.7463  21.8721  21.9393  21.9715  21.9981  22.0729
    22.1413  22.1625  22.1767  22.2346  22.2654  22.3082  22.3346  22.3741
    22.4589  22.5026  22.5406  22.5807  22.6068  22.6522  22.6530  22.8105
    22.8947  22.9062  22.9138  22.9218  22.9442  22.9504  23.1043  23.1231
    23.1437  23.1699  23.2740  23.2980  23.3645  23.3762  23.5132  23.5801
    23.6833  23.7642  23.7659  23.8074  23.9238  23.9350  23.9578  24.0375
    24.2096  24.2265  24.2283  24.2415  24.4473  24.4800  24.4938  24.5944
    24.6342  24.7217  24.7833  24.7929  24.7932  24.9224  24.9345  25.1319
    25.1848  25.2086  25.3073  25.3832  25.4152  25.4308  25.4567  25.5330
    25.6223  25.7129  25.7309  25.8186  25.8189  25.8402  25.8549  25.8818
    25.9230  25.9446  26.0509  26.0985  26.1431  26.1853  26.2039  26.2649
    26.3675  26.3991  26.4377  26.4457  26.4758  26.5983  26.6325  26.6785
    26.7219  26.7698  26.8490  27.0154  27.0536  27.0778  27.0924  27.3315
    27.3442  27.4031  27.4180  27.5089  27.5871  27.5944  27.6242  27.6256
    27.6441  27.7173  27.7233  27.7368  27.7759  27.8601  27.9786  28.1430
    28.1822  28.2197  28.2686  28.3955  28.4302  28.4569  28.5224  28.6075
    28.6096  28.6222  28.7439  28.8138  28.8143  28.8647  28.8870  28.8913
    28.9575  28.9891  29.1260  29.1765

          k = 0.0000 0.0000 0.0141 ( 32903 PWs)   bands (ev):

   -29.5780 -29.5779 -28.0242 -28.0241 -21.4019 -21.2202 -20.7765 -20.1254
   -19.2672 -18.2587 -17.1822 -16.5003 -16.4583 -16.1486 -16.0472 -15.5187
   -15.4668 -14.9811 -14.8557 -14.5838 -14.3853 -14.2849 -13.6542 -12.7750
   -12.7020 -12.5141 -12.3153 -12.0350 -11.7700 -11.3005 -11.1934 -10.9645
   -10.3730 -10.2989 -10.2972 -10.1205 -10.1153  -9.4764  -9.3671  -9.0705
    -8.9930  -8.9585  -8.6473  -8.3394  -8.0355  -8.0354  -7.9646  -7.8248
    -7.5621  -7.2059  -6.6687  -6.6263  -6.4601  -5.9130  -5.6242  -5.5602
    -5.4175  -5.3017  -5.2822  -4.4140  -4.3008  -4.0113  -3.4701  -3.2836
    -2.7604  -2.4210  -1.2974  -1.1403  -0.6744  -0.3479  -0.2770  -0.1393
     1.0644   1.1856   1.3520   1.6244   2.0627   2.4053   2.5657   2.8398
     2.8945   3.0466   3.1071   3.3395   3.4378   3.4759   3.8119   3.9387
     3.9877   4.1471   4.2308   4.2918   4.6094   4.6604   4.8696   4.8754
     4.9515   5.1614   5.5180   5.7376   5.8225   5.9321   6.1239   6.2281
     6.2495   6.2533   6.4601   6.4769   6.6099   6.6770   6.9220   7.0137
     7.0637   7.1560   7.4582   7.6672   7.7682   7.8278   7.8953   8.1756
     8.2793   8.3124   8.3268   8.4105   8.4377   8.5447   8.6886   8.7172
     8.7217   8.7420   8.7585   8.8396   8.8697   8.9223   8.9296   8.9445
     9.1365   9.1582   9.1854   9.1891   9.3027   9.3882   9.4205   9.6125
     9.6203   9.6700   9.6859   9.8083   9.8554   9.8845  10.0815  10.1279
    10.1490  10.1666  10.3230  10.3449  10.4206  10.4417  10.4733  10.5458
    10.6423  10.7309  10.7899  10.8038  10.8409  10.8544  10.8963  10.9516
    10.9526  11.0433  11.0823  11.1206  11.1207  11.1761  11.1849  11.2775
    11.2816  11.2949  11.3096  11.3782  11.3929  11.4438  11.4446  11.5194
    11.5465  11.5878  11.6830  11.7012  11.8255  11.8977  11.9221  11.9333
    12.0137  12.1751  12.2651  12.2695  12.4163  12.5264  12.5521  12.6751
    12.7029  12.8621  12.8745  12.8979  12.9436  12.9985  13.1216  13.1337
    13.2190  13.3403  13.3485  13.3591  13.4647  13.5729  13.5994  13.6426
    13.6574  13.6646  13.7688  13.7879  13.7955  13.9150  14.0890  14.1235
    14.1371  14.2531  14.2874  14.4643  14.5075  14.5096  14.5216  14.6155
    14.6992  14.9323  14.9723  15.0224  15.0228  15.1065  15.2399  15.3475
    15.4109  15.5162  15.5194  15.5774  15.6262  15.7110  15.7300  15.7364
    15.8006  15.8604  15.9784  16.0481  16.0892  16.1135  16.1251  16.1638
    16.2778  16.2886  16.3034  16.3131  16.3264  16.3403  16.4070  16.5633
    16.5996  16.6513  16.6958  16.7099  16.7504  16.7808  16.8014  16.9100
    16.9200  16.9742  17.0823  17.1292  17.3083  17.3295  17.3342  17.3485
    17.3618  17.4358  17.4699  17.5331  17.6030  17.6048  17.6966  17.7595
    17.7912  17.9333  17.9570  18.0018  18.0105  18.1095  18.1368  18.1567
    18.1703  18.1753  18.2475  18.2724  18.3172  18.3222  18.3562  18.3668
    18.4757  18.5718  18.5894  18.5973  18.6287  18.7202  18.7456  18.7566
    19.0296  19.1534  19.2980  19.3544  19.3918  19.4802  19.5049  19.5209
    19.5815  19.7286  19.8301  19.8429  19.9194  20.0247  20.0525  20.0657
    20.1289  20.1525  20.1726  20.2769  20.3654  20.3922  20.4705  20.5013
    20.5369  20.5877  20.5973  20.7445  20.7751  20.7905  20.7972  20.8477
    20.8961  20.9152  20.9879  21.0010  21.0023  21.0834  21.1621  21.1747
    21.2133  21.2339  21.3564  21.3637  21.4864  21.5351  21.6111  21.6618
    21.6811  21.7221  21.7555  21.8453  21.9251  21.9632  21.9961  22.0203
    22.1588  22.1927  22.2126  22.2321  22.2844  22.3135  22.3756  22.4131
    22.5327  22.5455  22.5579  22.6109  22.6241  22.7244  22.7927  22.8030
    22.8253  22.8672  22.9282  22.9834  22.9842  23.0013  23.0660  23.1511
    23.1594  23.1997  23.2160  23.3053  23.3488  23.4041  23.5297  23.5552
    23.6289  23.6919  23.7217  23.7968  23.8479  23.8799  23.9865  24.1053
    24.2048  24.2164  24.3170  24.3900  24.4175  24.4240  24.5332  24.5345
    24.5404  24.5896  24.7108  24.8015  24.8822  24.9127  24.9462  25.1842
    25.2515  25.2809  25.2894  25.4038  25.4177  25.4504  25.5604  25.5681
    25.5750  25.6032  25.6964  25.7225  25.7460  25.8165  25.8297  25.9270
    25.9435  25.9689  26.0761  26.1000  26.1330  26.1737  26.2742  26.2843
    26.3434  26.3861  26.4212  26.5832  26.6128  26.6266  26.6325  26.6995
    26.7129  26.8062  26.8653  27.0470  27.1308  27.2056  27.2506  27.2771
    27.3208  27.3522  27.3979  27.5024  27.5313  27.5378  27.5770  27.5795
    27.5939  27.6220  27.7381  27.7532  27.8138  27.8238  27.9844  28.1840
    28.1894  28.2351  28.2478  28.2949  28.4625  28.4789  28.4964  28.5671
    28.5777  28.6337  28.7085  28.7653  28.7676  28.8259  28.8468  28.8710
    29.0952  29.0970  29.1334  29.1700

          k = 0.0000 0.0000 0.0188 ( 32887 PWs)   bands (ev):

   -29.5693 -29.5692 -28.0367 -28.0365 -21.3854 -21.2039 -20.7603 -20.1095
   -19.2517 -18.2440 -17.1739 -16.6685 -16.6062 -16.2043 -16.1688 -15.6037
   -15.5151 -14.8365 -14.7559 -14.4909 -14.2297 -14.1904 -13.7504 -12.8646
   -12.6288 -12.4594 -12.2386 -11.9765 -11.8355 -11.2402 -11.1464 -11.0038
   -10.3626 -10.2862 -10.2844 -10.1293 -10.0737  -9.4582  -9.3480  -9.1112
    -8.9553  -8.9406  -8.6167  -8.3222  -8.0508  -8.0507  -7.9247  -7.8886
    -7.5456  -7.1885  -6.7350  -6.6106  -6.4689  -5.9645  -5.6532  -5.5467
    -5.4337  -5.3492  -5.2926  -4.4186  -4.3896  -4.1166  -3.5855  -3.2986
    -2.9018  -2.5370  -1.1866  -0.9924  -0.5429  -0.2822  -0.2158  -0.0140
     1.0354   1.2080   1.3739   1.6460   2.0840   2.4281   2.5251   2.8623
     2.9122   3.0690   3.1262   3.3618   3.4578   3.4978   3.8340   3.9610
     4.0096   4.1000   4.2490   4.3130   4.6310   4.6829   4.8894   4.9007
     4.9708   5.1723   5.5398   5.6929   5.8284   5.8995   6.0835   6.2528
     6.2750   6.2887   6.4999   6.5143   6.5655   6.6996   6.8471   7.0339
     7.0852   7.1052   7.4749   7.5357   7.7132   7.8564   7.9221   8.0281
     8.1978   8.2317   8.2721   8.3011   8.4102   8.4596   8.5482   8.6767
     8.7139   8.7455   8.7832   8.8018   8.8884   8.9277   8.9339   8.9376
     9.0612   9.0800   9.1565   9.1779   9.2377   9.2994   9.3035   9.4204
     9.4269   9.5492   9.5584   9.7428   9.7849   9.8790  10.0526  10.0934
    10.1402  10.1687  10.2121  10.3773  10.4080  10.4858  10.5943  10.6077
    10.6141  10.7215  10.7762  10.8039  10.8066  10.8224  10.8239  10.8814
    10.9361  10.9583  11.0304  11.0715  11.1882  11.1934  11.2062  11.2490
    11.2858  11.3146  11.3258  11.3445  11.3579  11.3726  11.4460  11.5111
    11.5373  11.6886  11.7048  11.7275  11.8452  11.9138  11.9496  11.9863
    12.0084  12.0243  12.0876  12.1674  12.4361  12.4798  12.6195  12.6476
    12.8213  12.8984  12.9833  13.0201  13.0993  13.1118  13.1629  13.1808
    13.3155  13.4810  13.4963  13.5340  13.5773  13.5991  13.6043  13.6046
    13.6779  13.7121  13.7838  13.8009  13.8713  13.8978  14.0531  14.1515
    14.1664  14.2840  14.2969  14.5215  14.5863  14.6500  14.6686  14.6991
    14.8058  14.9156  14.9588  15.0276  15.0358  15.1366  15.1503  15.2467
    15.3075  15.4759  15.4776  15.5133  15.6945  15.7248  15.7579  15.7647
    15.8235  15.8547  15.9061  15.9566  16.1158  16.1268  16.1728  16.2092
    16.2236  16.2757  16.3471  16.3562  16.3797  16.4170  16.4276  16.5536
    16.5632  16.5901  16.6102  16.6382  16.6499  16.7014  16.7652  16.9284
    16.9336  16.9557  17.1093  17.1193  17.2317  17.2442  17.3407  17.3479
    17.3767  17.4046  17.4375  17.5388  17.6682  17.7088  17.7509  17.7599
    17.7609  17.9060  17.9716  17.9761  17.9906  18.1663  18.2044  18.2184
    18.2245  18.2679  18.3028  18.3159  18.3679  18.3898  18.4122  18.4213
    18.5868  18.6272  18.6662  18.6781  18.7349  18.7728  18.8176  18.8414
    18.9831  19.0452  19.3114  19.3807  19.3919  19.5145  19.5940  19.6127
    19.6490  19.7403  19.9136  19.9380  19.9616  19.9870  20.0343  20.1160
    20.1931  20.2415  20.2468  20.3181  20.3915  20.4471  20.4848  20.4919
    20.5426  20.6128  20.7306  20.7327  20.7904  20.7982  20.8638  20.8861
    20.9643  20.9893  21.0148  21.0173  21.0607  21.1039  21.1664  21.1774
    21.2240  21.3146  21.3238  21.4027  21.4909  21.5374  21.5550  21.5865
    21.6636  21.6929  21.8369  21.8490  21.8955  21.9465  22.0014  22.0434
    22.0890  22.1771  22.2388  22.2752  22.3154  22.3158  22.3710  22.4381
    22.5073  22.5647  22.5984  22.6105  22.6377  22.7410  22.7822  22.8421
    22.8597  22.8806  22.8931  23.0381  23.0549  23.0861  23.1302  23.1863
    23.2046  23.2422  23.2703  23.2824  23.3835  23.4673  23.5009  23.5116
    23.5449  23.5677  23.6414  23.6795  23.9148  23.9681  24.1034  24.1135
    24.1687  24.2257  24.2794  24.2854  24.4477  24.4502  24.4943  24.5339
    24.6163  24.6489  24.6834  24.7121  24.8770  24.9034  25.0266  25.0363
    25.1776  25.2926  25.3586  25.3806  25.4053  25.4189  25.4729  25.5145
    25.5440  25.5788  25.6726  25.6854  25.8351  25.8960  25.9252  25.9816
    25.9925  26.0333  26.0867  26.1001  26.1421  26.2572  26.2708  26.3599
    26.4003  26.4387  26.4416  26.5867  26.6653  26.6760  26.7176  26.7225
    26.7742  26.8193  26.8693  27.0594  27.1057  27.1228  27.1313  27.1894
    27.2280  27.2557  27.4817  27.4865  27.5520  27.5793  27.6111  27.6469
    27.6805  27.6910  27.7248  27.7475  27.8894  27.9024  27.9079  28.2150
    28.2398  28.2558  28.2577  28.3131  28.3959  28.4175  28.4557  28.5291
    28.5381  28.5497  28.5889  28.7097  28.7124  28.7374  28.8194  28.8580
    28.9527  29.0715  29.0793  29.1908

          k = 0.0000 0.0000 0.0235 ( 32871 PWs)   bands (ev):

   -29.5582 -29.5581 -28.0525 -28.0524 -21.3642 -21.1829 -20.7396 -20.0890
   -19.2317 -18.2252 -17.1675 -16.8392 -16.7687 -16.3664 -16.1941 -15.7338
   -15.5478 -14.6908 -14.6882 -14.3527 -14.0720 -14.0616 -13.8500 -12.9645
   -12.5490 -12.3952 -12.1494 -11.9314 -11.8818 -11.1723 -11.1299 -11.0108
   -10.3715 -10.2699 -10.2682 -10.1226 -10.0202  -9.4454  -9.3234  -9.1467
    -8.9174  -8.9132  -8.5785  -8.3002  -8.0702  -8.0701  -7.9602  -7.8812
    -7.5242  -7.1762  -6.8084  -6.5904  -6.4906  -6.0274  -5.6901  -5.5293
    -5.4685  -5.3961  -5.3077  -4.5260  -4.3943  -4.2418  -3.7195  -3.3204
    -3.0526  -2.6621  -1.0681  -0.8321  -0.3881  -0.2778  -0.0652   0.1384
     0.9994   1.2368   1.4020   1.6736   2.1113   2.4573   2.4743   2.8911
     2.9349   3.0978   3.1504   3.3903   3.4834   3.5259   3.8624   3.9896
     4.0278   4.0514   4.2721   4.3403   4.6586   4.7117   4.9143   4.9325
     4.9956   5.1855   5.5679   5.6373   5.8119   5.8898   6.0405   6.2843
     6.3076   6.3251   6.5152   6.5355   6.5796   6.7284   6.7582   7.0410
     7.0598   7.1117   7.3758   7.4874   7.6366   7.7620   7.8925   7.9559
     8.0089   8.2031   8.2261   8.2707   8.3085   8.3475   8.4876   8.6142
     8.7271   8.7413   8.7771   8.8125   8.8731   8.9075   8.9562   8.9717
     9.0080   9.0117   9.0558   9.0730   9.0973   9.1747   9.2015   9.2098
     9.3146   9.4670   9.5941   9.6735   9.7001   9.7985   9.8712   9.9316
    10.1152  10.1957  10.2676  10.3001  10.3113  10.3876  10.5258  10.5662
    10.6244  10.6284  10.6324  10.8192  10.8369  10.8714  10.8793  10.9167
    10.9512  10.9859  11.0122  11.0950  11.1444  11.1928  11.1929  11.2011
    11.2673  11.2949  11.3249  11.3254  11.3516  11.3962  11.4755  11.4774
    11.6192  11.7698  11.7818  11.8027  11.8282  11.8701  11.8724  11.9296
    11.9695  12.0219  12.0935  12.1497  12.3686  12.6273  12.6522  12.6552
    12.8361  12.9234  12.9983  13.0921  13.1060  13.1421  13.2145  13.3779
    13.4409  13.4472  13.5517  13.5557  13.6315  13.6388  13.6652  13.7313
    13.8196  13.8496  13.8609  13.8840  13.9004  14.0007  14.0724  14.1955
    14.2077  14.2654  14.4226  14.4895  14.6616  14.8274  14.8467  14.8686
    14.9083  14.9225  14.9751  14.9785  15.0053  15.0542  15.0887  15.1964
    15.2254  15.3547  15.3853  15.5536  15.6579  15.6751  15.7781  15.7884
    15.8002  15.8876  15.9043  15.9756  16.0785  16.0912  16.1902  16.2454
    16.2461  16.2508  16.3239  16.4167  16.4199  16.4431  16.4804  16.4845
    16.5078  16.5170  16.6268  16.6596  16.7638  16.7646  16.8173  16.9350
    16.9696  16.9779  17.0030  17.0500  17.1853  17.2366  17.2819  17.2959
    17.3965  17.4006  17.4072  17.4783  17.6110  17.7149  17.7248  17.7647
    17.7801  17.8892  17.9491  18.0454  18.0888  18.1702  18.1874  18.2089
    18.2165  18.2252  18.3237  18.3387  18.4875  18.4983  18.5281  18.5433
    18.6131  18.6905  18.7451  18.7514  18.9022  18.9751  18.9939  18.9997
    19.0912  19.2851  19.3067  19.3738  19.4057  19.5549  19.6095  19.6882
    19.6914  19.7094  19.7700  19.9140  19.9928  20.0209  20.0398  20.2189
    20.2289  20.3148  20.3965  20.4104  20.4202  20.4426  20.4789  20.4966
    20.5677  20.6339  20.7123  20.8181  20.8651  20.8689  20.9279  20.9791
    20.9959  21.0293  21.0510  21.0546  21.0805  21.1085  21.1803  21.1871
    21.2443  21.3590  21.4197  21.4340  21.5340  21.5721  21.5885  21.6383
    21.6737  21.7189  21.8069  21.8183  21.8774  21.9928  22.0257  22.0379
    22.0691  22.1971  22.2316  22.2961  22.3220  22.3424  22.3470  22.3721
    22.4081  22.5686  22.6214  22.6625  22.7002  22.7127  22.7797  22.7859
    22.8024  22.8682  22.9438  23.0027  23.1400  23.1613  23.1890  23.2126
    23.2540  23.2684  23.3544  23.3609  23.4235  23.4284  23.4774  23.4849
    23.4892  23.7094  23.7095  23.7217  23.8982  23.9398  24.0237  24.0855
    24.1464  24.2259  24.2410  24.2831  24.4474  24.4974  24.5089  24.5268
    24.6110  24.6132  24.6954  24.7948  24.8672  24.9390  24.9537  25.0644
    25.1004  25.1373  25.2366  25.3243  25.3789  25.4179  25.4371  25.4692
    25.5302  25.6249  25.6269  25.7307  25.9237  25.9798  26.0099  26.0122
    26.0431  26.0767  26.1109  26.1615  26.3146  26.3244  26.3604  26.4419
    26.4900  26.4922  26.5121  26.5402  26.6685  26.6828  26.7239  26.7628
    26.8132  26.8410  26.8782  26.8909  27.0262  27.0685  27.1106  27.1644
    27.1664  27.2231  27.3616  27.4933  27.5319  27.6246  27.6885  27.7105
    27.7523  27.7682  27.7712  27.8708  27.8913  27.9814  28.0935  28.1989
    28.2903  28.3122  28.3164  28.3255  28.3403  28.3788  28.3896  28.4094
    28.4343  28.4632  28.4934  28.6143  28.6749  28.6911  28.7186  28.8735
    28.9434  28.9748  29.0888  29.1360

          k = 0.0000 0.0000 0.0282 ( 32884 PWs)   bands (ev):

   -29.5447 -29.5446 -28.0716 -28.0715 -21.3383 -21.1572 -20.7142 -20.0640
   -19.2073 -18.2024 -17.1773 -16.9954 -16.9374 -16.5285 -16.2391 -15.8429
   -15.6100 -14.6487 -14.5438 -14.1836 -14.0026 -13.9079 -13.8579 -13.0714
   -12.4706 -12.3243 -12.0489 -11.9801 -11.8231 -11.1736 -11.0978 -10.9555
   -10.4049 -10.2502 -10.2485 -10.0884  -9.9622  -9.4509  -9.2934  -9.1619
    -8.8892  -8.8686  -8.5347  -8.2733  -8.0937  -8.0934  -8.0358  -7.8371
    -7.4982  -7.1718  -6.8877  -6.5659  -6.5248  -6.1003  -5.7345  -5.5365
    -5.5083  -5.4276  -5.3284  -4.6623  -4.3853  -4.3823  -3.8663  -3.3571
    -3.1994  -2.7923  -0.9455  -0.6673  -0.2702  -0.2159   0.1084   0.3137
     0.9575   1.2721   1.4364   1.7074   2.1445   2.4141   2.4930   2.9264
     2.9623   3.1330   3.1797   3.4250   3.5148   3.5602   3.8970   3.9675
     4.0247   4.0771   4.3000   4.3734   4.6924   4.7469   4.9433   4.9706
     5.0255   5.2003   5.5722   5.6020   5.7701   5.9064   5.9967   6.3223
     6.3471   6.3612   6.4796   6.5674   6.6412   6.6770   6.7632   6.9642
     7.0862   7.1410   7.2249   7.3940   7.5136   7.5814   7.7969   7.9353
     7.9955   8.1032   8.1209   8.1541   8.2603   8.3663   8.4732   8.5213
     8.5747   8.7568   8.7687   8.8117   8.8170   8.8377   8.8984   8.9224
     8.9381   8.9757   8.9865   8.9931   9.0251   9.0447   9.0462   9.2349
     9.3431   9.3659   9.5013   9.5420   9.5851   9.6042   9.8575   9.8845
    10.0656  10.1448  10.1498  10.2322  10.2325  10.2916  10.3693  10.3951
    10.4404  10.6336  10.6598  10.6850  10.7397  10.8624  10.9043  10.9440
    10.9550  11.0292  11.0697  11.1137  11.1789  11.1973  11.2136  11.2986
    11.2993  11.3175  11.3291  11.3436  11.3947  11.3976  11.5871  11.6011
    11.6134  11.6420  11.6827  11.7077  11.8128  11.8812  11.8829  11.9933
    12.0068  12.0332  12.1405  12.1416  12.5615  12.5728  12.5944  12.7094
    12.9022  12.9210  13.0044  13.0164  13.1093  13.1441  13.2999  13.3468
    13.4214  13.5466  13.6457  13.6493  13.6686  13.7149  13.7276  13.8554
    13.9054  13.9286  14.0399  14.0436  14.0438  14.1003  14.2174  14.2311
    14.2502  14.3475  14.4899  14.6481  14.6884  14.7038  14.8116  14.8601
    14.8617  14.8729  14.9469  15.0560  15.0663  15.1627  15.1981  15.2004
    15.3223  15.3346  15.3709  15.4075  15.5601  15.6260  15.7856  15.7917
    15.8397  15.9308  15.9779  16.0519  16.0534  16.1049  16.1122  16.1976
    16.2260  16.2634  16.2957  16.3892  16.4064  16.4115  16.4722  16.5189
    16.5500  16.5687  16.7017  16.7351  16.7922  16.8322  16.8376  16.9064
    16.9752  16.9839  17.0740  17.0782  17.1063  17.1658  17.2169  17.2477
    17.4183  17.4555  17.4570  17.4965  17.5426  17.6895  17.7220  17.7429
    17.7754  17.7957  18.0100  18.0508  18.0590  18.1349  18.1462  18.1552
    18.2268  18.2810  18.2862  18.4632  18.4948  18.6410  18.6526  18.6811
    18.6850  18.7490  18.8530  18.8988  19.1448  19.1706  19.2055  19.2682
    19.2784  19.2994  19.3423  19.4513  19.5738  19.6221  19.6248  19.6286
    19.6541  19.6645  19.7727  19.8564  20.0218  20.0548  20.1269  20.1352
    20.2498  20.2736  20.3153  20.5236  20.5240  20.5756  20.5984  20.6328
    20.6575  20.6693  20.7157  20.8574  20.8816  20.8912  20.8983  20.9296
    20.9723  21.0810  21.0882  21.1093  21.1583  21.1714  21.2012  21.2160
    21.3100  21.4164  21.4727  21.4894  21.5492  21.6340  21.7103  21.7316
    21.7444  21.7683  21.8045  21.8334  21.9108  21.9909  22.0849  22.0934
    22.1048  22.1794  22.2014  22.2360  22.2629  22.2921  22.3530  22.4016
    22.4225  22.5696  22.6281  22.6596  22.6894  22.6923  22.7188  22.7580
    22.7985  22.9538  22.9635  23.0252  23.0614  23.1136  23.1184  23.1189
    23.3211  23.3321  23.3935  23.4013  23.4504  23.4888  23.5894  23.6031
    23.6493  23.7074  23.7203  23.8168  23.8429  23.9762  23.9871  24.0667
    24.1856  24.2188  24.2461  24.2615  24.4931  24.4952  24.5281  24.5460
    24.6043  24.6324  24.6610  24.7071  24.7341  24.8392  24.8744  24.9711
    25.1449  25.1519  25.2995  25.3336  25.3926  25.4201  25.4880  25.4898
    25.4915  25.6282  25.6560  25.7873  25.9121  25.9123  25.9880  26.0353
    26.0454  26.0838  26.2533  26.3497  26.3521  26.3887  26.4056  26.4967
    26.5556  26.5804  26.5871  26.6399  26.6491  26.7001  26.7246  26.7381
    26.7777  26.7814  26.9059  26.9085  27.0210  27.0383  27.0904  27.0978
    27.2259  27.2450  27.2489  27.5075  27.5323  27.5470  27.7472  27.7492
    27.7969  27.8708  27.8773  27.9660  27.9950  28.0531  28.1410  28.2081
    28.2657  28.2913  28.3151  28.3292  28.3379  28.3644  28.3654  28.3872
    28.3939  28.4588  28.4978  28.5213  28.5327  28.6544  28.7418  28.9276
    28.9764  28.9821  29.0736  29.0981

          k = 0.0000 0.0000 0.0329 ( 32906 PWs)   bands (ev):

   -29.5289 -29.5287 -28.0939 -28.0938 -21.3077 -21.1270 -20.6842 -20.0345
   -19.1786 -18.1758 -17.2630 -17.1082 -17.0793 -16.6847 -16.3175 -15.9180
   -15.6943 -14.6145 -14.4083 -14.0959 -14.0014 -13.7367 -13.6947 -13.1821
   -12.4119 -12.2476 -12.0203 -11.9399 -11.7454 -11.2384 -11.0180 -10.8760
   -10.4557 -10.2271 -10.2255 -10.0329  -9.9015  -9.4845  -9.2580  -9.1459
    -8.8559  -8.8226  -8.4901  -8.2420  -8.1211  -8.1204  -8.1107  -7.7953
    -7.4675  -7.1770  -6.9719  -6.5710  -6.5369  -6.1821  -5.7859  -5.6294
    -5.4839  -5.4520  -5.3547  -4.8114  -4.5341  -4.3762  -4.0204  -3.4426
    -3.3050  -2.9253  -0.8209  -0.5090  -0.2497  -0.0310   0.2995   0.5080
     0.9110   1.3137   1.4769   1.7472   2.1835   2.3455   2.5351   2.9680
     2.9942   3.1746   3.2139   3.4659   3.5520   3.6008   3.8888   3.9377
     4.0660   4.1183   4.3327   4.4122   4.7321   4.7885   4.9747   5.0149
     5.0604   5.2157   5.5004   5.6420   5.7193   5.9338   5.9535   6.3665
     6.3932   6.3957   6.4480   6.5599   6.6079   6.7491   6.8039   6.8755
     7.0366   7.1449   7.1635   7.1732   7.3407   7.5081   7.6105   7.9140
     7.9839   8.0123   8.0539   8.0681   8.2823   8.2995   8.3799   8.4084
     8.5188   8.5581   8.6171   8.6779   8.7486   8.8204   8.8403   8.8480
     8.8628   8.9146   8.9644   9.0225   9.0361   9.0504   9.0851   9.2342
     9.2721   9.3128   9.3232   9.3796   9.4160   9.5303   9.7819   9.8416
     9.9424  10.0217  10.0409  10.1624  10.1759  10.2613  10.2719  10.2754
    10.3424  10.4411  10.4430  10.6888  10.7251  10.7660  10.8892  10.9267
    10.9607  11.0654  11.0987  11.1298  11.1356  11.1666  11.2812  11.2947
    11.3132  11.3910  11.4210  11.4217  11.4779  11.5202  11.5612  11.5723
    11.5851  11.6450  11.7520  11.7533  11.7600  11.8837  11.9258  11.9895
    12.0325  12.0645  12.1614  12.3089  12.4445  12.5094  12.6048  12.6713
    12.8221  12.9930  13.0530  13.0906  13.1421  13.2074  13.3038  13.3141
    13.4211  13.5559  13.6456  13.6939  13.7056  13.8774  13.9220  13.9617
    13.9747  14.0148  14.0616  14.1222  14.1896  14.2074  14.2853  14.3028
    14.4891  14.5166  14.5639  14.6537  14.6822  14.6843  14.7496  14.8088
    14.8451  14.8551  14.8630  14.9962  15.1013  15.1646  15.1942  15.2441
    15.3572  15.4956  15.5436  15.5565  15.5601  15.6543  15.8007  15.8271
    15.8646  15.8747  15.9491  15.9953  16.0070  16.0984  16.1210  16.1573
    16.3018  16.3190  16.3433  16.3665  16.3824  16.3988  16.5390  16.5473
    16.5881  16.6131  16.6555  16.6936  16.7818  16.8309  16.8620  16.8802
    16.9562  16.9646  17.0671  17.1084  17.1166  17.1394  17.2877  17.4023
    17.4329  17.4571  17.5045  17.5266  17.5404  17.6953  17.7179  17.7644
    17.7880  17.8396  17.8814  17.9889  18.0058  18.1228  18.1606  18.2176
    18.2474  18.2921  18.4188  18.4499  18.5281  18.6153  18.7702  18.7858
    18.8150  19.0263  19.0388  19.0840  19.1491  19.1570  19.2907  19.3372
    19.4343  19.4676  19.4791  19.6208  19.6238  19.6315  19.6354  19.7074
    19.7346  19.7935  19.8322  19.8961  19.9779  20.1123  20.1204  20.2224
    20.2359  20.3076  20.3404  20.5182  20.5550  20.6485  20.6965  20.7229
    20.7461  20.7468  20.7524  20.7835  20.8000  20.8730  20.9431  20.9806
    21.0113  21.0945  21.0995  21.1404  21.1981  21.2362  21.2367  21.3229
    21.3571  21.4394  21.5650  21.5945  21.6282  21.6698  21.7056  21.7378
    21.7779  21.8648  21.8720  21.9074  22.0109  22.0184  22.0600  22.0871
    22.1458  22.1993  22.2184  22.2431  22.2957  22.3154  22.3747  22.4102
    22.4934  22.5194  22.5852  22.6417  22.6566  22.6760  22.7708  22.8106
    22.8264  22.8378  22.8713  22.9666  23.0817  23.1018  23.1608  23.1991
    23.2813  23.3451  23.3567  23.4402  23.4917  23.4984  23.5053  23.6276
    23.6484  23.7874  23.8975  23.9624  23.9719  24.0307  24.0400  24.0608
    24.2368  24.2374  24.2695  24.2913  24.4401  24.4541  24.4692  24.5316
    24.5423  24.5542  24.5831  24.6607  24.7845  24.8016  24.8131  25.0162
    25.0633  25.0667  25.3629  25.4516  25.4528  25.5297  25.5333  25.5820
    25.6027  25.6810  25.7110  25.7196  25.7570  25.9304  25.9645  26.0114
    26.0805  26.1276  26.2035  26.3023  26.4134  26.4694  26.4694  26.4857
    26.5462  26.5501  26.5922  26.6117  26.6376  26.7313  26.7512  26.7682
    26.8285  26.9637  26.9656  26.9664  27.0303  27.0408  27.0762  27.1550
    27.1881  27.3387  27.3475  27.5002  27.5404  27.5599  27.7944  27.8006
    27.8394  27.8545  27.9664  28.0072  28.0167  28.0691  28.0709  28.1797
    28.2204  28.2257  28.2497  28.2543  28.3047  28.3469  28.3947  28.4295
    28.4517  28.4845  28.5322  28.6675  28.7114  28.7289  28.8023  28.8610
    28.9352  28.9602  29.0037  29.0293

          k = 0.0000 0.0000 0.0376 ( 32932 PWs)   bands (ev):

   -29.5107 -29.5106 -28.1192 -28.1190 -21.2724 -21.0920 -20.6497 -20.0005
   -19.1455 -18.1458 -17.4198 -17.2788 -17.1065 -16.8216 -16.4292 -15.9596
   -15.7944 -14.5814 -14.2993 -14.1840 -13.8173 -13.5550 -13.5098 -13.2908
   -12.4030 -12.1656 -12.0080 -11.8259 -11.6636 -11.3086 -10.9357 -10.7861
   -10.5148 -10.2007 -10.1993  -9.9630  -9.8398  -9.5408  -9.2171  -9.1032
    -8.8175  -8.7757  -8.4553  -8.2075  -8.1750  -8.1521  -8.1491  -7.7581
    -7.4320  -7.1930  -7.0602  -6.6285  -6.5036  -6.2721  -5.8440  -5.7391
    -5.4767  -5.4561  -5.3866  -4.9698  -4.6937  -4.3733  -4.1729  -3.5869
    -3.3574  -3.0596  -0.6955  -0.3876  -0.1872   0.1622   0.5045   0.7178
     0.8623   1.3616   1.5237   1.7930   2.2284   2.2697   2.5835   3.0161
     3.0306   3.2225   3.2525   3.5124   3.5950   3.6476   3.8018   3.9845
     4.1137   4.1665   4.3698   4.4566   4.7775   4.8364   5.0045   5.0652
     5.0997   5.2307   5.4268   5.6653   5.6879   5.9122   5.9670   6.4163
     6.4214   6.4263   6.4460   6.4692   6.6516   6.7762   6.8392   6.8506
     6.8964   6.9129   7.0828   7.1935   7.2341   7.3886   7.4467   7.7918
     7.9103   7.9682   8.0347   8.0973   8.1189   8.1638   8.2808   8.3330
     8.3831   8.4570   8.4580   8.6002   8.6104   8.7045   8.7343   8.8812
     8.8824   8.9181   8.9362   9.0033   9.0382   9.0672   9.1070   9.1254
     9.1341   9.1641   9.2871   9.3147   9.4101   9.4582   9.5394   9.7734
     9.7930   9.8552   9.9471  10.1095  10.1118  10.1890  10.2129  10.2400
    10.2758  10.2913  10.3172  10.5055  10.6145  10.7398  10.9477  10.9928
    11.0538  11.0683  11.0787  11.0808  11.0942  11.1416  11.1540  11.2700
    11.3287  11.3382  11.4411  11.4593  11.5089  11.5093  11.5496  11.6597
    11.7564  11.7822  11.8032  11.8113  11.8279  11.9424  11.9728  12.0438
    12.0805  12.1160  12.1393  12.2716  12.4330  12.4371  12.4653  12.6800
    12.7360  12.9602  13.0577  13.1694  13.2292  13.2881  13.3358  13.4006
    13.5148  13.5588  13.6311  13.6940  13.7696  13.8581  13.9560  14.0259
    14.0547  14.1149  14.1191  14.1942  14.2591  14.2622  14.3306  14.4102
    14.5122  14.6143  14.6726  14.6744  14.6995  14.7060  14.7328  14.8117
    14.8338  14.9191  14.9191  15.0874  15.1105  15.1589  15.1803  15.3106
    15.4119  15.4513  15.6413  15.6546  15.6921  15.7607  15.8180  15.8795
    15.8884  15.9561  15.9743  15.9927  16.0136  16.0342  16.0576  16.2088
    16.3529  16.3535  16.3937  16.4185  16.4213  16.4475  16.4815  16.5600
    16.5997  16.6294  16.6569  16.6796  16.7230  16.7394  16.7553  16.8203
    16.9891  17.1141  17.1362  17.1379  17.1865  17.2064  17.2401  17.3771
    17.4496  17.4613  17.4666  17.6455  17.6547  17.7335  17.7744  17.7877
    17.8080  17.8476  17.8821  18.0012  18.0179  18.2110  18.2133  18.2606
    18.2829  18.3763  18.4640  18.5368  18.5525  18.5894  18.8170  18.8960
    18.9088  18.9931  19.0364  19.2157  19.2542  19.2800  19.3659  19.3975
    19.4841  19.4956  19.5430  19.6369  19.6531  19.6959  19.7795  19.7905
    19.8991  19.9186  20.0280  20.0612  20.1096  20.1769  20.2441  20.3072
    20.3077  20.3344  20.4401  20.4890  20.5084  20.5681  20.6699  20.7051
    20.7465  20.7697  20.7813  20.8533  20.8739  20.8863  21.0360  21.0432
    21.0850  21.0945  21.1580  21.1846  21.2587  21.2950  21.3052  21.3562
    21.3945  21.4123  21.5742  21.6511  21.6569  21.7366  21.7474  21.8157
    21.8229  21.8892  21.9247  21.9253  21.9736  21.9902  22.0892  22.1018
    22.2377  22.2562  22.2896  22.3295  22.3661  22.3986  22.4053  22.4172
    22.4580  22.5932  22.6062  22.6366  22.6559  22.7183  22.7329  22.7503
    22.8078  22.8585  22.9052  22.9310  23.0491  23.1098  23.1762  23.2148
    23.2771  23.3033  23.3437  23.4019  23.4652  23.5720  23.5769  23.7012
    23.7647  23.8570  23.9002  23.9571  23.9668  24.1187  24.1347  24.1464
    24.2168  24.2472  24.2887  24.3283  24.3356  24.3987  24.4063  24.4144
    24.4942  24.5011  24.5526  24.8725  24.8928  24.8995  24.9147  24.9970
    25.0381  25.1111  25.3354  25.4116  25.4706  25.4709  25.6021  25.6230
    25.6642  25.7336  25.7396  25.7923  25.8045  25.9640  25.9800  26.0807
    26.1255  26.1579  26.1922  26.2656  26.3005  26.3921  26.4189  26.4430
    26.5078  26.5248  26.5304  26.5446  26.7087  26.7178  26.7391  26.7724
    26.9664  27.0161  27.0523  27.0645  27.0780  27.2119  27.2125  27.2220
    27.2451  27.4341  27.5324  27.5401  27.5803  27.6097  27.8027  27.8120
    27.8338  27.8857  27.9103  27.9254  27.9330  27.9662  28.0063  28.1654
    28.2097  28.2288  28.2901  28.3251  28.3539  28.3569  28.4451  28.4679
    28.5683  28.6004  28.6028  28.6503  28.6924  28.8008  28.8296  28.9139
    28.9517  28.9591  29.0038  29.0488

          k = 0.0000 0.0000 0.0423 ( 32960 PWs)   bands (ev):

   -29.4903 -29.4902 -28.1472 -28.1471 -21.2324 -21.0525 -20.6106 -19.9621
   -19.1082 -18.1130 -17.5906 -17.4472 -17.1665 -16.9056 -16.5616 -15.9812
   -15.9053 -14.5471 -14.3363 -14.1326 -13.6398 -13.4426 -13.3167 -13.3150
   -12.4498 -12.0801 -11.9369 -11.7112 -11.5786 -11.3772 -10.8574 -10.6887
   -10.5723 -10.1713 -10.1699  -9.8829  -9.7795  -9.6083  -9.1708  -9.0439
    -8.7740  -8.7276  -8.4528  -8.2079  -8.1952  -8.1864  -8.1541  -7.7276
    -7.3919  -7.2201  -7.1517  -6.6963  -6.4660  -6.3697  -5.9082  -5.8626
    -5.5043  -5.4254  -5.4236  -5.1348  -4.8583  -4.4162  -4.2824  -3.7478
    -3.3975  -3.1941  -0.5702  -0.3318  -0.0549   0.3576   0.7205   0.8144
     0.9420   1.4160   1.5765   1.8448   2.1878   2.2788   2.6383   3.0705
     3.0710   3.2768   3.2953   3.5622   3.6438   3.7005   3.7101   4.0373
     4.1678   4.2212   4.4111   4.5064   4.8285   4.8906   5.0226   5.1215
     5.1425   5.2438   5.3622   5.6109   5.7392   5.8745   6.0045   6.3887
     6.3911   6.4398   6.4698   6.5052   6.6632   6.6692   6.7055   6.7857
     6.8164   6.9002   6.9960   7.1723   7.2000   7.2511   7.3640   7.7171
     7.7829   7.7891   7.9384   8.0569   8.0578   8.0683   8.1345   8.1501
     8.2523   8.3624   8.4596   8.5104   8.5756   8.5952   8.6775   8.7108
     8.8215   8.8611   8.8730   8.9542   9.0188   9.0484   9.0634   9.0920
     9.1303   9.1686   9.2107   9.3031   9.3460   9.3627   9.4819   9.5921
     9.6131   9.8117   9.8762   9.9083   9.9497   9.9975  10.1732  10.1753
    10.2305  10.2876  10.3671  10.4037  10.4977  10.7847  10.8362  10.9673
    10.9675  10.9725  11.0512  11.0667  11.1452  11.1823  11.2543  11.2843
    11.2930  11.3649  11.4017  11.4397  11.4838  11.5397  11.5671  11.5682
    11.7544  11.8550  11.8885  11.9543  11.9744  12.0414  12.0861  12.1046
    12.1348  12.1432  12.1506  12.2009  12.2313  12.4128  12.5298  12.6652
    12.7365  12.8870  13.1103  13.1865  13.2077  13.2744  13.3498  13.4847
    13.5188  13.6450  13.7092  13.7151  13.8423  13.8526  13.9277  14.0186
    14.0330  14.0855  14.1840  14.2380  14.3153  14.3414  14.3911  14.4076
    14.5010  14.6059  14.6360  14.6410  14.6990  14.7388  14.8383  14.9124
    15.0138  15.0585  15.0689  15.1929  15.2046  15.2293  15.3263  15.3715
    15.3873  15.4522  15.5582  15.6395  15.6850  15.7616  15.8103  15.8540
    15.9033  15.9063  16.0319  16.1672  16.1810  16.2008  16.2309  16.2971
    16.3539  16.3982  16.4199  16.4277  16.4538  16.4789  16.4964  16.5450
    16.5763  16.5764  16.5842  16.6515  16.6844  16.7141  16.7152  16.9030
    17.1168  17.1496  17.1759  17.1851  17.2208  17.2934  17.3017  17.3484
    17.4032  17.4838  17.5125  17.5897  17.6618  17.7378  17.8117  17.8308
    17.8890  18.0172  18.0309  18.0660  18.1075  18.2440  18.2697  18.3281
    18.4179  18.4228  18.5682  18.5714  18.6441  18.6891  18.7808  18.8050
    18.9158  18.9962  19.0172  19.2744  19.3032  19.3658  19.4004  19.4038
    19.5340  19.6138  19.6361  19.6387  19.6992  19.7959  19.7999  20.0154
    20.0267  20.0381  20.1264  20.1754  20.2113  20.3252  20.3504  20.3838
    20.4301  20.4395  20.4562  20.5513  20.5836  20.6242  20.7010  20.7198
    20.7244  20.8276  20.8363  20.8423  20.8828  20.9579  21.0357  21.0945
    21.0949  21.1309  21.2441  21.3123  21.3197  21.3673  21.3854  21.3910
    21.4276  21.4732  21.4906  21.6952  21.7065  21.7107  21.7217  21.8083
    21.8104  21.8466  21.8625  21.9555  22.0252  22.0868  22.1786  22.1980
    22.2441  22.2528  22.3014  22.3635  22.4466  22.4640  22.4781  22.4816
    22.5225  22.5753  22.5856  22.6045  22.6326  22.7275  22.7748  22.7942
    22.8447  22.9061  22.9729  22.9846  22.9865  23.0049  23.1895  23.3102
    23.3356  23.4108  23.4703  23.4709  23.5155  23.5542  23.6583  23.7040
    23.7642  23.8276  23.9231  23.9666  23.9963  23.9980  24.0475  24.1239
    24.2185  24.2201  24.2647  24.3005  24.3407  24.3518  24.3833  24.4109
    24.5470  24.6700  24.7029  24.9449  24.9469  25.0143  25.0725  25.0869
    25.2195  25.2252  25.2337  25.2684  25.4769  25.4875  25.5563  25.5799
    25.6187  25.7055  25.7063  25.9384  25.9580  25.9865  26.0676  26.1036
    26.1334  26.1864  26.1991  26.2149  26.3092  26.3305  26.3814  26.3908
    26.4122  26.5215  26.5409  26.5814  26.6551  26.7438  26.7939  26.8118
    27.0355  27.0599  27.0781  27.1517  27.1575  27.1654  27.3822  27.4173
    27.4204  27.4532  27.5257  27.5644  27.6095  27.6976  27.7955  27.8050
    27.8260  27.8379  27.8603  27.9452  27.9696  28.0399  28.0658  28.1533
    28.1710  28.2648  28.3448  28.4105  28.4253  28.4356  28.4566  28.4959
    28.5109  28.5343  28.5575  28.6630  28.6784  28.6833  28.7316  28.8485
    28.8879  28.9438  28.9648  29.0341

          k = 0.0000 0.0000 0.0469 ( 32956 PWs)   bands (ev):

   -29.4678 -29.4676 -28.1779 -28.1778 -21.1877 -21.0083 -20.5669 -19.9191
   -19.0667 -18.0792 -17.7627 -17.6109 -17.2849 -16.9226 -16.7038 -16.0233
   -15.9946 -14.5118 -14.4312 -14.0256 -13.5564 -13.4459 -13.1236 -13.1181
   -12.5268 -11.9963 -11.8329 -11.6041 -11.4902 -11.4311 -10.8064 -10.6031
   -10.5849 -10.1388 -10.1376  -9.7954  -9.7397  -9.6613  -9.1191  -8.9752
    -8.7256  -8.6780  -8.4981  -8.2280  -8.2237  -8.1952  -8.1122  -7.7054
    -7.3471  -7.2578  -7.2456  -6.7735  -6.4748  -6.4242  -5.9984  -5.9785
    -5.5354  -5.4648  -5.3929  -5.3041  -5.0251  -4.5525  -4.3000  -3.9118
    -3.4376  -3.3277  -0.4458  -0.3061   0.1114   0.5357   0.7891   0.9452
     1.1755   1.4766   1.6355   1.9024   2.1012   2.3348   2.6992   3.1152
     3.1312   3.3374   3.3420   3.5769   3.6532   3.6987   3.7596   4.0957
     4.2282   4.2822   4.4561   4.5613   4.8845   4.9509   5.0093   5.1838
     5.1870   5.2531   5.3276   5.5593   5.7947   5.8427   6.0435   6.2917
     6.3222   6.4264   6.4998   6.5142   6.5707   6.5820   6.6060   6.6777
     6.7741   6.9276   7.0118   7.0356   7.1027   7.3018   7.3873   7.5802
     7.5931   7.6557   7.7562   7.8627   7.8884   7.9828   8.0308   8.0936
     8.2336   8.2768   8.4290   8.4628   8.4690   8.4809   8.5690   8.5842
     8.7288   8.7468   8.7751   8.8970   8.9819   9.0079   9.0540   9.0568
     9.1160   9.1708   9.1876   9.2494   9.2648   9.4165   9.4338   9.4417
     9.5333   9.6633   9.7136   9.7967   9.8348   9.9151   9.9674  10.1076
    10.1668  10.3447  10.4206  10.4248  10.4265  10.5925  10.8379  10.8700
    10.9005  10.9592  11.0417  11.1035  11.1838  11.1942  11.2324  11.2397
    11.3419  11.3718  11.4161  11.4406  11.4508  11.5862  11.5914  11.6050
    11.6141  11.8878  11.9610  11.9636  12.0094  12.0259  12.0288  12.0595
    12.1652  12.1680  12.2170  12.2866  12.4279  12.5318  12.5363  12.5934
    12.7886  12.8768  13.0899  13.1633  13.2482  13.2487  13.2923  13.3820
    13.4235  13.6580  13.7391  13.7582  13.8305  13.9405  13.9760  14.0056
    14.0565  14.1234  14.1371  14.1527  14.3012  14.3728  14.4161  14.5549
    14.5671  14.5964  14.6501  14.6743  14.7037  14.8041  14.9308  15.0011
    15.1478  15.1788  15.1878  15.2511  15.2899  15.3519  15.3658  15.4503
    15.4517  15.4702  15.5390  15.5574  15.6056  15.7223  15.8261  15.9134
    15.9650  16.0926  16.0933  16.1406  16.2440  16.2800  16.3192  16.3209
    16.3668  16.4442  16.4447  16.4758  16.4874  16.5017  16.5468  16.5580
    16.6268  16.6392  16.6943  16.7021  16.7032  16.7390  16.7558  16.8997
    17.1298  17.1617  17.1667  17.2368  17.2626  17.3318  17.3866  17.4125
    17.4973  17.5817  17.6041  17.6258  17.7315  17.7346  17.8355  17.8424
    17.9178  18.0298  18.1650  18.2023  18.2483  18.3010  18.3786  18.4142
    18.4458  18.4985  18.5285  18.6291  18.7085  18.7715  18.8552  18.9001
    18.9413  19.0334  19.0474  19.1908  19.2665  19.3015  19.5213  19.5536
    19.5757  19.5816  19.7298  19.7341  19.7855  19.7893  19.9796  19.9882
    20.0194  20.1221  20.1721  20.2556  20.2783  20.3062  20.4261  20.4433
    20.5549  20.5766  20.6318  20.6460  20.7249  20.7485  20.7628  20.7757
    20.8363  20.8745  20.9282  20.9316  20.9674  21.0228  21.0408  21.1201
    21.1652  21.1898  21.2728  21.3016  21.4283  21.4404  21.4576  21.4894
    21.4959  21.5153  21.5460  21.6217  21.6620  21.7134  21.7641  21.7712
    21.7778  21.8458  21.8956  21.9442  21.9660  22.0949  22.1947  22.2118
    22.2352  22.2592  22.3415  22.4517  22.4575  22.4731  22.4965  22.5211
    22.5634  22.5746  22.5851  22.6055  22.6647  22.6857  22.6924  22.8910
    22.9066  22.9563  22.9758  23.1563  23.1954  23.2123  23.2360  23.3812
    23.3919  23.4891  23.5245  23.5704  23.5750  23.6255  23.6275  23.6779
    23.7013  23.7396  23.8325  23.9637  24.0480  24.0661  24.1156  24.1632
    24.1708  24.1909  24.1957  24.2988  24.3101  24.3559  24.3983  24.4937
    24.5657  24.8420  24.9165  24.9254  24.9407  25.0090  25.1047  25.1413
    25.3351  25.3563  25.3600  25.3808  25.4484  25.5157  25.5167  25.5482
    25.6679  25.7387  25.7486  25.8681  25.9161  25.9597  25.9951  26.0207
    26.1141  26.1901  26.2553  26.2554  26.2979  26.3030  26.4123  26.4633
    26.5526  26.5728  26.5850  26.6059  26.7370  26.8279  26.8717  26.9217
    27.0125  27.0807  27.0978  27.1576  27.1990  27.2393  27.3279  27.3814
    27.4186  27.4303  27.4318  27.6153  27.7119  27.7126  27.7771  27.7811
    27.8796  27.8921  28.0130  28.0138  28.1064  28.1089  28.1191  28.1889
    28.1982  28.1998  28.2383  28.2632  28.2879  28.3321  28.4654  28.4870
    28.4937  28.4943  28.5248  28.5778  28.6390  28.6612  28.7247  28.7672
    28.9433  29.0056  29.0186  29.0664

          k = 0.0000 0.0000 0.0516 ( 32954 PWs)   bands (ev):

   -29.4431 -29.4429 -28.2110 -28.2109 -21.1384 -20.9596 -20.5187 -19.8718
   -19.0211 -18.0511 -17.9331 -17.7630 -17.4299 -16.9073 -16.8500 -16.1454
   -16.0073 -14.5220 -14.4768 -13.9217 -13.6543 -13.2902 -12.9169 -12.9048
   -12.6144 -11.9272 -11.7154 -11.5431 -11.4196 -11.3978 -10.8235 -10.5651
   -10.4763 -10.1036 -10.1025  -9.7885  -9.7029  -9.6275  -9.0621  -8.9021
    -8.6724  -8.6268  -8.5729  -8.2677  -8.2637  -8.1570  -8.0614  -7.6931
    -7.3407  -7.3053  -7.2976  -6.8592  -6.5869  -6.3783  -6.1448  -6.0547
    -5.5702  -5.5096  -5.4760  -5.3634  -5.1877  -4.7147  -4.2928  -4.0755
    -3.4805  -3.4593  -0.3233  -0.2863   0.2868   0.6125   0.8688   1.1761
     1.4181   1.5436   1.7005   1.9658   2.0117   2.3960   2.7663   3.1630
     3.1983   3.3919   3.4044   3.4851   3.7037   3.7595   3.8249   4.1594
     4.2948   4.3497   4.5043   4.6209   4.9444   4.9508   5.0172   5.2285
     5.2521   5.2572   5.3381   5.5156   5.8114   5.8596   6.0466   6.1301
     6.2715   6.3618   6.3854   6.4018   6.4676   6.6200   6.6423   6.6498
     6.7582   6.8148   6.9050   7.0433   7.1684   7.3549   7.3837   7.4082
     7.4625   7.5110   7.5983   7.6253   7.7594   7.7855   7.9388   7.9974
     8.2316   8.2430   8.2760   8.3002   8.3475   8.3570   8.5315   8.5843
     8.6365   8.6413   8.7060   8.7926   8.8336   8.8473   9.0685   9.0965
     9.1258   9.1801   9.1802   9.2513   9.2528   9.2840   9.3185   9.4625
     9.4769   9.4872   9.5898   9.7424   9.7433   9.8260   9.8666  10.0758
    10.0975  10.3498  10.3912  10.3990  10.4079  10.4765  10.7957  10.8378
    10.8935  10.9064  11.0794  11.1015  11.1313  11.1937  11.2033  11.2549
    11.2632  11.3471  11.4118  11.4670  11.5280  11.5409  11.6408  11.6485
    11.6717  11.7624  11.8457  11.9070  11.9740  11.9996  12.0094  12.1730
    12.2134  12.2177  12.2984  12.4758  12.4882  12.5101  12.6696  12.6927
    12.8184  12.8824  12.9599  13.1810  13.2175  13.2455  13.2629  13.2923
    13.3140  13.5503  13.6733  13.7674  13.8250  13.8829  13.9267  14.0034
    14.0059  14.0075  14.2882  14.2986  14.3591  14.3947  14.4609  14.5275
    14.5956  14.7166  14.7217  14.7866  14.8213  14.9064  14.9890  15.0879
    15.1528  15.1693  15.2056  15.2578  15.2866  15.3446  15.3904  15.3926
    15.3932  15.4320  15.5939  15.6935  15.7586  15.8869  15.9323  16.0512
    16.0672  16.0980  16.1005  16.1680  16.1907  16.2875  16.3104  16.3367
    16.3808  16.4240  16.4749  16.5026  16.5492  16.5554  16.5965  16.6515
    16.6639  16.7148  16.7524  16.8264  16.8385  16.8801  16.9517  16.9931
    17.0226  17.1772  17.2017  17.3417  17.3663  17.3858  17.4755  17.5416
    17.5507  17.6749  17.6976  17.7275  17.8179  17.8414  17.8603  17.9031
    17.9430  18.1212  18.1775  18.2585  18.3269  18.3728  18.4036  18.4065
    18.4995  18.5286  18.5453  18.5667  18.8658  18.9276  18.9754  19.0433
    19.0700  19.0767  19.1008  19.1008  19.2732  19.4209  19.5110  19.5632
    19.6848  19.7417  19.7692  19.7903  19.8238  19.8325  19.8600  19.8925
    19.9459  20.1726  20.2773  20.2911  20.3760  20.3941  20.4246  20.4868
    20.5726  20.6277  20.6996  20.7127  20.7472  20.7825  20.8449  20.8995
    20.9897  21.0205  21.0771  21.1003  21.1211  21.1484  21.1859  21.1935
    21.2459  21.2464  21.3267  21.4021  21.4414  21.4758  21.4892  21.5616
    21.5769  21.5926  21.6080  21.6510  21.7142  21.7183  21.7514  21.8166
    21.8317  21.8682  21.8685  21.9011  21.9348  22.0166  22.0361  22.2548
    22.2658  22.2908  22.3402  22.3459  22.3542  22.4322  22.4331  22.5296
    22.5446  22.5806  22.6910  22.7421  22.7439  22.7949  22.8372  22.8650
    22.9073  23.1540  23.1867  23.2116  23.2417  23.2637  23.3543  23.3958
    23.4696  23.4756  23.5051  23.5446  23.6083  23.6463  23.7307  23.7827
    23.8332  23.8360  23.9258  23.9960  24.0083  24.0190  24.1058  24.1446
    24.1506  24.2369  24.2604  24.3718  24.4059  24.4134  24.5608  24.5761
    24.5839  24.7433  24.8257  24.8911  24.9082  25.0189  25.0898  25.3315
    25.3878  25.4078  25.4450  25.5078  25.5215  25.5596  25.5831  25.6058
    25.6562  25.7286  25.7612  25.8502  25.9466  25.9693  25.9738  26.0618
    26.0800  26.2259  26.2353  26.2678  26.3088  26.3176  26.4973  26.5202
    26.5480  26.5983  26.6419  26.8122  26.8534  26.9676  26.9925  26.9978
    27.0096  27.0769  27.0873  27.1275  27.2044  27.2082  27.2433  27.3387
    27.3767  27.3968  27.4220  27.5139  27.6494  27.6776  27.7516  27.7789
    27.7798  27.8739  27.8898  27.9827  28.0395  28.0598  28.0858  28.1525
    28.1671  28.2145  28.2712  28.3023  28.3876  28.4045  28.4433  28.4461
    28.5323  28.5670  28.5721  28.5997  28.6054  28.6760  28.7313  28.8138
    28.8650  29.0195  29.0522  29.0580

          k = 0.0000 0.0000 0.0563 ( 32990 PWs)   bands (ev):

   -29.4165 -29.4163 -28.2462 -28.2461 -21.0844 -20.9062 -20.4659 -19.8200
   -18.9717 -18.1008 -18.0610 -17.8706 -17.5821 -16.9969 -16.8805 -16.2686
   -16.0240 -14.6022 -14.4450 -13.8249 -13.7546 -13.1352 -12.7457 -12.6767
   -12.6727 -11.8977 -11.5944 -11.5214 -11.3252 -11.3009 -10.8859 -10.4792
   -10.3665 -10.0659 -10.0649  -9.8637  -9.6079  -9.5642  -8.9997  -8.8283
    -8.6594  -8.6146  -8.5738  -8.3105  -8.3056  -8.1124  -8.0051  -7.6928
    -7.4350  -7.3609  -7.2434  -6.9532  -6.7060  -6.3283  -6.3002  -6.1366
    -5.6491  -5.6083  -5.5570  -5.4006  -5.2816  -4.8810  -4.2828  -4.2372
    -3.5873  -3.5268  -0.2656  -0.2040   0.4642   0.5884   1.0543   1.4099
     1.6168   1.6679   1.7714   1.9228   2.0348   2.4624   2.8393   3.2140
     3.2710   3.3754   3.4445   3.4777   3.7742   3.8265   3.8962   4.2274
     4.3677   4.4235   4.5547   4.6845   4.8594   5.0055   5.0891   5.2562
     5.2566   5.3262   5.3828   5.4907   5.7871   5.8502   5.9222   6.1334
     6.1750   6.2404   6.2682   6.2814   6.4545   6.5265   6.6582   6.6918
     6.7200   6.7523   6.9410   7.0275   7.1432   7.1549   7.3472   7.3555
     7.3899   7.4506   7.4909   7.5188   7.5354   7.7211   7.7400   7.9199
     8.0207   8.0976   8.1114   8.1237   8.3534   8.4017   8.4261   8.4620
     8.5000   8.6191   8.6198   8.6858   8.7145   8.8632   9.0331   9.0648
     9.0706   9.0915   9.1442   9.1561   9.2383   9.2789   9.2827   9.3356
     9.3794   9.5171   9.5442   9.6513   9.6997   9.8398   9.8460  10.0284
    10.0684  10.1170  10.3123  10.3697  10.4760  10.5311  10.7430  10.7789
    10.8489  10.9527  10.9948  11.0080  11.1370  11.1737  11.1801  11.2606
    11.2825  11.3277  11.3696  11.4980  11.5218  11.5564  11.6876  11.6964
    11.7049  11.7295  11.7353  11.9085  11.9316  11.9550  11.9816  12.2761
    12.2811  12.3262  12.3974  12.4183  12.4414  12.6073  12.7241  12.7653
    12.8125  12.9016  12.9507  13.0536  13.1844  13.2138  13.2241  13.3186
    13.3251  13.3998  13.5707  13.7206  13.7415  13.8383  13.8736  13.9496
    13.9796  13.9954  14.3452  14.3880  14.4384  14.4435  14.5367  14.5475
    14.6568  14.7606  14.7714  14.8728  14.9684  14.9721  15.0023  15.0956
    15.1574  15.1643  15.2003  15.2132  15.2358  15.3131  15.3840  15.4028
    15.4401  15.4669  15.5285  15.8600  15.9060  15.9805  16.0088  16.0980
    16.1107  16.1169  16.1721  16.1934  16.2633  16.2981  16.3244  16.3473
    16.4159  16.4498  16.5608  16.5823  16.6208  16.6299  16.6480  16.6635
    16.7304  16.7868  16.8374  16.9232  16.9585  17.0105  17.0291  17.0855
    17.1028  17.2790  17.3337  17.4953  17.5190  17.5709  17.5915  17.5977
    17.6519  17.7070  17.8048  17.8293  17.8678  17.8948  17.8966  17.9114
    18.1229  18.1886  18.2573  18.2653  18.3583  18.3834  18.3916  18.4193
    18.5013  18.5582  18.5950  18.6927  18.9534  18.9829  19.0331  19.0550
    19.1333  19.1774  19.2431  19.2978  19.3567  19.3887  19.5567  19.7024
    19.7298  19.7339  19.7536  19.8163  19.8626  19.9127  19.9257  19.9307
    20.0347  20.1106  20.2291  20.2853  20.3188  20.3601  20.4283  20.5000
    20.6355  20.6538  20.6602  20.7741  20.8049  20.8920  20.9604  21.0413
    21.0428  21.0545  21.0865  21.1742  21.1975  21.2358  21.3524  21.3594
    21.3600  21.4413  21.4729  21.4820  21.5236  21.5475  21.5608  21.5762
    21.6012  21.6776  21.7090  21.7550  21.7976  21.8005  21.8326  21.8538
    21.8800  21.8879  21.9048  21.9085  21.9576  21.9642  21.9820  22.1845
    22.2292  22.2338  22.2608  22.3232  22.3436  22.3445  22.4768  22.6008
    22.6220  22.6430  22.7574  22.8324  22.8430  22.8440  22.8675  22.9341
    22.9571  23.0795  23.0905  23.1972  23.2814  23.3138  23.4377  23.5056
    23.5227  23.5848  23.6215  23.6254  23.6525  23.6875  23.7487  23.8747
    23.9479  23.9484  23.9828  24.0658  24.0741  24.0753  24.1492  24.1964
    24.2522  24.3506  24.3809  24.4203  24.4659  24.5041  24.5254  24.6594
    24.7021  24.7281  24.8194  24.8743  24.9339  24.9676  24.9879  25.2840
    25.3507  25.4070  25.4223  25.4679  25.5313  25.6219  25.6395  25.7416
    25.7441  25.7897  25.9044  25.9055  25.9430  25.9882  26.0187  26.2070
    26.2388  26.2718  26.3025  26.3506  26.3693  26.3761  26.4509  26.5113
    26.5960  26.6246  26.7157  26.7477  26.7777  26.8685  26.9415  26.9853
    27.0511  27.0846  27.1021  27.1461  27.1698  27.2050  27.2279  27.3201
    27.3548  27.3595  27.4733  27.4929  27.5271  27.6052  27.6220  27.7297
    27.7980  27.8053  27.8748  27.8915  27.9619  28.0233  28.0238  28.1025
    28.1038  28.1595  28.2060  28.2271  28.3758  28.3924  28.4227  28.5404
    28.5588  28.5593  28.6399  28.6508  28.6644  28.8289  28.8320  28.8637
    28.9217  28.9323  29.0109  29.0268

          k = 0.0000 0.0000 0.0610 ( 33010 PWs)   bands (ev):

   -29.3880 -29.3878 -28.2834 -28.2833 -21.0258 -20.8482 -20.4087 -19.7640
   -18.9189 -18.2648 -18.1626 -17.8805 -17.7350 -17.1424 -16.8513 -16.3890
   -16.0481 -14.6687 -14.4217 -13.8425 -13.7373 -12.9882 -12.8061 -12.4958
   -12.4428 -11.9203 -11.4770 -11.4622 -11.2121 -11.1988 -10.9607 -10.3755
   -10.2663 -10.0259 -10.0250  -9.9290  -9.5137  -9.4959  -8.9321  -8.7572
    -8.7490  -8.5535  -8.5191  -8.3557  -8.3480  -8.0705  -7.9438  -7.7085
    -7.5241  -7.4224  -7.1847  -7.0553  -6.8316  -6.4628  -6.2746  -6.2238
    -5.8222  -5.6492  -5.6060  -5.5538  -5.2571  -5.0471  -4.3958  -4.2757
    -3.7093  -3.5766  -0.2417  -0.0907   0.5478   0.6401   1.2637   1.6315
     1.6963   1.8481   1.8502   1.9236   2.1092   2.5336   2.9180   3.2571
     3.2679   3.3535   3.4993   3.5573   3.8527   3.8997   3.9734   4.2970
     4.4468   4.5035   4.6055   4.7505   4.7535   5.0604   5.1639   5.2564
     5.2577   5.4060   5.4472   5.4987   5.6281   5.7437   5.9836   6.0069
     6.1115   6.1250   6.2216   6.2607   6.3099   6.4931   6.5159   6.7721
     6.7832   6.8031   6.8573   6.9186   7.0302   7.1590   7.1892   7.1947
     7.2056   7.3157   7.5336   7.5386   7.5474   7.5980   7.6400   7.7465
     7.8917   7.9166   7.9197   7.9347   8.2377   8.2766   8.2907   8.4336
     8.4698   8.4787   8.5460   8.6879   8.7916   8.8695   8.8897   8.9037
     8.9369   8.9411   9.0502   9.0692   9.2161   9.2665   9.2914   9.3348
     9.4089   9.4527   9.6175   9.6633   9.7180   9.8339   9.8542   9.8853
     9.9381  10.0688  10.2238  10.3566  10.5470  10.5721  10.7114  10.7217
    10.7282  10.9026  10.9049  10.9978  11.0584  11.1767  11.1786  11.2682
    11.3303  11.3353  11.3962  11.3982  11.4571  11.5200  11.7204  11.7311
    11.7968  11.8043  11.8161  11.8712  11.9115  11.9238  11.9458  12.2781
    12.3274  12.3482  12.3698  12.4231  12.5653  12.6093  12.6611  12.6736
    12.7947  12.8707  12.9652  13.0960  13.1608  13.1659  13.1969  13.2458
    13.3990  13.4139  13.4867  13.6042  13.6089  13.7529  13.8755  13.9697
    14.0201  14.0636  14.3747  14.3873  14.3932  14.4024  14.5767  14.6502
    14.6779  14.7517  14.7902  14.8771  14.9285  14.9771  15.0431  15.0839
    15.0860  15.1026  15.1317  15.3275  15.3550  15.3632  15.4451  15.4717
    15.5220  15.5313  15.6736  15.8384  15.8423  15.9632  16.0115  16.0557
    16.1373  16.1545  16.1716  16.1883  16.3137  16.4126  16.4818  16.4826
    16.4972  16.5469  16.6141  16.6463  16.6940  16.7098  16.7176  16.7984
    16.8108  16.8357  16.8746  16.9460  17.1009  17.1549  17.2122  17.2421
    17.2511  17.3740  17.4699  17.5908  17.6066  17.6910  17.7008  17.7216
    17.8256  17.8669  17.8720  17.8769  17.9131  17.9785  17.9793  18.0068
    18.1736  18.2184  18.2357  18.3054  18.3170  18.4441  18.4653  18.5640
    18.6251  18.6653  18.6825  18.8311  18.9010  18.9625  19.0885  19.1994
    19.2310  19.2510  19.2668  19.2957  19.3418  19.5389  19.5480  19.6969
    19.7341  19.8250  19.9113  19.9304  19.9573  19.9711  20.0030  20.0748
    20.0942  20.1609  20.1771  20.2327  20.2706  20.3897  20.4172  20.5065
    20.5318  20.6044  20.7158  20.7226  20.8259  20.9690  21.0011  21.0196
    21.0623  21.1303  21.1765  21.2385  21.2649  21.2943  21.3386  21.4193
    21.4579  21.5041  21.5126  21.5484  21.5828  21.6200  21.6438  21.6688
    21.7302  21.7579  21.8402  21.8470  21.8641  21.8693  21.9324  21.9530
    21.9556  21.9740  21.9776  21.9984  22.0556  22.0872  22.0876  22.2149
    22.2189  22.2222  22.2689  22.3100  22.3432  22.3805  22.5301  22.6515
    22.6923  22.7022  22.7189  22.7930  22.8478  22.9164  22.9183  22.9539
    23.0280  23.0747  23.0789  23.1423  23.3016  23.3144  23.4675  23.4906
    23.5573  23.6310  23.6738  23.6905  23.7569  23.7634  23.8709  23.9073
    23.9606  24.0678  24.1099  24.1280  24.1941  24.2378  24.2473  24.2686
    24.3148  24.3980  24.4846  24.5755  24.5965  24.6030  24.6078  24.7114
    24.7341  24.8239  24.8416  24.8421  25.0253  25.0458  25.0931  25.1028
    25.3221  25.3507  25.3565  25.4122  25.4326  25.6087  25.6555  25.7027
    25.9136  25.9231  25.9943  26.0296  26.0537  26.0884  26.1338  26.2168
    26.2546  26.2547  26.3827  26.3867  26.3908  26.4150  26.4870  26.5462
    26.5501  26.6075  26.6545  26.7142  26.8008  26.8396  26.8460  26.8725
    26.8839  26.9472  27.0010  27.0273  27.1949  27.2518  27.2800  27.2907
    27.3606  27.4313  27.4810  27.5288  27.5875  27.6201  27.6279  27.6967
    27.7630  27.8083  27.8175  27.8243  27.8585  27.9141  27.9433  28.0078
    28.0263  28.1650  28.2185  28.2520  28.2830  28.3185  28.4461  28.5068
    28.5542  28.5887  28.5928  28.5990  28.6528  28.7064  28.7207  28.7489
    28.8529  28.8569  28.8801  28.8966

          k = 0.0000 0.0000 0.0657 ( 33014 PWs)   bands (ev):

   -29.3577 -29.3576 -28.3222 -28.3220 -20.9625 -20.7857 -20.3470 -19.7037
   -18.8638 -18.4239 -18.3048 -17.8864 -17.8446 -17.2845 -16.8288 -16.4989
   -16.0820 -14.7191 -14.4157 -13.9078 -13.6626 -12.8849 -12.8508 -12.2922
   -12.2068 -11.9732 -11.3723 -11.3721 -11.0932 -11.0910 -11.0329 -10.2618
   -10.2128  -9.9840  -9.9832  -9.9451  -9.4258  -9.4249  -8.8593  -8.8359
    -8.6920  -8.4951  -8.4629  -8.4024  -8.3845  -8.0365  -7.8775  -7.7495
    -7.5974  -7.4870  -7.1662  -7.1214  -6.9635  -6.6302  -6.3160  -6.2178
    -5.9939  -5.7199  -5.6922  -5.6560  -5.2177  -5.2115  -4.5498  -4.2767
    -3.8209  -3.6296  -0.2137   0.0112   0.5143   0.8115   1.4789   1.6947
     1.7819   1.9304   1.9419   2.1838   2.1890   2.6094   3.0019   3.1396
     3.3244   3.4388   3.5554   3.6432   3.9378   3.9792   4.0564   4.3577
     4.5320   4.5895   4.6513   4.6539   4.8155   5.0911   5.1989   5.2696
     5.2757   5.4141   5.4907   5.5241   5.5421   5.6375   5.9193   5.9756
     6.0348   6.0412   6.1299   6.2166   6.3057   6.4106   6.4930   6.6641
     6.6731   6.8590   6.8831   6.8895   6.9333   7.0124   7.0144   7.1043
     7.1195   7.2874   7.3263   7.4782   7.5130   7.6181   7.6363   7.6765
     7.7280   7.7476   7.7480   7.8473   8.0406   8.0783   8.1236   8.2803
     8.4572   8.5495   8.5590   8.6615   8.6782   8.7289   8.7580   8.8265
     8.8303   8.8885   8.8999   9.0232   9.0745   9.2965   9.3408   9.4171
     9.4943   9.5290   9.5979   9.6915   9.6954   9.7697   9.8080   9.8246
     9.8439  10.0382  10.1813  10.3583  10.5170  10.5891  10.6132  10.7086
    10.7407  10.7525  10.8872  10.9075  11.0443  11.1443  11.2036  11.2038
    11.2591  11.3704  11.4206  11.4281  11.5225  11.5244  11.6891  11.7898
    11.7980  11.8410  11.8707  11.8991  11.9123  11.9471  11.9839  12.1440
    12.2442  12.4024  12.4304  12.4533  12.4650  12.5165  12.5913  12.7082
    12.7318  12.8551  12.9587  13.0299  13.0942  13.1395  13.1940  13.3447
    13.4165  13.4646  13.4986  13.5051  13.5210  13.6797  13.9250  14.0493
    14.0747  14.1434  14.2802  14.2876  14.3830  14.4165  14.4872  14.6205
    14.6519  14.6992  14.8028  14.8239  14.8682  14.8827  14.9480  15.0581
    15.1595  15.1669  15.1730  15.3807  15.4082  15.4561  15.5104  15.5604
    15.5744  15.6558  15.7694  15.8634  15.9622  15.9879  15.9941  16.0224
    16.0788  16.1253  16.1476  16.2087  16.3727  16.4602  16.4685  16.5038
    16.6149  16.6281  16.7107  16.7399  16.7525  16.8298  16.8771  16.8914
    16.9211  16.9776  16.9821  17.0857  17.2100  17.2425  17.3864  17.4403
    17.5456  17.5573  17.5688  17.5882  17.6337  17.6935  17.7821  17.7921
    17.7946  17.8624  17.9900  17.9973  18.0435  18.0701  18.1764  18.1985
    18.2256  18.2585  18.3328  18.3988  18.4459  18.4510  18.6044  18.6534
    18.7154  18.7536  18.7667  18.9426  19.0492  19.0672  19.0979  19.1556
    19.1872  19.3067  19.3352  19.3686  19.3927  19.4642  19.6208  19.8093
    19.8393  19.8782  19.9270  19.9406  19.9413  19.9825  20.1051  20.1327
    20.1422  20.1783  20.2535  20.3467  20.3717  20.3757  20.5122  20.5393
    20.6007  20.6361  20.6742  20.7753  20.8766  20.8809  20.8959  20.9406
    21.1289  21.1289  21.1552  21.2077  21.2722  21.3009  21.3920  21.4090
    21.4482  21.4482  21.5350  21.5838  21.7147  21.7229  21.7729  21.7825
    21.7872  21.8096  21.8881  21.8984  21.9049  21.9509  21.9610  22.0234
    22.0483  22.0568  22.1094  22.1433  22.1505  22.2740  22.2918  22.3004
    22.3538  22.3670  22.3790  22.4158  22.4205  22.5123  22.5827  22.5983
    22.7471  22.7481  22.8170  22.8263  22.8289  22.8904  22.9544  22.9934
    23.0789  23.0948  23.1182  23.1276  23.3358  23.3390  23.4666  23.4750
    23.5596  23.6161  23.6643  23.6854  23.8407  23.8528  23.8708  23.9281
    24.0316  24.0461  24.1409  24.1964  24.2330  24.3535  24.3537  24.4558
    24.5146  24.5675  24.5696  24.6305  24.6651  24.6866  24.7811  24.8188
    24.8598  24.9263  24.9558  25.0051  25.0133  25.1064  25.1702  25.1878
    25.2328  25.3043  25.3427  25.3913  25.5222  25.5422  25.7289  25.7507
[...]
     8.6742   8.7023   8.7421   8.9621   9.0675   9.1379   9.2403   9.4762
     9.4845   9.5284   9.6124   9.6500   9.6677   9.8491   9.8660   9.8824
    10.1445  10.2459  10.3301  10.3925  10.4165  10.4539  10.4759  10.5206
    10.5222  10.6112  10.6798  10.7073  10.8254  10.9090  10.9848  11.1403
    11.2052  11.2430  11.2464  11.2910  11.3359  11.3716  11.4408  11.4633
    11.5614  11.6396  11.6514  11.6875  11.8702  11.9317  11.9480  12.0538
    12.1549  12.2984  12.3076  12.3608  12.3853  12.4130  12.7077  12.7856
    12.8473  12.8659  12.9328  13.0521  13.0989  13.1073  13.1481  13.1486
    13.2248  13.2501  13.3294  13.3653  13.3773  13.7012  13.7593  13.9771
    14.0552  14.0755  14.0794  14.1017  14.2206  14.2389  14.2709  14.3059
    14.3339  14.5334  14.6603  14.6692  14.9049  14.9219  14.9538  14.9699
    15.0136  15.0983  15.2263  15.2309  15.2692  15.4789  15.5338  15.6304
    15.8257  15.8453  15.8538  15.9666  16.0164  16.1268  16.1365  16.1534
    16.1830  16.3228  16.3506  16.3604  16.3952  16.4852  16.7077  16.7488
    16.8796  16.8848  17.0145  17.0907  17.1317  17.1468  17.2815  17.3649
    17.4059  17.5554  17.5677  17.6275  17.7136  17.7433  17.8037  17.9079
    17.9911  17.9923  18.0216  18.0360  18.0397  18.1473  18.2070  18.5384
    18.5557  18.6239  18.7434  18.7662  18.7903  18.7962  18.8052  18.8991
    18.9022  18.9660  19.1313  19.1520  19.2192  19.3164  19.3196  19.5179
    19.5498  19.6890  19.7245  19.7267  19.7808  19.7991  19.8362  19.8555
    19.9836  20.0078  20.0303  20.0745  20.1520  20.2835  20.2870  20.3437
    20.4099  20.4205  20.4372  20.5660  20.5819  20.5922  20.6124  20.6797
    20.7019  20.7050  20.7185  20.7448  20.8548  20.9213  20.9836  21.0367
    21.0788  21.0857  21.1025  21.1067  21.2218  21.2849  21.3251  21.3618
    21.3947  21.4356  21.4810  21.5477  21.5676  21.6099  21.6851  21.6887
    21.7271  21.7416  21.7417  21.7991  21.8194  21.8698  21.9025  21.9720
    22.0768  22.0894  22.1278  22.1533  22.1551  22.2115  22.2648  22.2692
    22.3309  22.3961  22.4002  22.5134  22.5674  22.5748  22.6287  22.6480
    22.7281  22.7526  22.7877  22.8134  22.8216  22.9509  22.9892  23.0280
    23.0654  23.1158  23.1626  23.1810  23.2408  23.3209  23.3891  23.4415
    23.5099  23.5170  23.5230  23.5661  23.5806  23.5825  23.6528  23.7347
    23.7469  23.7731  23.8625  23.9020  23.9606  24.0362  24.0878  24.1227
    24.2317  24.2458  24.2549  24.3076  24.3622  24.3790  24.4328  24.4810
    24.4942  24.5600  24.5776  24.6073  24.6141  24.6383  24.7214  24.7746
    24.8203  24.8642  25.0625  25.1103  25.1137  25.1369  25.1843  25.2234
    25.3031  25.3376  25.3757  25.4107  25.4748  25.4865  25.5295  25.5463
    25.5581  25.6362  25.6450  25.6665  25.6721  25.7116  25.7348  25.7426
    25.7909  25.8033  25.8498  25.8743  25.9253  25.9573  26.0886  26.1521
    26.1798  26.1914  26.1993  26.3225  26.3299  26.4274  26.4432  26.4829
    26.6313  26.6626  26.6839  26.7633  26.7693  26.8267  26.9023  26.9668
    26.9905  27.0505  27.1079  27.3351  27.3395  27.3451  27.4301  27.4620
    27.5672  27.6644  27.6727  27.7039  27.7521  27.7681  27.7779  27.7951
    27.8147  27.8702  28.0192  28.0284  28.0330  28.0498  28.1274  28.1449
    28.1583  28.2953  28.2969  28.3912  28.4282  28.4779  28.4860  28.4888
    28.5004  28.5653  28.5961  28.5989

          k = 0.0000 0.0000 0.1080 ( 33000 PWs)   bands (ev):

   -29.0648 -29.0646 -28.6681 -28.6680 -20.1883 -20.0256 -19.7360 -19.5866
   -19.5641 -19.1255 -18.9561 -18.4958 -18.1280 -17.6750 -17.1761 -16.7590
   -16.3518 -14.9464 -14.5677 -13.9782 -13.5892 -12.8313 -12.6007 -11.8971
   -11.5984 -11.0960 -10.8503 -10.7940 -10.5276 -10.0855  -9.9337  -9.8045
    -9.7252  -9.6239  -9.6237  -9.0580  -9.0487  -8.9445  -8.8014  -8.8010
    -8.7862  -8.6772  -8.6306  -8.4882  -8.3353  -8.2709  -8.1087  -7.9823
    -7.9566  -7.6531  -7.6193  -7.5409  -7.4281  -7.1999  -7.1095  -7.0620
    -6.5674  -6.3517  -6.0148  -6.0070  -5.8557  -5.5213  -5.0233  -4.7035
    -4.1528  -4.0016  -0.0119   0.2096   0.7873   1.2573   1.9733   2.4526
     2.7533   2.8083   3.0451   3.2353   3.3537   3.4666   3.5285   3.7311
     3.7983   4.1000   4.1427   4.1936   4.2750   4.3293   4.4869   4.5915
     4.6359   4.6962   4.7496   4.9959   4.9962   5.0163   5.1621   5.1923
     5.2203   5.3369   5.3626   5.4670   5.5689   5.6153   5.6558   5.6706
     5.6772   5.7110   5.7305   5.7336   5.8564   5.8972   6.0786   6.1278
     6.1314   6.2247   6.2722   6.3099   6.3156   6.3692   6.4560   6.5398
     6.5519   6.5533   6.6591   6.7987   6.8838   6.9048   7.0300   7.0677
     7.0940   7.1658   7.1692   7.2132   7.2807   7.3409   7.6532   7.8289
     7.9074   7.9621   7.9695   8.0613   8.2286   8.3470   8.5137   8.5804
     8.6525   8.6911   8.7465   8.8208   8.9547   9.1065   9.2110   9.3116
     9.4559   9.5419   9.6173   9.6706   9.7971   9.9651   9.9787  10.0011
    10.2526  10.2731  10.2976  10.3829  10.4131  10.4678  10.5592  10.5627
    10.5743  10.6126  10.6423  10.7599  10.7625  10.8308  10.8364  11.0200
    11.0903  11.1322  11.1972  11.2046  11.2350  11.2392  11.4617  11.5032
    11.5579  11.6297  11.7566  11.7743  11.8794  11.8995  11.9294  12.0979
    12.1865  12.2767  12.2917  12.4336  12.4357  12.5488  12.7730  12.7769
    12.8920  12.8969  12.9230  12.9965  13.0035  13.0434  13.0806  13.1155
    13.1256  13.1683  13.2952  13.4671  13.4882  13.5628  13.7027  13.9637
    14.0462  14.0648  14.1183  14.1219  14.1523  14.2152  14.2636  14.3004
    14.4644  14.5689  14.5863  14.7667  14.8823  14.9112  14.9222  15.0235
    15.0649  15.1456  15.1484  15.2836  15.2845  15.5172  15.5554  15.5865
    15.8068  15.8192  15.8466  15.9186  15.9940  15.9978  16.0536  16.2576
    16.2843  16.2942  16.3987  16.4003  16.4522  16.5048  16.6184  16.7769
    16.8293  16.8625  16.9826  17.0032  17.0671  17.1159  17.2646  17.3432
    17.3704  17.5711  17.5951  17.6338  17.7769  17.7785  17.8674  17.9024
    17.9461  17.9966  18.0144  18.0696  18.1549  18.1631  18.1631  18.4516
    18.5354  18.6297  18.7294  18.8035  18.8158  18.8687  18.8782  18.9970
    19.0964  19.1249  19.1311  19.1894  19.1989  19.3781  19.4055  19.6375
    19.6583  19.7952  19.8126  19.8514  19.8861  19.8961  19.9173  20.0623
    20.0739  20.0869  20.1709  20.2332  20.2976  20.3074  20.3391  20.4023
    20.4036  20.4425  20.4639  20.4641  20.5682  20.6179  20.6651  20.6962
    20.7134  20.7873  20.7966  20.8042  20.8635  20.9628  20.9875  21.0358
    21.1568  21.2014  21.2251  21.2337  21.3175  21.3390  21.3790  21.4259
    21.4373  21.4697  21.4752  21.5050  21.5274  21.5434  21.6506  21.7102
    21.7757  21.7963  21.8407  21.8837  21.8927  21.9367  21.9659  22.0018
    22.0357  22.1754  22.1895  22.2274  22.2433  22.2578  22.2788  22.3102
    22.3674  22.3687  22.3755  22.4916  22.5547  22.6280  22.6378  22.6682
    22.6815  22.7870  22.7975  22.8192  22.8791  22.9194  22.9547  22.9641
    23.0655  23.0914  23.1127  23.1213  23.1504  23.1911  23.2598  23.2847
    23.3580  23.4271  23.5014  23.5668  23.6560  23.6975  23.7771  23.8107
    23.8259  23.8701  23.9220  23.9255  23.9268  24.0685  24.0713  24.0713
    24.1439  24.1676  24.1829  24.2326  24.2591  24.2633  24.3300  24.3931
    24.4444  24.4810  24.4987  24.6144  24.6406  24.6929  24.6964  24.6992
    24.7375  24.9183  24.9314  24.9778  24.9834  25.0880  25.1039  25.1468
    25.1916  25.1918  25.3586  25.3944  25.3963  25.4292  25.4598  25.5017
    25.5701  25.6021  25.6114  25.6891  25.7245  25.8033  25.8163  25.8424
    25.9242  25.9243  25.9825  25.9880  26.0131  26.0182  26.0239  26.1165
    26.1863  26.1926  26.2795  26.3295  26.3559  26.4314  26.4587  26.4831
    26.4999  26.5020  26.6048  26.6517  26.6766  26.8325  26.9038  26.9465
    26.9941  27.0693  27.2451  27.2458  27.3214  27.3625  27.3952  27.4349
    27.4833  27.6487  27.6617  27.7343  27.7431  27.8409  27.8646  27.9166
    27.9649  28.0290  28.0557  28.0603  28.1861  28.1924  28.2094  28.2176
    28.2246  28.2617  28.3137  28.3924  28.3927  28.4344  28.4469  28.4475
    28.4688  28.4772  28.5471  28.5639

          k = 0.0000 0.0000 0.1127 ( 33006 PWs)   bands (ev):

   -29.0475 -29.0474 -28.6869 -28.6868 -20.0810 -19.9247 -19.8489 -19.6758
   -19.5001 -19.2312 -18.8675 -18.5977 -18.0444 -17.7696 -17.1051 -16.8349
   -16.3343 -14.9731 -14.5373 -14.0207 -13.5560 -12.8694 -12.5537 -11.9471
   -11.4977 -11.1927 -10.8058 -10.7761 -10.4347 -10.1585  -9.7320  -9.6885
    -9.6526  -9.6075  -9.6074  -9.2364  -9.0132  -8.9726  -8.8185  -8.8182
    -8.7581  -8.6524  -8.5532  -8.5224  -8.3842  -8.3695  -8.2308  -7.9691
    -7.8317  -7.6584  -7.5669  -7.5011  -7.4930  -7.2737  -7.2417  -6.9521
    -6.6910  -6.2579  -6.0261  -6.0190  -5.9621  -5.4527  -5.1015  -4.6742
    -4.1847  -3.9982  -0.0223   0.2464   0.7403   1.3394   1.8908   2.5812
     2.8315   2.8684   3.1137   3.1414   3.4088   3.4094   3.6496   3.7247
     3.7283   4.1291   4.1499   4.1601   4.3244   4.4274   4.5903   4.6090
     4.6258   4.7730   4.8233   4.9574   4.9974   5.1030   5.1240   5.1442
     5.1717   5.3226   5.3447   5.4424   5.4731   5.5743   5.6020   5.6100
     5.6539   5.7128   5.7160   5.8256   5.9022   5.9167   6.0017   6.0146
     6.0674   6.1424   6.2059   6.3004   6.3051   6.4196   6.4399   6.6580
     6.6969   6.6992   6.7001   6.7274   6.7833   6.8310   6.9230   7.0047
     7.0073   7.0265   7.1253   7.1738   7.2905   7.3812   7.6735   7.6835
     7.8510   8.0502   8.0536   8.1152   8.3135   8.3574   8.4219   8.4931
     8.6200   8.7927   8.8064   8.8176   8.8840   9.0420   9.1625   9.2313
     9.2903   9.4473   9.7490   9.8141   9.9206  10.0418  10.1008  10.1194
    10.1442  10.2005  10.2826  10.4097  10.4236  10.4409  10.5116  10.6082
    10.6898  10.7017  10.7236  10.7358  10.7632  10.7985  10.8695  10.8812
    10.9366  11.0119  11.0341  11.0637  11.1348  11.3225  11.3973  11.5583
    11.5994  11.6500  11.7919  11.8480  11.8851  11.9045  11.9733  12.0791
    12.1677  12.1709  12.3258  12.5657  12.5744  12.6238  12.6876  12.7852
    12.8721  12.9016  12.9445  12.9467  12.9695  12.9993  13.0554  13.0638
    13.0796  13.0817  13.3575  13.4126  13.6089  13.6248  13.6524  13.8572
    13.9186  13.9486  14.1625  14.1722  14.1948  14.2957  14.3019  14.3258
    14.4875  14.5717  14.5984  14.7963  14.8267  14.8458  14.9243  14.9421
    15.0595  15.2404  15.2620  15.3311  15.3976  15.4654  15.5987  15.6233
    15.6633  15.7488  15.7715  15.8170  15.9413  16.0272  16.0725  16.2627
    16.3086  16.4108  16.4458  16.4736  16.5247  16.5457  16.5733  16.7387
    16.7722  16.8198  16.8517  16.8687  17.1238  17.1355  17.1799  17.3402
    17.4393  17.5477  17.5720  17.6948  17.7722  17.8257  17.8761  17.9341
    17.9499  17.9990  18.0028  18.0267  18.1758  18.2625  18.2738  18.3245
    18.4954  18.5040  18.5834  18.8367  18.8466  18.8680  18.9518  19.0177
    19.1130  19.1549  19.1581  19.3012  19.4191  19.5423  19.5874  19.7263
    19.7391  19.7763  19.9321  19.9750  20.0005  20.0286  20.0672  20.1512
    20.1623  20.2226  20.2325  20.2657  20.3056  20.3087  20.3306  20.3602
    20.3627  20.4085  20.4251  20.4991  20.5093  20.5252  20.6195  20.6233
    20.7786  20.8101  20.8386  20.8400  20.8701  20.9762  21.0153  21.0247
    21.1329  21.1712  21.2413  21.2994  21.3591  21.3647  21.4152  21.4489
    21.4624  21.5289  21.5416  21.5793  21.5869  21.6561  21.7159  21.7721
    21.7903  21.7967  21.7985  21.8573  21.9837  22.0148  22.0334  22.0553
    22.1109  22.1298  22.1583  22.2408  22.2775  22.2865  22.3213  22.3419
    22.4647  22.4653  22.5334  22.5422  22.5551  22.6156  22.6522  22.6742
    22.6768  22.6904  22.8354  22.8524  22.8620  22.8639  22.9080  22.9645
    22.9673  23.0077  23.0420  23.0465  23.1096  23.1222  23.1346  23.3706
    23.4027  23.4507  23.5156  23.5371  23.6060  23.6511  23.6617  23.6898
    23.6945  23.8209  23.8849  23.9086  23.9121  23.9178  23.9927  24.0708
    24.1287  24.1373  24.1443  24.1550  24.3561  24.3628  24.3711  24.4099
    24.4134  24.4747  24.5724  24.6266  24.6411  24.6890  24.7170  24.7302
    24.7367  24.9181  24.9372  24.9802  25.0186  25.0382  25.0751  25.0938
    25.1647  25.1964  25.2699  25.2747  25.3383  25.3637  25.3645  25.4333
    25.4689  25.4963  25.5471  25.6059  25.7455  25.7834  25.8001  25.8384
    25.8489  25.9341  25.9666  26.0105  26.0108  26.0505  26.1574  26.1749
    26.1805  26.2597  26.2780  26.3187  26.3319  26.3436  26.4247  26.4934
    26.6998  26.7212  26.7496  26.7932  26.8200  26.9000  27.0104  27.0275
    27.0794  27.0813  27.2150  27.2164  27.3163  27.3237  27.3379  27.3745
    27.4509  27.5114  27.6178  27.6422  27.6789  27.7363  27.8676  27.8769
    27.9078  27.9391  28.0070  28.1023  28.1090  28.1530  28.1789  28.1830
    28.2364  28.2398  28.2457  28.2719  28.3821  28.4361  28.4429  28.4503
    28.5099  28.5223  28.5587  28.5671

          k = 0.0000 0.0000-0.1174 ( 33004 PWs)   bands (ev):

   -29.0414 -29.0412 -28.6936 -28.6935 -19.9887 -19.9445 -19.8552 -19.7489
   -19.4452 -19.2910 -18.8156 -18.6540 -17.9984 -17.8192 -17.0697 -16.8720
   -16.3282 -14.9822 -14.5258 -14.0362 -13.5440 -12.8831 -12.5361 -11.9657
   -11.4439 -11.2453 -10.7918 -10.7701 -10.3787 -10.2107  -9.6998  -9.6184
    -9.6019  -9.6017  -9.4643  -9.4520  -9.0160  -8.9810  -8.8244  -8.8241
    -8.7269  -8.6480  -8.5366  -8.4781  -8.4141  -8.4136  -8.2987  -7.9643
    -7.7085  -7.6948  -7.6598  -7.4661  -7.4007  -7.3468  -7.3092  -6.8717
    -6.7760  -6.2049  -6.0299  -6.0231  -6.0193  -5.4215  -5.1359  -4.6634
    -4.1963  -3.9971  -0.0259   0.2605   0.7228   1.3731   1.8569   2.6406
     2.8610   2.8905   3.0564   3.2130   3.3237   3.4341   3.6906   3.7312
     3.7515   4.0619   4.1209   4.1555   4.4211   4.4964   4.5724   4.6008
     4.7446   4.7486   4.7540   4.9960   5.0049   5.0263   5.1782   5.2218
     5.2273   5.2964   5.3039   5.3419   5.4143   5.5105   5.5148   5.6329
     5.7226   5.7573   5.7634   5.8438   5.8636   5.9666   5.9759   5.9858
     6.0330   6.1370   6.1385   6.1861   6.3141   6.5458   6.5575   6.5901
     6.5984   6.7836   6.7937   6.8031   6.8370   6.8479   6.8486   6.8526
     6.8591   6.9990   7.0780   7.2093   7.2784   7.5195   7.5289   7.6978
     7.8035   8.0369   8.1742   8.2288   8.2538   8.2789   8.4014   8.5209
     8.6297   8.6617   8.8851   8.9058   8.9343   8.9819   9.0866   9.1908
     9.2497   9.4052   9.8369   9.9199   9.9733   9.9890  10.0380  10.1696
    10.2094  10.2575  10.2823  10.3038  10.3128  10.5474  10.5477  10.5631
    10.7073  10.7093  10.7596  10.7831  10.8143  10.8526  10.8773  10.8974
    10.8980  10.9210  10.9219  10.9438  11.0624  11.3749  11.3838  11.5031
    11.6938  11.7035  11.7044  11.8074  11.9714  11.9895  12.0253  12.0520
    12.0778  12.0847  12.4576  12.4863  12.6591  12.7120  12.7320  12.7339
    12.8160  12.8456  12.8819  12.9516  12.9738  12.9818  13.0323  13.0561
    13.0753  13.1868  13.2370  13.4593  13.6048  13.6979  13.7471  13.7956
    13.7999  13.8779  14.1805  14.1981  14.2126  14.2900  14.3382  14.3987
    14.4257  14.5653  14.6687  14.7741  14.8019  14.8351  14.8378  14.9651
    15.0703  15.2685  15.3343  15.3690  15.4336  15.5190  15.5708  15.5914
    15.6039  15.7046  15.7454  15.8323  15.8372  16.0470  16.1168  16.2515
    16.3221  16.4335  16.4667  16.5253  16.5320  16.6402  16.6435  16.6828
    16.6948  16.7190  16.7635  16.9132  17.0581  17.1274  17.2634  17.3043
    17.4676  17.5466  17.5535  17.7181  17.7594  17.8443  17.8744  17.9365
    17.9576  17.9882  17.9999  18.0603  18.1635  18.2600  18.3664  18.3792
    18.3981  18.4571  18.4894  18.8397  18.8504  18.9269  18.9440  18.9934
    19.0992  19.1443  19.1520  19.3162  19.5571  19.5845  19.7561  19.8290
    19.8302  19.9433  19.9502  20.0388  20.0436  20.0704  20.0754  20.0978
    20.1293  20.1808  20.2084  20.2093  20.2315  20.2372  20.2831  20.3195
    20.4192  20.4353  20.4375  20.4812  20.5021  20.5870  20.6522  20.7615
    20.7630  20.7693  20.7898  20.8903  20.9421  21.0059  21.0156  21.0213
    21.0329  21.0592  21.0829  21.3047  21.3480  21.4149  21.4440  21.4475
    21.5099  21.5173  21.6062  21.6138  21.6239  21.7449  21.7738  21.7920
    21.8548  21.9134  21.9195  21.9291  21.9607  22.0292  22.0429  22.0449
    22.1042  22.1155  22.1408  22.1479  22.2369  22.2969  22.3031  22.3507
    22.4240  22.4774  22.4845  22.5298  22.5771  22.5836  22.6377  22.7133
    22.7233  22.7617  22.8263  22.8337  22.8688  22.9169  22.9228  22.9658
    22.9953  23.0021  23.0757  23.1223  23.1255  23.1481  23.2233  23.2817
    23.3092  23.3150  23.4332  23.4425  23.4600  23.4953  23.6377  23.6439
    23.7974  23.8217  23.8332  23.9123  23.9564  24.0287  24.0583  24.0607
    24.0636  24.1652  24.1736  24.1811  24.2342  24.3026  24.3249  24.3500
    24.3915  24.4793  24.5323  24.6081  24.6964  24.7182  24.7342  24.8138
    24.8782  24.8884  24.9360  24.9667  25.0779  25.0988  25.1171  25.2058
    25.2098  25.2183  25.2358  25.2757  25.2966  25.3055  25.3355  25.4104
    25.4139  25.4788  25.4857  25.4945  25.5827  25.6402  25.6818  25.7760
    25.7802  25.7948  25.9670  26.0487  26.0938  26.1381  26.1826  26.1923
    26.1970  26.2835  26.2993  26.3138  26.4040  26.4584  26.5467  26.6473
    26.6615  26.6805  26.7602  26.8127  26.8742  26.9901  27.0606  27.1366
    27.1453  27.1584  27.2017  27.2678  27.2976  27.3019  27.3799  27.3842
    27.4224  27.5002  27.5289  27.5439  27.5987  27.6730  27.7171  27.7229
    27.8545  27.9267  27.9275  28.0397  28.0737  28.0928  28.1467  28.1547
    28.2134  28.2423  28.2860  28.3603  28.3682  28.4048  28.4357  28.4656
    28.4767  28.5918  28.6266  28.6655

     the Fermi energy is    -2.1378 ev

     Writing output data file F13.save/

     init_run     :      5.87s CPU      6.05s WALL (       1 calls)
     electrons    :   2192.46s CPU   2222.90s WALL (       1 calls)

     Called by init_run:
     wfcinit      :      0.00s CPU      0.00s WALL (       1 calls)
     potinit      :      0.33s CPU      0.37s WALL (       1 calls)
     hinit0       :      4.86s CPU      4.88s WALL (       1 calls)

     Called by electrons:
     c_bands      :   2192.46s CPU   2222.88s WALL (       1 calls)
     v_of_rho     :      0.27s CPU      0.29s WALL (       1 calls)
     newd         :      0.19s CPU      0.23s WALL (       1 calls)

     Called by c_bands:
     init_us_2    :      0.03s CPU      0.13s WALL (      26 calls)
     cegterg      :   2151.37s CPU   2180.12s WALL (      58 calls)

     Called by sum_band:

     Called by *egterg:
     h_psi        :    302.67s CPU    308.89s WALL (     936 calls)
     s_psi        :     24.33s CPU     24.44s WALL (     936 calls)
     g_psi        :      2.50s CPU      2.51s WALL (     852 calls)
     cdiaghg      :   1322.13s CPU   1328.46s WALL (     878 calls)

     Called by h_psi:
     h_psi:pot    :    300.05s CPU    304.99s WALL (     936 calls)
     h_psi:calbec :     24.71s CPU     25.41s WALL (     936 calls)
     vloc_psi     :    251.23s CPU    255.30s WALL (     936 calls)
     add_vuspsi   :     24.10s CPU     24.27s WALL (     936 calls)

     General routines
     calbec       :     24.71s CPU     25.40s WALL (     936 calls)
     fft          :      0.33s CPU      0.35s WALL (      14 calls)
     ffts         :      0.00s CPU      0.00s WALL (       1 calls)
     fftw         :    225.73s CPU    229.39s WALL (  365724 calls)
     interpolate  :      0.02s CPU      0.02s WALL (       1 calls)
     davcio       :      0.00s CPU      0.82s WALL (      52 calls)

     Parallel routines
     fft_scatt_xy :     37.67s CPU     38.22s WALL (  365739 calls)
     fft_scatt_yz :     61.87s CPU     63.16s WALL (  365739 calls)

     PWSCF        : 36m45.04s CPU    38m43.79s WALL


   This run was terminated on:   3:51:53  20Apr2021            

=------------------------------------------------------------------------------=
   JOB DONE.
=------------------------------------------------------------------------------=
