
     Program PWSCF v.6.3 starts on 22Apr2021 at 11:32:16 

     This program is part of the open-source Quantum ESPRESSO suite
     for quantum simulation of materials; please cite
         "P. Giannozzi et al., J. Phys.:Condens. Matter 21 395502 (2009);
         "P. Giannozzi et al., J. Phys.:Condens. Matter 29 465901 (2017);
          URL http://www.quantum-espresso.org", 
     in publications or presentations arising from this work. More details at
     http://www.quantum-espresso.org/quote

     Parallel version (MPI), running on    16 processors
     R & G space division:  proc/nbgrp/npool/nimage =      16
     Waiting for input...
     Reading input from standard input
     Message from routine read_cards :
     DEPRECATED: no units specified in CELL_PARAMETERS card

     Current dimensions of program PWSCF are:
     Max number of different atomic species (ntypx) = 10
     Max number of k-points (npk) =  40000
     Max angular momentum in pseudopotentials (lmaxx) =  3

     Atomic positions and unit cell read from directory:
     /home/zfwang/scratch/GNRDATASET/AGNR/ANTI14-4-6_2/ANTI14-4-6_2.save/


     Subspace diagonalization in iterative solution of the eigenvalue problem:
     a serial algorithm will be used


     Parallelization info
     --------------------
     sticks:   dense  smooth     PW     G-vecs:    dense   smooth      PW
     Min        2556     852    226               191435    36836    5050
     Max        2557     853    228               191437    36837    5051
     Sum       40909   13645   3627              3062965   589389   80803



     bravais-lattice index     =            0
     lattice parameter (alat)  =       1.8897  a.u.
     unit-cell volume          =   17248.7430 (a.u.)^3
     number of atoms/cell      =           64
     number of atomic types    =            2
     number of electrons       =       214.00
     number of Kohn-Sham states=          500
     kinetic-energy cutoff     =      40.0000  Ry
     charge density cutoff     =     480.0000  Ry
     Exchange-correlation      = PBE ( 1  4  3  4 0 0)

     celldm(1)=  18.897261  celldm(2)=   3.000000  celldm(3)=   0.852000
     celldm(4)=   0.000000  celldm(5)=   0.000000  celldm(6)=   0.000000

     crystal axes: (cart. coord. in units of alat)
               a(1) = (  10.000000   0.000000   0.000000 )  
               a(2) = (   0.000000  30.000000   0.000000 )  
               a(3) = (   0.000000   0.000000   8.520000 )  

     reciprocal axes: (cart. coord. in units 2 pi/alat)
               b(1) = (  0.100000  0.000000  0.000000 )  
               b(2) = (  0.000000  0.033333  0.000000 )  
               b(3) = (  0.000000  0.000000  0.117371 )  


     PseudoPot. # 1 for C  read from file:
     /home/zfwang/hp_home/MySoftware/qe-6.3/pseudo/C.pbe-n-rrkjus_psl.0.1.UPF
     MD5 check sum: fff530ed632a789b3b184014e67dd7f1
     Pseudo is Ultrasoft + core correction, Zval =  4.0
     Generated using "atomic" code by A. Dal Corso v.5.0.2 svn rev. 9415
     Using radial grid of 1073 points,  4 beta functions with: 
                l(1) =   0
                l(2) =   0
                l(3) =   1
                l(4) =   1
     Q(r) pseudized with 0 coefficients 


     PseudoPot. # 2 for H  read from file:
     /home/zfwang/hp_home/MySoftware/qe-6.3/pseudo/H.pbe-rrkjus_psl.0.1.UPF
     MD5 check sum: e164a6907b691c6980f16942be34de84
     Pseudo is Ultrasoft, Zval =  1.0
     Generated using "atomic" code by A. Dal Corso v.5.0.2 svn rev. 9415
     Using radial grid of  929 points,  2 beta functions with: 
                l(1) =   0
                l(2) =   0
     Q(r) pseudized with 0 coefficients 


     atomic species   valence    mass     pseudopotential
        C              4.00    12.01070     C ( 1.00)
        H              1.00     1.00794     H ( 1.00)

     No symmetry found



   Cartesian axes

     site n.     atom                  positions (alat units)
         1           C   tau(   1) = (   4.9999997   6.9610186   2.8114086  )
         2           C   tau(   2) = (   5.0000014   6.9652950   7.0746672  )
         3           C   tau(   3) = (   5.0000005   8.1651930   3.5458214  )
         4           C   tau(   4) = (   5.0000016   8.1722695   7.8075927  )
         5           C   tau(   5) = (   5.0000000   6.9652948   1.4453361  )
         6           C   tau(   6) = (   5.0000012   6.9610188   5.7085916  )
         7           C   tau(   7) = (   5.0000007   9.3982353   2.8397170  )
         8           C   tau(   8) = (   5.0000018   9.4079661   7.1021087  )
         9           C   tau(   9) = (   5.0000011  10.6383421   3.5407263  )
        10           C   tau(  10) = (   5.0000015  10.6465501   7.8114000  )
        11           C   tau(  11) = (   5.0000013   8.1722691   0.7124087  )
        12           C   tau(  12) = (   5.0000010   8.1651942   4.9741805  )
        13           C   tau(  13) = (   5.0000013   9.4079663   1.4178930  )
        14           C   tau(  14) = (   5.0000014   9.3982357   5.6802837  )
        15           C   tau(  15) = (   5.0000016  11.8300465   2.8130189  )
        16           C   tau(  16) = (   5.0000011  11.8786506   7.0924479  )
        17           C   tau(  17) = (   5.0000004  13.1493720   7.8094552  )
        18           C   tau(  18) = (   5.0000011  10.6465501   0.7086008  )
        19           C   tau(  19) = (   5.0000013  10.6383423   4.9792731  )
        20           C   tau(  20) = (   5.0000007  11.8786518   1.4275506  )
        21           C   tau(  21) = (   5.0000013  11.8300466   5.7069801  )
        22           C   tau(  22) = (   4.9999998  14.3829891   7.1501596  )
        23           C   tau(  23) = (   4.9999993  15.6154440   7.8097888  )
        24           C   tau(  24) = (   5.0000001  13.1493723   0.7105404  )
        25           C   tau(  25) = (   4.9999994  14.3829884   1.3698369  )
        26           C   tau(  26) = (   4.9999994  16.9343660   2.8146351  )
        27           C   tau(  27) = (   4.9999990  16.8864855   7.0930015  )
        28           C   tau(  28) = (   4.9999987  18.1251385   3.5357177  )
        29           C   tau(  29) = (   4.9999990  18.1162325   7.8067988  )
        30           C   tau(  30) = (   4.9999994  15.6154437   0.7102070  )
        31           C   tau(  31) = (   4.9999990  16.8864837   1.4269985  )
        32           C   tau(  32) = (   4.9999989  16.9343660   5.7053650  )
        33           C   tau(  33) = (   4.9999983  19.3576558   2.8362731  )
        34           C   tau(  34) = (   4.9999992  19.3484320   7.0995442  )
        35           C   tau(  35) = (   4.9999989  20.5975023   3.5487785  )
        36           C   tau(  36) = (   4.9999994  20.5909041   7.8101918  )
        37           C   tau(  37) = (   4.9999986  18.1162324   0.7132029  )
        38           C   tau(  38) = (   4.9999988  18.1251392   4.9842824  )
        39           C   tau(  39) = (   4.9999984  19.3484318   1.4204582  )
        40           C   tau(  40) = (   4.9999991  19.3576547   5.6837285  )
        41           C   tau(  41) = (   4.9999993  21.8244419   2.8476326  )
        42           C   tau(  42) = (   4.9999999  21.8208670   7.1077680  )
        43           C   tau(  43) = (   5.0000001  23.0309114   3.5763287  )
        44           C   tau(  44) = (   4.9999993  23.0249823   7.8359471  )
        45           C   tau(  45) = (   4.9999990  20.5909037   0.7098105  )
        46           C   tau(  46) = (   4.9999993  20.5975021   4.9712242  )
        47           C   tau(  47) = (   4.9999994  21.8208666   1.4122359  )
        48           C   tau(  48) = (   4.9999999  21.8244418   5.6723702  )
        49           C   tau(  49) = (   4.9999992  23.0249818   0.6840576  )
        50           C   tau(  50) = (   5.0000003  23.0309120   4.9436745  )
        51           H   tau(  51) = (   4.9999990   6.0028956   3.3244062  )
        52           H   tau(  52) = (   5.0000007   6.0093011   7.5915150  )
        53           H   tau(  53) = (   4.9999985   6.0093002   0.9284876  )
        54           H   tau(  54) = (   5.0000014   6.0028962   5.1955960  )
        55           H   tau(  55) = (   5.0000006  23.9872642   3.0599722  )
        56           H   tau(  56) = (   4.9999983  23.9808371   7.3192061  )
        57           H   tau(  57) = (   4.9999986  23.9808370   1.2007984  )
        58           H   tau(  58) = (   5.0000010  23.9872653   5.4600321  )
        59           H   tau(  59) = (   5.0000035  12.7678898   3.3572943  )
        60           H   tau(  60) = (   5.0000014  12.7678902   5.1627058  )
        61           H   tau(  61) = (   4.9999997  14.3847392   6.0653622  )
        62           H   tau(  62) = (   4.9999988  14.3847391   2.4546343  )
        63           H   tau(  63) = (   5.0000003  15.9977881   3.3604386  )
        64           H   tau(  64) = (   4.9999992  15.9977887   5.1595639  )

     number of k points=    26  Marzari-Vanderbilt smearing, width (Ry)=  0.0100
                       cart. coord. in units 2pi/alat
        k(    1) = (   0.0000000   0.0000000   0.0000000), wk =   0.0400000
        k(    2) = (   0.0000000   0.0000000   0.0023474), wk =   0.0800000
        k(    3) = (   0.0000000   0.0000000   0.0046948), wk =   0.0800000
        k(    4) = (   0.0000000   0.0000000   0.0070423), wk =   0.0800000
        k(    5) = (   0.0000000   0.0000000   0.0093897), wk =   0.0800000
        k(    6) = (   0.0000000   0.0000000   0.0117371), wk =   0.0800000
        k(    7) = (   0.0000000   0.0000000   0.0140845), wk =   0.0800000
        k(    8) = (   0.0000000   0.0000000   0.0164319), wk =   0.0800000
        k(    9) = (   0.0000000   0.0000000   0.0187793), wk =   0.0800000
        k(   10) = (   0.0000000   0.0000000   0.0211268), wk =   0.0800000
        k(   11) = (   0.0000000   0.0000000   0.0234742), wk =   0.0800000
        k(   12) = (   0.0000000   0.0000000   0.0258216), wk =   0.0800000
        k(   13) = (   0.0000000   0.0000000   0.0281690), wk =   0.0800000
        k(   14) = (   0.0000000   0.0000000   0.0305164), wk =   0.0800000
        k(   15) = (   0.0000000   0.0000000   0.0328638), wk =   0.0800000
        k(   16) = (   0.0000000   0.0000000   0.0352113), wk =   0.0800000
        k(   17) = (   0.0000000   0.0000000   0.0375587), wk =   0.0800000
        k(   18) = (   0.0000000   0.0000000   0.0399061), wk =   0.0800000
        k(   19) = (   0.0000000   0.0000000   0.0422535), wk =   0.0800000
        k(   20) = (   0.0000000   0.0000000   0.0446009), wk =   0.0800000
        k(   21) = (   0.0000000   0.0000000   0.0469484), wk =   0.0800000
        k(   22) = (   0.0000000   0.0000000   0.0492958), wk =   0.0800000
        k(   23) = (   0.0000000   0.0000000   0.0516432), wk =   0.0800000
        k(   24) = (   0.0000000   0.0000000   0.0539906), wk =   0.0800000
        k(   25) = (   0.0000000   0.0000000   0.0563380), wk =   0.0800000
        k(   26) = (   0.0000000   0.0000000  -0.0586854), wk =   0.0400000

     Dense  grid:  3062965 G-vectors     FFT dimensions: ( 135, 400, 120)

     Smooth grid:   589389 G-vectors     FFT dimensions: (  80, 240,  72)

     Estimated max dynamical RAM per process >     734.45 MB

     Estimated total dynamical RAM >      11.48 GB

     The potential is recalculated from file :
     /home/zfwang/scratch/GNRDATASET/AGNR/ANTI14-4-6_2/ANTI14-4-6_2.save/charge-density.dat


     negative rho (up, down):  1.426E-04 0.000E+00
     Starting wfcs are  214 randomized atomic wfcs +  286 random wfcs

     Band Structure Calculation
     Davidson diagonalization with overlap
     c_bands:  1 eigenvalues not converged
     c_bands:  1 eigenvalues not converged
     c_bands:  1 eigenvalues not converged
     c_bands:  2 eigenvalues not converged
     c_bands:  2 eigenvalues not converged
     c_bands:  1 eigenvalues not converged
     c_bands:  1 eigenvalues not converged
     c_bands:  1 eigenvalues not converged
     c_bands:  1 eigenvalues not converged
     c_bands:  1 eigenvalues not converged
     c_bands:  1 eigenvalues not converged
     c_bands:  2 eigenvalues not converged
     c_bands:  1 eigenvalues not converged
     c_bands:  2 eigenvalues not converged
     c_bands:  1 eigenvalues not converged
     c_bands:  1 eigenvalues not converged
     c_bands:  1 eigenvalues not converged
     c_bands:  1 eigenvalues not converged

     ethr =  4.67E-09,  avg # of iterations =105.7

     total cpu time spent up to now is     7375.8 secs

     End of band structure calculation

          k = 0.0000 0.0000 0.0000 ( 73589 PWs)   bands (ev):

   -21.1034 -20.9721 -20.3455 -19.9440 -19.6462 -19.6268 -19.5863 -19.3431
   -19.3194 -18.6841 -18.6410 -18.4727 -18.3929 -17.8405 -17.4914 -17.4567
   -16.9733 -16.9182 -16.5578 -16.1213 -15.8271 -15.8215 -15.6864 -14.9736
   -14.9629 -14.8813 -14.7877 -14.6787 -14.5872 -14.5718 -14.2315 -13.9533
   -13.6061 -13.2391 -13.1772 -12.6001 -12.2887 -12.1336 -12.0494 -11.7945
   -11.7214 -11.5316 -11.4663 -11.1219 -11.0759 -10.7124 -10.2713 -10.0442
    -9.9482  -9.9088  -9.7135  -9.5913  -9.5239  -9.2246  -9.1655  -9.0423
    -9.0252  -8.9543  -8.7711  -8.5889  -8.5538  -8.4897  -8.4790  -8.4777
    -8.4429  -8.4319  -8.3335  -8.3161  -8.2865  -8.0903  -7.9929  -7.9709
    -7.9569  -7.8513  -7.6104  -7.5177  -7.4413  -7.4193  -7.3449  -7.3289
    -7.2778  -7.2171  -7.1784  -7.0984  -6.9370  -6.6372  -6.4562  -6.4504
    -6.3283  -6.1647  -6.1271  -5.6319  -5.5634  -5.4530  -5.4069  -5.3516
    -5.2514  -5.1912  -4.7586  -4.7152  -4.1857  -3.9827  -3.7749  -3.5785
    -3.2707  -2.5427  -1.9913  -1.8955  -1.3520  -0.6198  -0.6185  -0.4982
    -0.3767   0.1766   0.3980   0.4792   1.0833   1.1279   1.1667   1.2776
     1.3705   1.6019   1.7130   1.7465   2.1076   2.2656   2.3698   2.5148
     2.5234   2.5797   2.6567   2.7533   2.9226   2.9429   2.9884   2.9912
     2.9989   3.0640   3.1711   3.1723   3.2892   3.3800   3.4077   3.4602
     3.5609   3.6177   3.6273   3.8225   3.9192   3.9803   4.0000   4.0671
     4.1434   4.1618   4.1755   4.2026   4.2250   4.2936   4.3544   4.4148
     4.4986   4.5002   4.5134   4.5324   4.5916   4.6338   4.7764   4.8062
     4.8395   4.8716   4.8821   4.9478   4.9713   5.0431   5.0493   5.0738
     5.0796   5.1295   5.1330   5.1985   5.2251   5.2984   5.3253   5.3607
     5.4056   5.4392   5.5796   5.5851   5.6004   5.6093   5.6211   5.6634
     5.8240   5.8647   5.9850   6.0103   6.0118   6.0485   6.0775   6.0778
     6.1305   6.1352   6.2001   6.2037   6.2387   6.2462   6.3264   6.3275
     6.3318   6.3618   6.3830   6.4381   6.4535   6.4993   6.5121   6.5320
     6.6108   6.6641   6.7808   6.8826   6.8853   6.8954   6.9647   6.9807
     7.0691   7.1938   7.1979   7.2227   7.2248   7.2425   7.2580   7.2719
     7.2759   7.2770   7.2874   7.3273   7.4052   7.4599   7.4924   7.5423
     7.5713   7.6603   7.6639   7.7097   7.7669   7.7970   7.8148   7.8819
     7.8967   7.9794   8.0513   8.1036   8.1274   8.1707   8.1813   8.2326
     8.3395   8.3698   8.4458   8.4579   8.4639   8.5277   8.5408   8.5586
     8.6893   8.6925   8.7168   8.7589   8.7905   8.8310   8.8781   8.9874
     8.9967   9.0718   9.0840   9.1371   9.1428   9.1556   9.1844   9.2038
     9.2333   9.2832   9.3164   9.3479   9.3489   9.3934   9.3986   9.4170
     9.4340   9.4423   9.4919   9.5054   9.5149   9.5369   9.5440   9.5475
     9.5689   9.6264   9.6487   9.7335   9.7527   9.7838   9.8337   9.9073
     9.9104   9.9496   9.9741   9.9752  10.0631  10.0769  10.0848  10.0972
    10.1127  10.1262  10.1443  10.1916  10.2052  10.2350  10.2355  10.2789
    10.2855  10.3219  10.3407  10.3751  10.4280  10.4451  10.5507  10.5608
    10.5620  10.6078  10.6546  10.6917  10.7101  10.7617  10.7698  10.7701
    10.7809  10.8004  10.8359  10.8468  10.8625  10.8968  10.8975  10.9319
    10.9637  11.0680  11.1025  11.1050  11.1224  11.1711  11.1972  11.2145
    11.2593  11.2644  11.2818  11.2958  11.3307  11.3657  11.3658  11.3682
    11.3878  11.4363  11.4497  11.4551  11.5045  11.5194  11.5219  11.5548
    11.5602  11.5826  11.5887  11.5918  11.6054  11.6537  11.6608  11.6763
    11.6881  11.8032  11.8092  11.8522  11.9105  11.9262  11.9819  12.0351
    12.0418  12.0681  12.1380  12.1388  12.1655  12.1874  12.1945  12.1958
    12.2496  12.2689  12.2745  12.2964  12.3426  12.3647  12.3733  12.4646
    12.4881  12.5288  12.5533  12.5766  12.5855  12.5908  12.6604  12.7556
    12.7617  12.7657  12.8166  12.8279  12.8504  12.9026  12.9297  12.9447
    12.9457  13.0546  13.0977  13.1277  13.1405  13.2125  13.2151  13.2346
    13.2422  13.2810  13.2991  13.3418  13.3433  13.3781  13.3898  13.3951
    13.4697  13.4754  13.4759  13.4891  13.5180  13.6056  13.6080  13.6206
    13.7183  13.7838  13.7875  13.7941  13.8276  13.8565  13.8984  13.9056
    13.9310  13.9486  14.0094  14.0263  14.1235  14.1561  14.1594  14.2350
    14.2438  14.2740  14.2983  14.3471  14.4045  14.4336  14.4476  14.4944
    14.5351  14.5663  14.5697  14.6208  14.6573  14.6983  14.7127  14.7371
    14.7591  14.8021  14.8547  14.8632  14.8916  14.8926  14.9592  15.0044
    15.0228  15.0578  15.0651  15.0675  15.0689  15.0994  15.1042  15.1519
    15.1708  15.2468  15.2597  15.3145  15.3321  15.3332  15.3430  15.3717
    15.4166  15.4565  15.4631  15.4852

          k = 0.0000 0.0000 0.0023 ( 73645 PWs)   bands (ev):

   -21.1029 -20.9716 -20.3454 -19.9443 -19.6902 -19.6007 -19.5777 -19.3355
   -19.3156 -18.7029 -18.6273 -18.4711 -18.3894 -17.8393 -17.4929 -17.4533
   -16.9849 -16.9065 -16.5574 -16.1230 -15.8434 -15.8149 -15.6973 -14.9803
   -14.9755 -14.8715 -14.7826 -14.6750 -14.5901 -14.5471 -14.2325 -13.9513
   -13.6058 -13.2485 -13.1700 -12.6042 -12.2867 -12.1366 -12.0461 -11.7942
   -11.7199 -11.5323 -11.4628 -11.1198 -11.0759 -10.7105 -10.2800 -10.0430
    -9.9511  -9.9059  -9.7335  -9.6034  -9.4943  -9.2206  -9.1648  -9.0429
    -9.0246  -8.9616  -8.7830  -8.5973  -8.5549  -8.5324  -8.4977  -8.4640
    -8.4372  -8.3984  -8.3164  -8.3159  -8.2842  -8.0835  -7.9906  -7.9669
    -7.9545  -7.8513  -7.6213  -7.5116  -7.4927  -7.3768  -7.3542  -7.3368
    -7.2622  -7.2162  -7.1617  -7.0949  -6.9379  -6.6385  -6.4659  -6.4499
    -6.3287  -6.1593  -6.1228  -5.6328  -5.5623  -5.4544  -5.4080  -5.3528
    -5.2527  -5.1876  -4.7656  -4.7078  -4.1852  -3.9835  -3.7786  -3.5826
    -3.2711  -2.5503  -2.0360  -1.8511  -1.3444  -0.6292  -0.6085  -0.4932
    -0.3718   0.1763   0.3879   0.4899   1.0840   1.1265   1.1675   1.2783
     1.3683   1.6027   1.7133   1.7458   2.1080   2.2662   2.3687   2.5132
     2.5155   2.5820   2.6575   2.7564   2.9192   2.9374   2.9543   2.9889
     3.0033   3.0648   3.1792   3.2137   3.2900   3.3432   3.4085   3.4933
     3.5401   3.5746   3.7006   3.8226   3.9187   3.9272   4.0489   4.0533
     4.1356   4.1369   4.1602   4.1924   4.2515   4.3176   4.3570   4.4211
     4.4422   4.4453   4.5498   4.6029   4.6049   4.6257   4.7739   4.7978
     4.8227   4.8382   4.8843   4.9399   4.9967   5.0135   5.0238   5.0917
     5.1328   5.1482   5.1633   5.1998   5.2203   5.2721   5.3007   5.3593
     5.4208   5.4816   5.5116   5.6009   5.6184   5.6188   5.6525   5.6688
     5.7746   5.9117   5.9664   5.9760   6.0102   6.0379   6.0796   6.1066
     6.1231   6.1332   6.1551   6.2120   6.2495   6.2859   6.2878   6.3178
     6.3664   6.3724   6.3951   6.4545   6.4575   6.5027   6.5146   6.5323
     6.6044   6.6725   6.7796   6.8487   6.8826   6.9240   6.9516   7.0052
     7.0583   7.1403   7.1770   7.1912   7.2397   7.2438   7.2601   7.2743
     7.2914   7.2962   7.3201   7.3505   7.4118   7.4416   7.5066   7.5391
     7.5693   7.6613   7.6673   7.7128   7.7622   7.7981   7.8071   7.8722
     7.9258   7.9768   8.0518   8.0999   8.1268   8.1477   8.1955   8.2490
     8.3344   8.3672   8.4343   8.4441   8.4650   8.5157   8.5474   8.5738
     8.6601   8.6840   8.7306   8.7894   8.7898   8.8044   8.9117   8.9865
     8.9881   9.0664   9.0696   9.0993   9.1333   9.1740   9.1923   9.1945
     9.2251   9.2411   9.3246   9.3292   9.3402   9.3573   9.3945   9.4116
     9.4259   9.4540   9.4798   9.5076   9.5226   9.5579   9.5703   9.5785
     9.5999   9.6013   9.7021   9.7401   9.7520   9.7881   9.8202   9.8895
     9.9124   9.9434   9.9702   9.9784  10.0229  10.0257  10.0500  10.0720
    10.1116  10.1355  10.1839  10.1986  10.2296  10.2388  10.2488  10.2674
    10.3180  10.3232  10.3428  10.3983  10.4141  10.4281  10.5460  10.5594
    10.5710  10.6017  10.6350  10.7202  10.7219  10.7259  10.7698  10.7716
    10.7856  10.8020  10.8406  10.8526  10.8668  10.8879  10.8986  10.9057
    11.0062  11.0711  11.0932  11.1184  11.1212  11.1665  11.2056  11.2099
    11.2399  11.2603  11.2798  11.3043  11.3391  11.3585  11.3641  11.3776
    11.3818  11.4302  11.4309  11.4391  11.4838  11.5062  11.5407  11.5447
    11.5689  11.5810  11.5977  11.5981  11.6328  11.6709  11.6737  11.6772
    11.7159  11.7863  11.8180  11.8598  11.8748  11.9433  11.9839  12.0104
    12.0242  12.0629  12.1150  12.1186  12.1388  12.1536  12.2082  12.2130
    12.2392  12.2847  12.3021  12.3375  12.3424  12.3973  12.4070  12.4425
    12.5121  12.5256  12.5712  12.5829  12.5901  12.5993  12.6429  12.7048
    12.7413  12.7906  12.8026  12.8486  12.8687  12.9176  12.9457  12.9468
    12.9720  13.0200  13.0668  13.1248  13.1525  13.1658  13.2127  13.2460
    13.2711  13.2750  13.3224  13.3320  13.3372  13.3806  13.4025  13.4128
    13.4487  13.4859  13.4896  13.4951  13.5172  13.5786  13.6026  13.6546
    13.7215  13.7523  13.7967  13.8184  13.8287  13.8464  13.8991  13.8994
    13.9250  13.9875  14.0131  14.0228  14.1190  14.1447  14.1734  14.2352
    14.2457  14.2761  14.2984  14.3280  14.4203  14.4328  14.4385  14.5020
    14.5323  14.5534  14.5699  14.6251  14.6543  14.6994  14.7131  14.7474
    14.7613  14.7893  14.8548  14.8715  14.8756  14.9129  14.9341  15.0066
    15.0337  15.0377  15.0643  15.0699  15.0769  15.0996  15.1164  15.1468
    15.1617  15.2325  15.2622  15.3018  15.3201  15.3359  15.3458  15.3458
    15.4233  15.4557  15.4710  15.4997

          k = 0.0000 0.0000 0.0047 ( 73689 PWs)   bands (ev):

   -21.1012 -20.9699 -20.3452 -19.9450 -19.7421 -19.6240 -19.5259 -19.3288
   -19.2924 -18.7355 -18.6120 -18.4634 -18.3800 -17.8358 -17.4959 -17.4449
   -17.0074 -16.8836 -16.5563 -16.1280 -15.8759 -15.8104 -15.7276 -15.0241
   -14.9847 -14.8469 -14.7686 -14.6612 -14.5738 -14.5032 -14.2354 -13.9455
   -13.6047 -13.2697 -13.1555 -12.6164 -12.2810 -12.1449 -12.0365 -11.7950
   -11.7151 -11.5328 -11.4536 -11.1143 -11.0753 -10.7047 -10.3048 -10.0403
    -9.9591  -9.8988  -9.7863  -9.6040  -9.4491  -9.2071  -9.1628  -9.0453
    -9.0226  -8.9848  -8.8026  -8.6486  -8.5843  -8.5469  -8.5287  -8.4554
    -8.4247  -8.3534  -8.3155  -8.2807  -8.2688  -8.0650  -7.9840  -7.9548
    -7.9465  -7.8515  -7.6446  -7.5533  -7.5054  -7.4082  -7.3410  -7.3027
    -7.2321  -7.2131  -7.1333  -7.0765  -6.9403  -6.6423  -6.4905  -6.4482
    -6.3335  -6.1424  -6.1111  -5.6356  -5.5592  -5.4586  -5.4111  -5.3564
    -5.2556  -5.1777  -4.7801  -4.6927  -4.1837  -3.9861  -3.7897  -3.5946
    -3.2726  -2.5725  -2.1091  -1.7788  -1.3223  -0.6384  -0.5975  -0.4783
    -0.3572   0.1753   0.3660   0.5135   1.0864   1.1221   1.1698   1.2801
     1.3616   1.6050   1.7140   1.7441   2.1092   2.2682   2.3638   2.4886
     2.5177   2.5871   2.6598   2.7641   2.8832   2.9147   2.9365   2.9505
     3.0329   3.0671   3.2298   3.2512   3.2926   3.3074   3.4110   3.4686
     3.5278   3.6059   3.7801   3.8207   3.8690   3.9153   4.0099   4.0746
     4.0996   4.1107   4.1616   4.2029   4.2615   4.3296   4.3441   4.3966
     4.4024   4.4704   4.5698   4.5925   4.6436   4.6914   4.7423   4.7576
     4.7976   4.8069   4.8882   4.9415   4.9491   4.9956   5.0772   5.1140
     5.1741   5.1940   5.2000   5.2155   5.2237   5.2362   5.3099   5.3100
     5.4460   5.4938   5.5235   5.6034   5.6119   5.6511   5.6638   5.7142
     5.7366   5.9027   5.9461   5.9579   5.9874   6.0296   6.0797   6.0880
     6.1039   6.1156   6.1877   6.1919   6.2558   6.2748   6.3178   6.3352
     6.3894   6.4104   6.4130   6.4578   6.4891   6.5184   6.5280   6.5345
     6.5995   6.6869   6.7750   6.8169   6.8733   6.9203   6.9705   7.0329
     7.0371   7.0768   7.1113   7.1620   7.2417   7.2553   7.2673   7.2750
     7.3010   7.3135   7.3780   7.4097   7.4141   7.4393   7.5206   7.5306
     7.5626   7.6671   7.6773   7.7133   7.7557   7.8013   7.8024   7.8664
     7.9585   7.9791   8.0526   8.0898   8.1164   8.1379   8.2050   8.2807
     8.3163   8.3625   8.4145   8.4175   8.4605   8.4972   8.5593   8.5648
     8.6525   8.6712   8.7455   8.7643   8.7936   8.8434   8.9370   8.9811
     8.9843   9.0175   9.0428   9.0652   9.0948   9.1454   9.1749   9.2017
     9.2051   9.2561   9.2572   9.2729   9.2984   9.3631   9.4036   9.4048
     9.4333   9.4482   9.4816   9.4953   9.5306   9.5717   9.5759   9.6248
     9.6605   9.6609   9.7370   9.7472   9.7796   9.7853   9.8211   9.8479
     9.8915   9.9194   9.9621   9.9710   9.9783   9.9813  10.0082  10.0267
    10.0997  10.1470  10.1834  10.2252  10.2271  10.2352  10.2589  10.2878
    10.3106  10.3477  10.3828  10.3880  10.4235  10.4644  10.5213  10.5568
    10.5645  10.6048  10.6226  10.6556  10.7249  10.7529  10.7758  10.7878
    10.7892  10.8150  10.8337  10.8358  10.8678  10.8985  10.9076  10.9535
    11.0209  11.0414  11.0930  11.1185  11.1363  11.1441  11.1899  11.2398
    11.2399  11.2681  11.2797  11.3003  11.3137  11.3484  11.3569  11.3597
    11.3928  11.3972  11.4234  11.4379  11.4721  11.4925  11.5393  11.5429
    11.5746  11.5826  11.5984  11.6462  11.6507  11.6630  11.6976  11.7312
    11.7619  11.7913  11.8102  11.8384  11.8685  11.9526  11.9623  11.9712
    11.9946  12.0273  12.0729  12.1167  12.1186  12.1293  12.1673  12.2256
    12.2400  12.3257  12.3414  12.3771  12.3985  12.4295  12.4599  12.4690
    12.4935  12.5516  12.5880  12.6022  12.6177  12.6192  12.6210  12.6490
    12.7150  12.7750  12.8411  12.8421  12.9120  12.9422  12.9555  12.9655
    12.9850  13.0163  13.0254  13.0964  13.0980  13.1774  13.1990  13.2221
    13.3010  13.3012  13.3190  13.3230  13.3768  13.3905  13.4069  13.4282
    13.4443  13.5012  13.5075  13.5128  13.5321  13.5632  13.5744  13.7075
    13.7273  13.7300  13.8040  13.8048  13.8326  13.8465  13.9023  13.9103
    13.9420  14.0126  14.0170  14.0377  14.1068  14.1412  14.1913  14.2328
    14.2479  14.2644  14.2980  14.3151  14.4066  14.4254  14.4663  14.5113
    14.5248  14.5271  14.5728  14.6335  14.6478  14.6951  14.7134  14.7562
    14.7654  14.7825  14.8442  14.8616  14.8948  14.9102  14.9330  14.9917
    15.0128  15.0351  15.0587  15.0630  15.0962  15.1024  15.1368  15.1370
    15.1662  15.1973  15.2479  15.2561  15.2879  15.3078  15.3411  15.3848
    15.3974  15.4332  15.4887  15.5446

          k = 0.0000 0.0000 0.0070 ( 73661 PWs)   bands (ev):

   -21.0983 -20.9671 -20.3448 -19.9465 -19.7934 -19.6569 -19.4718 -19.3283
   -19.2518 -18.7698 -18.6088 -18.4462 -18.3659 -17.8304 -17.4978 -17.4336
   -17.0321 -16.8584 -16.5544 -16.1367 -15.9215 -15.8130 -15.7675 -15.0829
   -15.0052 -14.8207 -14.7414 -14.6284 -14.5420 -14.4511 -14.2391 -13.9372
   -13.6027 -13.2954 -13.1404 -12.6360 -12.2722 -12.1567 -12.0209 -11.8006
   -11.7052 -11.5299 -11.4403 -11.1086 -11.0711 -10.6949 -10.3430 -10.0400
    -9.9695  -9.9014  -9.8397  -9.5911  -9.4140  -9.1823  -9.1594  -9.0548
    -9.0192  -9.0181  -8.8122  -8.7201  -8.6399  -8.5644  -8.5438  -8.4748
    -8.3724  -8.3394  -8.3148  -8.2438  -8.2254  -8.0401  -7.9739  -7.9348
    -7.9307  -7.8520  -7.6694  -7.6135  -7.5124  -7.4561  -7.3264  -7.2436
    -7.2097  -7.1977  -7.1186  -7.0321  -6.9436  -6.6485  -6.5223  -6.4455
    -6.3460  -6.1174  -6.0929  -5.6401  -5.5544  -5.4656  -5.4164  -5.3624
    -5.2579  -5.1635  -4.7960  -4.6754  -4.1811  -3.9908  -3.8077  -3.6143
    -3.2749  -2.6079  -2.1863  -1.7029  -1.2872  -0.6467  -0.5861  -0.4538
    -0.3331   0.1737   0.3408   0.5415   1.0904   1.1150   1.1738   1.2831
     1.3504   1.6089   1.7153   1.7418   2.1111   2.2716   2.3499   2.4608
     2.5212   2.5934   2.6637   2.7740   2.8165   2.8764   2.9144   2.9488
     3.0708   3.0719   3.2032   3.2901   3.2969   3.3598   3.4043   3.4152
     3.5414   3.6616   3.7906   3.8423   3.8629   3.8950   3.9602   4.0116
     4.0919   4.1238   4.1816   4.1977   4.2424   4.2712   4.3244   4.3976
     4.4647   4.4769   4.5759   4.5836   4.6731   4.6769   4.7166   4.7316
     4.8074   4.8093   4.8515   4.9411   4.9695   4.9858   5.0950   5.1073
     5.1812   5.2043   5.2047   5.2398   5.2753   5.2762   5.3084   5.3383
     5.3983   5.5290   5.5807   5.5838   5.6119   5.6674   5.6772   5.7080
     5.8114   5.8417   5.9002   5.9364   5.9688   6.0207   6.0504   6.0684
     6.1056   6.1184   6.1559   6.2354   6.2615   6.2843   6.3327   6.3686
     6.4097   6.4322   6.4527   6.4732   6.5092   6.5354   6.5451   6.5452
     6.6331   6.6936   6.7693   6.7979   6.8555   6.9087   6.9866   6.9967
     7.0108   7.0578   7.0740   7.1402   7.2302   7.2509   7.2772   7.2889
     7.3096   7.3332   7.3822   7.4216   7.4859   7.4867   7.5158   7.5270
     7.5499   7.6858   7.6939   7.7087   7.7486   7.8066   7.8127   7.8610
     7.9486   8.0175   8.0498   8.0779   8.1074   8.1424   8.2170   8.2837
     8.2983   8.3660   8.3881   8.3999   8.4548   8.4709   8.5277   8.5590
     8.6606   8.6752   8.7359   8.7691   8.7899   8.8837   8.8921   8.9349
     8.9397   9.0113   9.0221   9.0341   9.0975   9.1046   9.1280   9.1893
     9.1981   9.2105   9.2341   9.2532   9.2833   9.3633   9.3660   9.4118
     9.4123   9.4511   9.4845   9.5130   9.5474   9.5801   9.6029   9.6457
     9.6695   9.6940   9.7079   9.7379   9.7729   9.7940   9.8526   9.8811
     9.8869   9.8903   9.9232   9.9379   9.9518   9.9542   9.9897  10.0345
    10.1162  10.1257  10.1677  10.1757  10.2211  10.2307  10.2613  10.3096
    10.3344  10.3432  10.3800  10.3967  10.4741  10.4793  10.5016  10.5446
    10.5618  10.6046  10.6102  10.6485  10.7155  10.7323  10.7742  10.7829
    10.8217  10.8422  10.8518  10.8622  10.8710  10.9134  10.9264  11.0018
    11.0111  11.0434  11.0643  11.0645  11.0868  11.1832  11.2087  11.2521
    11.2586  11.2641  11.2677  11.2867  11.2876  11.3294  11.3467  11.3499
    11.3933  11.4101  11.4153  11.4349  11.4453  11.4957  11.5487  11.5622
    11.5789  11.5870  11.6023  11.6248  11.6617  11.6744  11.7146  11.7390
    11.7959  11.7966  11.8462  11.8491  11.8680  11.9355  11.9366  11.9535
    11.9953  12.0163  12.0278  12.0730  12.1176  12.1255  12.1575  12.2151
    12.2765  12.3495  12.3555  12.3770  12.4388  12.4846  12.4917  12.4938
    12.5089  12.5375  12.5834  12.6014  12.6324  12.6427  12.6647  12.6913
    12.7394  12.7614  12.8279  12.8537  12.8910  12.9344  12.9716  12.9921
    13.0136  13.0230  13.0409  13.0457  13.0862  13.1612  13.2023  13.2038
    13.3142  13.3179  13.3256  13.3302  13.3623  13.3724  13.4341  13.4687
    13.4779  13.5071  13.5113  13.5320  13.5561  13.5733  13.5885  13.6852
    13.7278  13.7710  13.8128  13.8179  13.8251  13.8398  13.9068  13.9290
    13.9545  13.9973  14.0454  14.0768  14.0894  14.1441  14.1970  14.2210
    14.2357  14.2595  14.2949  14.3301  14.3853  14.4202  14.4620  14.5045
    14.5236  14.5427  14.5768  14.6420  14.6455  14.6801  14.7108  14.7225
    14.7656  14.8210  14.8327  14.8563  14.8984  14.9066  14.9460  14.9660
    15.0196  15.0263  15.0500  15.0513  15.0751  15.1159  15.1265  15.1443
    15.1491  15.1917  15.2277  15.2279  15.2483  15.2937  15.3013  15.3992
    15.4087  15.4252  15.5122  15.5429

          k = 0.0000 0.0000 0.0094 ( 73645 PWs)   bands (ev):

   -21.0944 -20.9632 -20.3445 -19.9493 -19.8436 -19.6925 -19.4182 -19.3291
   -19.2033 -18.8029 -18.6174 -18.4219 -18.3475 -17.8236 -17.4972 -17.4205
   -17.0567 -16.8334 -16.5516 -16.1502 -15.9757 -15.8511 -15.7834 -15.1501
   -15.0375 -14.8063 -14.6917 -14.5754 -14.5038 -14.3945 -14.2420 -13.9277
   -13.5997 -13.3228 -13.1266 -12.6620 -12.2619 -12.1693 -11.9998 -11.8142
   -11.6894 -11.5228 -11.4233 -11.1061 -11.0606 -10.6812 -10.3917 -10.0543
    -9.9803  -9.9428  -9.8445  -9.5752  -9.3924  -9.1547  -9.1524  -9.0880
    -9.0336  -9.0145  -8.8179  -8.7865  -8.7029  -8.5953  -8.5604  -8.4875
    -8.3660  -8.3140  -8.2987  -8.1963  -8.1843  -8.0145  -7.9598  -7.9071
    -7.9054  -7.8531  -7.6892  -7.6726  -7.5312  -7.5053  -7.2954  -7.2030
    -7.1917  -7.1661  -7.1061  -6.9741  -6.9467  -6.6566  -6.5564  -6.4419
    -6.3650  -6.0945  -6.0635  -5.6465  -5.5480  -5.4753  -5.4239  -5.3707
    -5.2583  -5.1463  -4.8116  -4.6578  -4.1776  -3.9982  -3.8317  -3.6408
    -3.2783  -2.6543  -2.2647  -1.6265  -1.2412  -0.6538  -0.5747  -0.4201
    -0.2999   0.1715   0.3155   0.5707   1.0959   1.1053   1.1793   1.2873
     1.3347   1.6142   1.7170   1.7394   2.1139   2.2763   2.3199   2.4404
     2.5262   2.6011   2.6692   2.7484   2.7844   2.8107   2.9194   2.9487
     3.0754   3.1156   3.1439   3.2937   3.3029   3.4007   3.4208   3.4311
     3.5484   3.6896   3.7730   3.8323   3.8456   3.9251   3.9409   3.9675
     4.0674   4.1366   4.1504   4.1889   4.2053   4.2480   4.3412   4.4178
     4.4407   4.5328   4.5558   4.5784   4.6176   4.6547   4.7192   4.7333
     4.7895   4.8510   4.8772   4.9324   4.9840   5.0077   5.0539   5.1165
     5.1473   5.2103   5.2384   5.2548   5.2958   5.2986   5.3864   5.3949
     5.4097   5.5272   5.5366   5.6197   5.6558   5.6664   5.6721   5.7699
     5.8002   5.8408   5.8829   5.8882   5.9546   5.9589   6.0375   6.0590
     6.0894   6.1221   6.1849   6.2247   6.2933   6.3212   6.3505   6.3672
     6.4379   6.4599   6.4613   6.5074   6.5133   6.5367   6.5837   6.5888
     6.6847   6.7048   6.7687   6.7886   6.8285   6.8899   6.9416   6.9421
     7.0284   7.0319   7.0624   7.1496   7.2182   7.2413   7.2765   7.3031
     7.3120   7.3613   7.3813   7.4221   7.5001   7.5171   7.5379   7.5597
     7.5619   7.7038   7.7166   7.7206   7.7430   7.8123   7.8142   7.8602
     7.9433   8.0338   8.0512   8.0748   8.1076   8.1503   8.2326   8.2429
     8.2894   8.3498   8.3803   8.3978   8.4427   8.4554   8.4962   8.5340
     8.6448   8.6948   8.7233   8.7801   8.7939   8.8068   8.8287   8.8723
     8.9280   8.9802   9.0282   9.0316   9.0763   9.0972   9.1016   9.1598
     9.1661   9.2003   9.2196   9.2555   9.2857   9.3032   9.3615   9.3671
     9.4143   9.4596   9.4969   9.5496   9.5539   9.5777   9.5875   9.6173
     9.6284   9.6881   9.7033   9.7523   9.7769   9.8096   9.8232   9.8368
     9.8772   9.8819   9.8892   9.9224   9.9429   9.9877  10.0450  10.0658
    10.0907  10.1192  10.1273  10.1850  10.2156  10.2200  10.2509  10.2822
    10.2975  10.3799  10.3939  10.4068  10.4376  10.4680  10.5269  10.5423
    10.5643  10.5927  10.6136  10.6856  10.7136  10.7525  10.7666  10.7761
    10.8189  10.8487  10.8741  10.8851  10.9171  10.9268  10.9337  10.9776
    11.0270  11.0276  11.0445  11.0850  11.1010  11.1655  11.1993  11.2075
    11.2189  11.2583  11.2707  11.2992  11.3019  11.3170  11.3454  11.3591
    11.3904  11.4103  11.4186  11.4290  11.4734  11.4766  11.5054  11.5489
    11.5944  11.6072  11.6229  11.6231  11.6633  11.6721  11.7013  11.7265
    11.8072  11.8157  11.8503  11.8821  11.9038  11.9405  11.9434  11.9640
    11.9902  12.0198  12.0335  12.0342  12.0672  12.1577  12.1785  12.2017
    12.3092  12.3421  12.3783  12.3880  12.3935  12.4279  12.5083  12.5177
    12.5379  12.5883  12.6026  12.6539  12.6565  12.6795  12.7015  12.7092
    12.7853  12.8130  12.8159  12.8231  12.8342  12.9519  12.9754  12.9905
    13.0054  13.0364  13.0491  13.0726  13.1263  13.1434  13.2125  13.2163
    13.2823  13.3154  13.3160  13.3461  13.3607  13.3892  13.4574  13.4911
    13.5044  13.5145  13.5249  13.5623  13.6080  13.6125  13.6176  13.6463
    13.7194  13.7966  13.8189  13.8319  13.8441  13.8519  13.9115  13.9365
    13.9542  13.9797  14.0700  14.0988  14.1053  14.1439  14.1615  14.1993
    14.2512  14.2716  14.2861  14.3509  14.3745  14.4025  14.4420  14.4650
    14.5403  14.5560  14.6093  14.6455  14.6614  14.6658  14.6819  14.7016
    14.7559  14.8193  14.8428  14.8835  14.8861  14.8992  14.9463  14.9786
    15.0074  15.0084  15.0404  15.0480  15.0552  15.0871  15.0996  15.1208
    15.1530  15.2041  15.2067  15.2211  15.2367  15.2899  15.2981  15.3799
    15.4138  15.4260  15.5240  15.5278

          k = 0.0000 0.0000 0.0117 ( 73667 PWs)   bands (ev):

   -21.0893 -20.9582 -20.3442 -19.9542 -19.8926 -19.7273 -19.3681 -19.3282
   -19.1504 -18.8333 -18.6335 -18.3966 -18.3233 -17.8160 -17.4934 -17.4063
   -17.0804 -16.8096 -16.5478 -16.1721 -16.0318 -15.9156 -15.7800 -15.2221
   -15.0793 -14.7995 -14.6256 -14.5085 -14.4622 -14.3360 -14.2424 -13.9185
   -13.5963 -13.3495 -13.1149 -12.6936 -12.2541 -12.1776 -11.9740 -11.8350
   -11.6686 -11.5133 -11.4017 -11.1061 -11.0450 -10.6633 -10.4485 -10.1042
   -10.0057  -9.9573  -9.8278  -9.5642  -9.3790  -9.1669  -9.1486  -9.0902
    -9.0377  -9.0085  -8.8746  -8.7938  -8.7626  -8.6382  -8.5756  -8.4941
    -8.3944  -8.3131  -8.2400  -8.1564  -8.1444  -7.9942  -7.9405  -7.8716
    -7.8707  -7.8556  -7.7306  -7.6988  -7.5541  -7.5529  -7.2551  -7.1953
    -7.1614  -7.1387  -7.0762  -6.9475  -6.9110  -6.6661  -6.5896  -6.4376
    -6.3878  -6.0771  -6.0246  -5.6548  -5.5402  -5.4876  -5.4335  -5.3814
    -5.2561  -5.1267  -4.8261  -4.6405  -4.1733  -4.0096  -3.8605  -3.6731
    -3.2827  -2.7096  -2.3436  -1.5501  -1.1864  -0.6598  -0.5635  -0.3778
    -0.2581   0.1686   0.2912   0.5998   1.0933   1.1030   1.1864   1.2927
     1.3148   1.6211   1.7193   1.7373   2.1174   2.2744   2.2824   2.4290
     2.5325   2.6105   2.6766   2.6804   2.7443   2.7952   2.9295   2.9448
     3.0741   3.0967   3.1604   3.2332   3.3107   3.4277   3.4668   3.5011
     3.5523   3.6485   3.7506   3.8182   3.8591   3.8832   3.9272   4.0248
     4.0369   4.1025   4.1203   4.1549   4.2230   4.2519   4.3581   4.3903
     4.4537   4.4889   4.5584   4.5652   4.5909   4.6253   4.7202   4.7719
     4.7788   4.8851   4.9242   4.9380   4.9451   5.0346   5.0487   5.1263
     5.1496   5.1947   5.2182   5.2699   5.3025   5.3650   5.4547   5.4707
     5.4717   5.4731   5.5399   5.6287   5.6679   5.6783   5.6870   5.7802
     5.7888   5.8326   5.8572   5.8936   5.9230   5.9611   5.9993   6.0516
     6.0930   6.1255   6.1862   6.2657   6.3023   6.3406   6.3610   6.4007
     6.4378   6.4608   6.4887   6.5086   6.5322   6.5627   6.6340   6.6477
     6.6959   6.7673   6.7702   6.7925   6.7965   6.8399   6.8785   6.9215
     7.0257   7.0309   7.0581   7.1605   7.2077   7.2307   7.2735   7.3121
     7.3143   7.3845   7.3918   7.4200   7.4796   7.5033   7.5411   7.6296
     7.6360   7.6966   7.7371   7.7444   7.7706   7.7914   7.8241   7.8609
     7.9589   8.0086   8.0781   8.0789   8.1090   8.1586   8.1999   8.2429
     8.2601   8.3408   8.3467   8.4122   8.4286   8.4644   8.4721   8.5008
     8.5849   8.7083   8.7088   8.7205   8.7602   8.7743   8.7789   8.8429
     8.9271   8.9476   8.9816   9.0275   9.0616   9.0823   9.1016   9.1127
     9.1736   9.1923   9.2233   9.2510   9.2581   9.2979   9.3270   9.3610
     9.4001   9.4055   9.5025   9.5236   9.5516   9.5588   9.6033   9.6321
     9.6331   9.6505   9.6890   9.7384   9.7420   9.7723   9.7987   9.8068
     9.8283   9.8747   9.8845   9.9350   9.9775  10.0132  10.0423  10.0749
    10.0977  10.1011  10.1279  10.1668  10.2072  10.2305  10.2549  10.2829
    10.3009  10.3299  10.3397  10.4269  10.4461  10.5109  10.5337  10.5490
    10.5831  10.6179  10.6203  10.6395  10.7231  10.7396  10.7709  10.7862
    10.8171  10.8643  10.8760  10.8815  10.8998  10.9336  10.9676  11.0061
    11.0226  11.0577  11.0619  11.1209  11.1249  11.1373  11.1512  11.1708
    11.2198  11.2296  11.2636  11.2860  11.3071  11.3129  11.3534  11.3642
    11.3734  11.4005  11.4109  11.4485  11.4511  11.4644  11.5053  11.5237
    11.5837  11.6050  11.6478  11.6519  11.6890  11.6940  11.6953  11.7453
    11.7694  11.8550  11.8552  11.8852  11.9066  11.9405  11.9851  11.9921
    12.0012  12.0047  12.0258  12.0644  12.0794  12.1471  12.1805  12.2406
    12.2910  12.3119  12.3418  12.4059  12.4153  12.4471  12.4848  12.5273
    12.5316  12.6143  12.6336  12.6796  12.6806  12.6983  12.7269  12.7421
    12.7953  12.8021  12.8075  12.8715  12.9002  12.9337  12.9343  12.9999
    13.0274  13.0406  13.0903  13.0937  13.1486  13.2022  13.2180  13.2230
    13.2447  13.3003  13.3224  13.3605  13.3960  13.4150  13.4742  13.5122
    13.5152  13.5268  13.5500  13.6013  13.6248  13.6288  13.6695  13.6696
    13.7102  13.7808  13.8237  13.8409  13.8756  13.8864  13.9126  13.9212
    13.9636  13.9865  14.0508  14.1018  14.1311  14.1455  14.1651  14.1796
    14.2562  14.2700  14.2969  14.3505  14.3708  14.4002  14.4089  14.4379
    14.5445  14.5486  14.6305  14.6361  14.6430  14.6815  14.6841  14.7073
    14.7321  14.8202  14.8381  14.8649  14.8764  14.9365  14.9453  14.9596
    14.9902  15.0083  15.0340  15.0360  15.0593  15.0621  15.0662  15.1097
    15.1513  15.1876  15.2129  15.2405  15.2460  15.3006  15.3085  15.3530
    15.4068  15.4307  15.5262  15.5346

          k = 0.0000 0.0000 0.0141 ( 73613 PWs)   bands (ev):

   -21.0830 -20.9521 -20.3443 -19.9632 -19.9392 -19.7587 -19.3441 -19.3042
   -19.0948 -18.8594 -18.6536 -18.3748 -18.2928 -17.8081 -17.4860 -17.3910
   -17.1026 -16.7880 -16.5428 -16.2093 -16.0806 -15.9866 -15.7736 -15.2971
   -15.1277 -14.7946 -14.5532 -14.4399 -14.4105 -14.2777 -14.2382 -13.9103
   -13.5936 -13.3731 -13.1056 -12.7298 -12.2549 -12.1751 -11.9461 -11.8591
   -11.6448 -11.5042 -11.3743 -11.1060 -11.0272 -10.6413 -10.5114 -10.1837
   -10.0323  -9.9452  -9.8078  -9.5640  -9.3665  -9.2200  -9.1412  -9.0700
    -9.0436  -9.0011  -8.9274  -8.8404  -8.7603  -8.6843  -8.5910  -8.4984
    -8.4298  -8.3123  -8.2025  -8.1256  -8.0972  -7.9849  -7.9166  -7.8605
    -7.8292  -7.8269  -7.7870  -7.6942  -7.5968  -7.5747  -7.2107  -7.1860
    -7.1541  -7.1189  -7.0278  -6.9435  -6.8455  -6.6761  -6.6191  -6.4327
    -6.4124  -6.0621  -5.9826  -5.6650  -5.5308  -5.5026  -5.4453  -5.3945
    -5.2512  -5.1050  -4.8387  -4.6239  -4.1681  -4.0268  -3.8924  -3.7097
    -3.2882  -2.7718  -2.4226  -1.4741  -1.1250  -0.6642  -0.5525  -0.3275
    -0.2083   0.1647   0.2692   0.6278   1.0793   1.1116   1.1950   1.2911
     1.2992   1.6294   1.7220   1.7355   2.1217   2.2199   2.2899   2.4215
     2.5399   2.6135   2.6215   2.6782   2.6861   2.8061   2.9296   2.9440
     3.0420   3.0952   3.1660   3.2033   3.3205   3.4349   3.5386   3.5442
     3.5658   3.6090   3.6652   3.8250   3.8458   3.8827   3.9188   3.9895
     4.0600   4.0753   4.1204   4.1645   4.2393   4.2603   4.3372   4.3712
     4.4156   4.4729   4.4965   4.5598   4.5878   4.6204   4.7372   4.7886
     4.8320   4.8870   4.8989   4.9419   4.9469   5.0470   5.0932   5.1384
     5.1502   5.1971   5.2274   5.2776   5.3104   5.3971   5.4294   5.5281
     5.5334   5.5473   5.5667   5.6356   5.6709   5.6760   5.6866   5.7243
     5.7808   5.8265   5.8593   5.8960   5.9327   5.9424   6.0242   6.0551
     6.1048   6.1257   6.1848   6.2907   6.3225   6.3469   6.3699   6.4367
     6.4488   6.4597   6.4865   6.5131   6.5668   6.5912   6.6734   6.7074
     6.7212   6.7720   6.7744   6.7762   6.7966   6.8153   6.8449   6.9232
     7.0007   7.0295   7.0810   7.1584   7.1935   7.2225   7.2727   7.3146
     7.3255   7.3691   7.4205   7.4351   7.4587   7.4935   7.5528   7.6819
     7.6902   7.7069   7.7270   7.7762   7.7804   7.8196   7.8367   7.8651
     7.9846   7.9867   8.0846   8.0995   8.1072   8.1574   8.1638   8.2159
     8.2480   8.2918   8.3599   8.4049   8.4139   8.4495   8.4601   8.4836
     8.5288   8.5923   8.6895   8.7087   8.7326   8.7348   8.7996   8.8337
     8.8727   8.9386   8.9623   8.9771   9.0420   9.0454   9.0904   9.1131
     9.1368   9.2026   9.2051   9.2211   9.2898   9.2956   9.3149   9.3215
     9.3624   9.3917   9.5012   9.5217   9.5292   9.5353   9.5859   9.5934
     9.6334   9.6542   9.6848   9.6997   9.7179   9.7225   9.7278   9.7821
     9.8367   9.8371   9.9293   9.9638   9.9725   9.9958  10.0120  10.0545
    10.0926  10.0972  10.1254  10.1661  10.1747  10.2151  10.2579  10.2593
    10.3042  10.3466  10.4178  10.4452  10.4629  10.4970  10.5092  10.5800
    10.5937  10.5962  10.6429  10.6770  10.6993  10.7353  10.7795  10.7898
    10.7986  10.8145  10.8375  10.8896  10.9110  10.9666  10.9776  11.0393
    11.0426  11.0730  11.0834  11.1048  11.1250  11.1439  11.1456  11.1736
    11.1744  11.2327  11.2580  11.2773  11.3059  11.3197  11.3229  11.3624
    11.3760  11.3815  11.3954  11.4116  11.4643  11.4676  11.4924  11.5196
    11.6063  11.6456  11.6653  11.6700  11.7144  11.7220  11.7362  11.7389
    11.7786  11.8127  11.8311  11.9083  11.9417  11.9613  11.9663  11.9927
    12.0036  12.0224  12.0713  12.0865  12.0907  12.1456  12.1963  12.2164
    12.2612  12.3044  12.3858  12.4261  12.4325  12.4664  12.4859  12.5024
    12.5429  12.6029  12.6335  12.6514  12.6792  12.7010  12.7273  12.7571
    12.8351  12.8515  12.8560  12.8622  12.9353  12.9375  12.9681  13.0161
    13.0531  13.0672  13.1173  13.1295  13.1639  13.1759  13.2208  13.2535
    13.2922  13.3185  13.3413  13.3995  13.4230  13.4352  13.5071  13.5103
    13.5274  13.5396  13.5734  13.6197  13.6234  13.6741  13.6872  13.7131
    13.7192  13.7862  13.8190  13.8540  13.8623  13.9041  13.9172  13.9505
    13.9526  14.0168  14.0348  14.0949  14.1317  14.1466  14.1769  14.2040
    14.2433  14.2489  14.3195  14.3456  14.3500  14.3685  14.4166  14.4447
    14.5263  14.5415  14.6059  14.6158  14.6244  14.6549  14.6920  14.7382
    14.7681  14.8001  14.8222  14.8280  14.8851  14.9222  14.9522  14.9687
    14.9892  14.9966  15.0162  15.0343  15.0501  15.0753  15.0798  15.1163
    15.1426  15.1816  15.2325  15.2375  15.2598  15.3075  15.3191  15.3429
    15.4117  15.4442  15.5142  15.5373

          k = 0.0000 0.0000 0.0164 ( 73623 PWs)   bands (ev):

   -21.0757 -20.9448 -20.3449 -19.9902 -19.9706 -19.7847 -19.3458 -19.2594
   -19.0375 -18.8789 -18.6756 -18.3573 -18.2574 -17.8000 -17.4752 -17.3749
   -17.1225 -16.7693 -16.5366 -16.2660 -16.1209 -16.0543 -15.7668 -15.3738
   -15.1808 -14.7895 -14.4854 -14.3841 -14.3334 -14.2306 -14.2176 -13.9035
   -13.5942 -13.3900 -13.0987 -12.7695 -12.2653 -12.1607 -11.9301 -11.8702
   -11.6200 -11.4971 -11.3412 -11.1038 -11.0097 -10.6152 -10.5789 -10.2738
   -10.0562  -9.9262  -9.7890  -9.5758  -9.3526  -9.2734  -9.1325  -9.1072
    -9.0373  -8.9925  -8.9435  -8.8975  -8.7344  -8.7255  -8.6071  -8.5024
    -8.4682  -8.3120  -8.1909  -8.1037  -8.0407  -7.9865  -7.8920  -7.8695
    -7.8415  -7.7844  -7.7745  -7.6762  -7.6351  -7.5851  -7.1806  -7.1604
    -7.1565  -7.1082  -6.9765  -6.9335  -6.7793  -6.6851  -6.6416  -6.4370
    -6.4273  -6.0485  -5.9411  -5.6773  -5.5200  -5.5191  -5.4595  -5.4098
    -5.2441  -5.0815  -4.8487  -4.6083  -4.1625  -4.0521  -3.9257  -3.7483
    -3.2948  -2.8393  -2.5015  -1.3988  -1.0587  -0.6668  -0.5419  -0.2702
    -0.1512   0.1593   0.2507   0.6536   1.0639   1.1219   1.2053   1.2644
     1.3068   1.6392   1.7254   1.7333   2.1268   2.1620   2.2987   2.4137
     2.5411   2.5550   2.6131   2.6342   2.6978   2.8175   2.8950   2.9619
     3.0228   3.0928   3.1108   3.2402   3.3325   3.4392   3.5005   3.5835
     3.5873   3.6080   3.6291   3.7993   3.8045   3.8592   3.9798   3.9799
     4.0068   4.0552   4.1729   4.2091   4.2568   4.2626   4.2911   4.3439
     4.3812   4.4375   4.4443   4.5365   4.5980   4.6326   4.7703   4.8039
     4.8252   4.8920   4.8948   4.9225   4.9810   5.0699   5.0946   5.1553
     5.1828   5.2389   5.2587   5.2860   5.3191   5.3333   5.4604   5.5444
     5.5678   5.6185   5.6338   5.6463   5.6802   5.6803   5.6936   5.7049
     5.7451   5.7725   5.8415   5.9158   5.9435   5.9990   6.0238   6.0837
     6.1227   6.1432   6.1897   6.3006   6.3266   6.3486   6.3952   6.4358
     6.4593   6.4827   6.4959   6.5229   6.5997   6.6103   6.6976   6.7062
     6.7242   6.7384   6.7566   6.7892   6.8223   6.8254   6.8880   6.9485
     6.9865   7.0397   7.0841   7.1505   7.1736   7.2298   7.2678   7.3139
     7.3374   7.3563   7.4292   7.4445   7.4461   7.5112   7.5652   7.6678
     7.6926   7.7287   7.7636   7.7897   7.8107   7.8528   7.8681   7.8927
     7.9737   8.0167   8.0870   8.0874   8.1183   8.1242   8.1575   8.1812
     8.2449   8.2544   8.2986   8.3858   8.3870   8.4397   8.4468   8.4628
     8.5025   8.5433   8.6530   8.6710   8.6966   8.7356   8.8083   8.8147
     8.8347   8.8858   8.9446   8.9597   8.9974   9.0023   9.0600   9.0980
     9.1366   9.1380   9.1872   9.2256   9.2324   9.3141   9.3322   9.3465
     9.3536   9.4061   9.4591   9.4898   9.4994   9.5321   9.5491   9.5631
     9.6147   9.6219   9.6238   9.6526   9.6748   9.7199   9.7482   9.7966
     9.8010   9.8280   9.9075   9.9100   9.9686  10.0012  10.0090  10.0237
    10.0282  10.1146  10.1364  10.1492  10.1697  10.2320  10.2471  10.2621
    10.3336  10.3852  10.3939  10.4096  10.4842  10.5266  10.5603  10.5650
    10.5753  10.6300  10.6521  10.6846  10.7315  10.7335  10.7529  10.7965
    10.7969  10.8195  10.8239  10.8907  10.8982  10.9693  10.9732  11.0145
    11.0264  11.0332  11.0730  11.0776  11.1157  11.1378  11.1677  11.1954
    11.2138  11.2216  11.2642  11.2760  11.2892  11.3094  11.3134  11.3659
    11.3780  11.3890  11.4042  11.4222  11.4783  11.4796  11.5238  11.5286
    11.6108  11.6436  11.6762  11.7011  11.7143  11.7343  11.7633  11.7717
    11.7976  11.8132  11.8286  11.8973  11.9186  11.9706  11.9778  12.0103
    12.0125  12.0259  12.0605  12.0970  12.1375  12.1535  12.1721  12.2344
    12.2936  12.3218  12.3746  12.4112  12.4330  12.4924  12.4992  12.5372
    12.5586  12.5606  12.6258  12.6678  12.6732  12.6858  12.6999  12.7525
    12.8358  12.8673  12.8860  12.9085  12.9599  12.9903  12.9958  13.0538
    13.0602  13.1099  13.1418  13.1534  13.1674  13.2201  13.2382  13.2764
    13.3535  13.3646  13.3735  13.4072  13.4608  13.4762  13.5122  13.5294
    13.5331  13.5605  13.5827  13.6218  13.6444  13.6781  13.7228  13.7296
    13.7411  13.7983  13.8204  13.8507  13.8703  13.9046  13.9342  13.9728
    13.9767  14.0240  14.0280  14.1032  14.1395  14.1614  14.1898  14.2004
    14.2099  14.2477  14.2905  14.3362  14.3645  14.3811  14.4138  14.4550
    14.5055  14.5277  14.5801  14.5845  14.6118  14.6244  14.6926  14.7112
    14.7709  14.8155  14.8233  14.8417  14.8644  14.9228  14.9350  14.9613
    14.9691  14.9979  15.0360  15.0369  15.0472  15.1039  15.1062  15.1344
    15.1469  15.1825  15.2284  15.2470  15.2677  15.3170  15.3416  15.3631
    15.3988  15.4613  15.5170  15.5218

          k = 0.0000 0.0000 0.0188 ( 73613 PWs)   bands (ev):

   -21.0672 -20.9365 -20.3464 -20.0335 -19.9892 -19.8038 -19.3517 -19.2180
   -18.9802 -18.8882 -18.6978 -18.3427 -18.2202 -17.7913 -17.4617 -17.3578
   -17.1396 -16.7545 -16.5295 -16.3362 -16.1748 -16.0981 -15.7604 -15.4516
   -15.2369 -14.7837 -14.4349 -14.3223 -14.2469 -14.2063 -14.1654 -13.8974
   -13.6009 -13.3968 -13.0942 -12.8118 -12.2802 -12.1404 -11.9476 -11.8443
   -11.5972 -11.4910 -11.3037 -11.0986 -10.9938 -10.6498 -10.5852 -10.3663
   -10.0799  -9.9043  -9.7762  -9.5939  -9.3489  -9.3132  -9.1772  -9.1224
    -9.0402  -8.9825  -8.9744  -8.9036  -8.7706  -8.6923  -8.6240  -8.5136
    -8.5001  -8.3123  -8.1937  -8.0916  -8.0083  -7.9717  -7.8980  -7.8800
    -7.8687  -7.7465  -7.7155  -7.6657  -7.6501  -7.5728  -7.1720  -7.1634
    -7.1249  -7.0941  -6.9321  -6.9198  -6.7154  -6.6906  -6.6507  -6.4592
    -6.4217  -6.0359  -5.9024  -5.6917  -5.5399  -5.5040  -5.4759  -5.4273
    -5.2357  -5.0565  -4.8551  -4.5939  -4.1570  -4.0868  -3.9604  -3.7856
    -3.3027  -2.9107  -2.5802  -1.3243  -0.9894  -0.6673  -0.5320  -0.2066
    -0.0877   0.1515   0.2373   0.6760   1.0478   1.1337   1.2170   1.2359
     1.3155   1.6503   1.7293   1.7295   2.1042   2.1327   2.3088   2.4039
     2.4812   2.5463   2.5626   2.6487   2.7117   2.8291   2.8469   2.9819
     3.0132   3.0375   3.1182   3.2636   3.3470   3.4299   3.4450   3.5199
     3.5868   3.6134   3.6984   3.7202   3.8232   3.8713   3.9390   3.9734
     4.0401   4.0596   4.1902   4.2247   4.2604   4.2616   4.3010   4.3044
     4.3771   4.3840   4.4190   4.4806   4.6236   4.6705   4.7413   4.7817
     4.8370   4.8826   4.8930   4.9860   5.0076   5.0388   5.1343   5.1770
     5.2376   5.2506   5.2858   5.2859   5.3289   5.3341   5.4486   5.5509
     5.5657   5.6137   5.6434   5.6831   5.6919   5.7077   5.7319   5.7466
     5.7525   5.7713   5.7915   5.8992   5.9705   6.0315   6.0854   6.1060
     6.1181   6.1670   6.2294   6.3060   6.3331   6.3448   6.3996   6.4384
     6.4625   6.5012   6.5085   6.5569   6.6156   6.6291   6.6416   6.6671
     6.7079   6.7505   6.7667   6.8197   6.8400   6.8976   6.9233   6.9708
     7.0161   7.0549   7.0672   7.1461   7.1549   7.2507   7.2553   7.3059
     7.3503   7.3552   7.4119   7.4376   7.4679   7.5366   7.5697   7.6573
     7.6693   7.7343   7.7772   7.8209   7.8432   7.8705   7.9117   7.9504
     7.9876   8.0404   8.0683   8.0706   8.0973   8.1009   8.1395   8.1805
     8.2059   8.2086   8.2654   8.3135   8.3542   8.3822   8.4714   8.4750
     8.4849   8.5609   8.5916   8.6450   8.6770   8.7422   8.7727   8.7738
     8.8066   8.8421   8.9072   8.9338   8.9553   8.9918   9.0038   9.0607
     9.0932   9.1243   9.1658   9.2142   9.2538   9.2860   9.3268   9.3420
     9.3830   9.4100   9.4285   9.4521   9.4738   9.5002   9.5204   9.5411
     9.5619   9.5809   9.6077   9.6353   9.6458   9.7042   9.7397   9.7690
     9.7889   9.8258   9.8459   9.8791   9.9007   9.9713   9.9808  10.0345
    10.0578  10.0928  10.1281  10.1843  10.1896  10.2201  10.2487  10.3126
    10.3265  10.3446  10.3947  10.3993  10.4582  10.4981  10.5425  10.5883
    10.6421  10.6458  10.6703  10.6907  10.7084  10.7522  10.8031  10.8161
    10.8202  10.8362  10.8363  10.8895  10.9073  10.9182  10.9288  10.9584
    10.9654  11.0431  11.0544  11.0592  11.0738  11.1287  11.1301  11.1676
    11.2281  11.2300  11.2650  11.2965  11.3114  11.3418  11.3620  11.3815
    11.3928  11.4151  11.4468  11.4578  11.4923  11.4991  11.5362  11.5632
    11.6167  11.6440  11.6719  11.6824  11.7013  11.7549  11.7648  11.7834
    11.8113  11.8445  11.8521  11.8818  11.8942  11.9614  11.9716  12.0142
    12.0215  12.0362  12.0936  12.1287  12.1300  12.1701  12.2029  12.2509
    12.2981  12.3254  12.3759  12.4024  12.4199  12.4833  12.5226  12.5428
    12.5502  12.5981  12.6387  12.6708  12.6747  12.6828  12.7005  12.7389
    12.8267  12.8700  12.8865  12.9485  12.9838  13.0359  13.0436  13.0477
    13.0986  13.1171  13.1599  13.1985  13.2474  13.2766  13.2803  13.3338
    13.3567  13.3847  13.4036  13.4450  13.5110  13.5138  13.5296  13.5347
    13.5359  13.5626  13.5784  13.6503  13.6579  13.6704  13.7321  13.7441
    13.7707  13.7837  13.8530  13.8818  13.8970  13.9101  13.9418  13.9882
    14.0117  14.0185  14.0445  14.0922  14.1275  14.1629  14.1786  14.2022
    14.2241  14.2557  14.2734  14.3484  14.3588  14.3809  14.4026  14.4541
    14.4994  14.5151  14.5691  14.5716  14.6067  14.6291  14.6328  14.6872
    14.7509  14.8216  14.8219  14.8462  14.8931  14.8962  14.9107  14.9510
    14.9639  14.9999  15.0314  15.0344  15.0583  15.1424  15.1430  15.1537
    15.1645  15.1891  15.2547  15.2750  15.2809  15.3422  15.3518  15.3693
    15.4129  15.4657  15.4820  15.5480

          k = 0.0000 0.0000 0.0211 ( 73583 PWs)   bands (ev):

   -21.0576 -20.9271 -20.3493 -20.0762 -20.0113 -19.8159 -19.3600 -19.1855
   -18.9286 -18.8793 -18.7183 -18.3297 -18.1837 -17.7811 -17.4471 -17.3396
   -17.1526 -16.7444 -16.5227 -16.4114 -16.2478 -16.1165 -15.7551 -15.5297
   -15.2951 -14.7769 -14.4034 -14.2570 -14.1807 -14.1419 -14.1155 -13.8902
   -13.6146 -13.3922 -13.0921 -12.8558 -12.2964 -12.1213 -11.9742 -11.8016
   -11.5801 -11.4823 -11.2644 -11.0909 -10.9805 -10.7225 -10.5527 -10.4563
   -10.1037  -9.8818  -9.7770  -9.6069  -9.3833  -9.3210  -9.2495  -9.1110
    -9.0787  -8.9922  -8.9712  -8.8877  -8.8024  -8.6493  -8.6431  -8.5471
    -8.5064  -8.3138  -8.2040  -8.0874  -8.0241  -7.9485  -7.9200  -7.9010
    -7.8486  -7.7250  -7.6873  -7.6540  -7.6128  -7.5326  -7.1735  -7.1688
    -7.1202  -7.0506  -6.9080  -6.9022  -6.6892  -6.6707  -6.6268  -6.4751
    -6.4160  -6.0243  -5.8685  -5.7083  -5.5622  -5.4947  -5.4840  -5.4471
    -5.2269  -5.0308  -4.8566  -4.5811  -4.1566  -4.1258  -3.9991  -3.8178
    -3.3121  -2.9847  -2.6586  -1.2509  -0.9188  -0.6645  -0.5228  -0.1380
    -0.0188   0.1409   0.2309   0.6931   1.0316   1.1470   1.2072   1.2303
     1.3252   1.6627   1.7213   1.7339   2.0503   2.1392   2.3201   2.3914
     2.4182   2.4848   2.5717   2.6649   2.7277   2.7949   2.8405   2.9610
     3.0020   3.0296   3.1313   3.2573   3.3624   3.3876   3.4023   3.4864
     3.5537   3.6168   3.6498   3.7566   3.8811   3.8833   3.9035   3.9558
     4.0349   4.1187   4.1755   4.1985   4.2107   4.2648   4.3091   4.3383
     4.3559   4.3869   4.4202   4.4340   4.6382   4.6784   4.7197   4.7766
     4.7862   4.8713   4.9679   4.9719   5.0430   5.0831   5.1597   5.1994
     5.2019   5.2596   5.2959   5.3224   5.3555   5.3845   5.4461   5.5057
     5.5694   5.5815   5.6513   5.6642   5.6812   5.7096   5.7616   5.8075
     5.8097   5.8332   5.8379   5.8785   5.9503   6.0660   6.1180   6.1208
     6.1785   6.1858   6.2687   6.3172   6.3370   6.3424   6.3997   6.4497
     6.4699   6.4990   6.5316   6.5653   6.5954   6.6078   6.6185   6.6681
     6.6887   6.7670   6.8044   6.8265   6.8673   6.9568   6.9771   7.0099
     7.0263   7.0531   7.0750   7.1262   7.1863   7.2377   7.2623   7.3005
     7.3630   7.3640   7.3902   7.4491   7.4852   7.5380   7.5636   7.6346
     7.6940   7.7135   7.7761   7.8570   7.8666   7.8852   7.9414   8.0049
     8.0132   8.0236   8.0403   8.0510   8.0606   8.0920   8.1016   8.1654
     8.1919   8.1927   8.2255   8.2796   8.3201   8.3587   8.4681   8.4789
     8.5008   8.5350   8.5562   8.6198   8.6713   8.7248   8.7320   8.7474
     8.7588   8.8142   8.8460   8.8752   8.9220   8.9679   8.9855   9.0368
     9.0776   9.0878   9.1803   9.1845   9.2284   9.2954   9.2999   9.3223
     9.3348   9.3678   9.4301   9.4388   9.4450   9.4677   9.5067   9.5164
     9.5572   9.5755   9.6036   9.6183   9.6255   9.6552   9.7029   9.7382
     9.7425   9.7748   9.7946   9.8554   9.9164   9.9635   9.9833   9.9836
    10.0519  10.1011  10.1415  10.1669  10.1837  10.2392  10.2404  10.2896
    10.3167  10.4061  10.4105  10.4327  10.4426  10.4578  10.5138  10.5293
    10.6150  10.6454  10.6653  10.6953  10.7664  10.7918  10.8161  10.8202
    10.8278  10.8592  10.8642  10.8859  10.8915  10.9045  10.9159  10.9417
    10.9509  10.9958  11.0142  11.0418  11.0689  11.0783  11.1093  11.1589
    11.2428  11.2607  11.2798  11.2971  11.3282  11.3723  11.3908  11.4239
    11.4406  11.4464  11.4735  11.4787  11.5208  11.5261  11.5418  11.6059
    11.6331  11.6633  11.6706  11.6811  11.6899  11.7163  11.7569  11.7822
    11.7973  11.8120  11.8626  11.9129  11.9196  11.9446  11.9746  12.0434
    12.0576  12.0581  12.0873  12.1214  12.1660  12.1886  12.2221  12.2536
    12.2931  12.3292  12.3300  12.4285  12.4586  12.4794  12.5272  12.5572
    12.5717  12.5956  12.6072  12.6519  12.6589  12.6983  12.7227  12.7906
    12.8471  12.8654  12.9143  12.9483  12.9807  13.0136  13.0848  13.1195
    13.1440  13.1675  13.1833  13.2075  13.2875  13.3338  13.3471  13.3814
    13.3947  13.4001  13.4335  13.4834  13.5110  13.5196  13.5255  13.5459
    13.5551  13.5911  13.6130  13.6278  13.6590  13.6910  13.7279  13.7594
    13.7923  13.8199  13.8891  13.9143  13.9263  13.9440  13.9616  13.9909
    14.0136  14.0162  14.0603  14.0897  14.0934  14.1731  14.1742  14.1841
    14.2448  14.2733  14.3016  14.3285  14.3500  14.3537  14.4084  14.4785
    14.4980  14.5046  14.5573  14.5813  14.5992  14.6198  14.6481  14.6724
    14.7439  14.7578  14.7814  14.8538  14.8729  14.8885  14.9115  14.9344
    14.9711  15.0181  15.0269  15.0382  15.0809  15.1440  15.1552  15.2022
    15.2055  15.2224  15.2929  15.3149  15.3238  15.3471  15.3671  15.3714
    15.4200  15.4603  15.5030  15.5587

          k = 0.0000 0.0000 0.0235 ( 73607 PWs)   bands (ev):

   -21.0470 -20.9166 -20.3543 -20.1170 -20.0363 -19.8220 -19.3704 -19.1644
   -18.8962 -18.8395 -18.7337 -18.3178 -18.1502 -17.7681 -17.4333 -17.3205
   -17.1602 -16.7405 -16.5267 -16.4778 -16.3250 -16.1250 -15.7518 -15.6073
   -15.3547 -14.7692 -14.3829 -14.2094 -14.1186 -14.0674 -14.0469 -13.8791
   -13.6329 -13.3782 -13.0927 -12.9002 -12.3121 -12.1142 -11.9901 -11.7530
   -11.5718 -11.4671 -11.2262 -11.0839 -10.9693 -10.7950 -10.5531 -10.5051
   -10.1275  -9.8632  -9.7954  -9.6045  -9.4266  -9.3603  -9.2926  -9.1329
    -9.0983  -8.9896  -8.9586  -8.8866  -8.8158  -8.6674  -8.6064  -8.5724
    -8.5083  -8.3170  -8.2186  -8.0890  -8.0457  -7.9981  -7.9264  -7.8767
    -7.8321  -7.7119  -7.7000  -7.5972  -7.5576  -7.4745  -7.1863  -7.1753
    -7.1180  -6.9996  -6.9032  -6.8901  -6.6777  -6.6494  -6.5720  -6.4750
    -6.4104  -6.0133  -5.8408  -5.7271  -5.5868  -5.5157  -5.4691  -5.4579
    -5.2187  -5.0056  -4.8513  -4.5702  -4.1924  -4.1363  -4.0450  -3.8419
    -3.3233  -3.0602  -2.7365  -1.1787  -0.8497  -0.6566  -0.5144  -0.0663
     0.0537   0.1286   0.2330   0.7029   1.0162   1.1619   1.1802   1.2452
     1.3358   1.6761   1.7053   1.7395   2.0043   2.1462   2.3305   2.3587
     2.3762   2.4232   2.5824   2.6828   2.7438   2.7456   2.8511   2.8981
     3.0183   3.0369   3.1462   3.2085   3.3317   3.3665   3.3933   3.4535
     3.5027   3.6163   3.6289   3.7581   3.9000   3.9179   3.9239   3.9550
     4.0392   4.1182   4.1461   4.1594   4.2317   4.2455   4.2950   4.3293
     4.3647   4.3712   4.4370   4.4883   4.6169   4.6520   4.7166   4.7575
     4.7883   4.8605   4.9437   5.0438   5.0850   5.1280   5.1589   5.1736
     5.2100   5.2751   5.3112   5.3287   5.3879   5.4171   5.4693   5.4994
     5.5264   5.5732   5.6185   5.6746   5.6799   5.7179   5.7601   5.8405
     5.8821   5.8868   5.9120   5.9207   5.9528   6.0349   6.1238   6.1912
     6.2089   6.2530   6.2790   6.3264   6.3358   6.3422   6.4226   6.4697
     6.4791   6.4953   6.5200   6.5399   6.5703   6.6007   6.6037   6.6644
     6.7287   6.7694   6.8147   6.8744   6.8915   6.9766   7.0032   7.0316
     7.0535   7.0877   7.1037   7.1107   7.2086   7.2423   7.2756   7.3007
     7.3706   7.3780   7.3781   7.4734   7.4968   7.5086   7.5636   7.6214
     7.6795   7.7281   7.7813   7.8719   7.8754   7.8949   7.9264   7.9561
     7.9839   7.9952   7.9981   8.0440   8.0787   8.1148   8.1150   8.1559
     8.1717   8.2013   8.2227   8.2890   8.2953   8.3446   8.4567   8.4603
     8.4865   8.5107   8.5239   8.5961   8.6484   8.6888   8.6919   8.7159
     8.7591   8.7890   8.7918   8.8194   8.8933   8.9271   8.9639   9.0120
     9.0428   9.1258   9.1424   9.1742   9.1962   9.2503   9.2570   9.2638
     9.3314   9.3586   9.3791   9.3904   9.4200   9.4559   9.4889   9.5245
     9.5638   9.5717   9.5877   9.5994   9.6122   9.6181   9.6297   9.7070
     9.7188   9.7602   9.7916   9.8477   9.8651   9.9137   9.9836  10.0201
    10.0436  10.0588  10.0781  10.1259  10.2093  10.2384  10.2747  10.3251
    10.3378  10.3434  10.4392  10.4532  10.4692  10.4839  10.4871  10.5206
    10.5670  10.5975  10.6430  10.6970  10.7005  10.7393  10.7896  10.8217
    10.8322  10.8336  10.8474  10.9063  10.9222  10.9340  10.9364  10.9608
    10.9627  10.9799  11.0185  11.0337  11.0772  11.1072  11.1089  11.1895
    11.2046  11.2658  11.3074  11.3251  11.3429  11.3950  11.4332  11.4389
    11.4646  11.4717  11.4893  11.5057  11.5410  11.5455  11.5508  11.5995
    11.6089  11.6781  11.6855  11.6900  11.6956  11.7360  11.7484  11.7701
    11.7930  11.8053  11.8522  11.9120  11.9418  11.9642  12.0111  12.0345
    12.0734  12.0842  12.0929  12.1274  12.1654  12.1870  12.2188  12.2842
    12.2905  12.3132  12.4022  12.4405  12.4599  12.4937  12.5074  12.5518
    12.5719  12.5827  12.6258  12.6358  12.6852  12.7062  12.7307  12.8149
    12.8510  12.9060  12.9258  12.9642  13.0069  13.0307  13.1331  13.1375
    13.1538  13.2165  13.2281  13.2322  13.2851  13.3489  13.3844  13.4038
    13.4150  13.4454  13.4963  13.5009  13.5177  13.5288  13.5607  13.5626
    13.5933  13.5992  13.6104  13.6341  13.6694  13.7201  13.7237  13.7589
    13.8191  13.8934  13.9005  13.9298  13.9437  13.9593  13.9708  13.9915
    14.0227  14.0396  14.0582  14.1074  14.1353  14.1429  14.1524  14.1964
    14.2327  14.3081  14.3112  14.3255  14.3300  14.3586  14.4253  14.4777
    14.4934  14.5337  14.5555  14.5941  14.6126  14.6293  14.6573  14.6808
    14.6858  14.7221  14.7841  14.8229  14.8338  14.8728  14.8822  14.9414
    15.0013  15.0136  15.0504  15.0742  15.1003  15.1526  15.1652  15.2370
    15.2432  15.2536  15.3337  15.3378  15.3487  15.3780  15.3824  15.4017
    15.4169  15.4761  15.5174  15.5239

          k = 0.0000 0.0000 0.0258 ( 73582 PWs)   bands (ev):

   -21.0352 -20.9051 -20.3622 -20.1558 -20.0622 -19.8236 -19.3832 -19.1541
   -18.8754 -18.7868 -18.7338 -18.3063 -18.1212 -17.7510 -17.4224 -17.3008
   -17.1603 -16.7456 -16.5803 -16.4970 -16.3970 -16.1289 -15.7531 -15.6816
   -15.4148 -14.7604 -14.3681 -14.1765 -14.0680 -14.0004 -13.9491 -13.8605
   -13.6512 -13.3587 -13.0962 -12.9430 -12.3269 -12.1293 -11.9841 -11.7020
   -11.5703 -11.4451 -11.1937 -11.0848 -10.9594 -10.8621 -10.6233 -10.4706
   -10.1507  -9.8677  -9.8106  -9.5876  -9.4735  -9.4278  -9.3257  -9.1736
    -9.0844  -8.9840  -8.9447  -8.9022  -8.8127  -8.6988  -8.5947  -8.5584
    -8.5030  -8.3227  -8.2360  -8.0947  -8.0683  -8.0457  -7.9550  -7.8577
    -7.8085  -7.7054  -7.6947  -7.5477  -7.4886  -7.4080  -7.2017  -7.1910
    -7.1106  -6.9510  -6.9043  -6.8917  -6.6551  -6.6379  -6.5189  -6.4439
    -6.4051  -6.0029  -5.8201  -5.7483  -5.6135  -5.5389  -5.4931  -5.4251
    -5.2118  -4.9827  -4.8374  -4.5618  -4.2483  -4.1335  -4.0974  -3.8575
    -3.3372  -3.1358  -2.8137  -1.1083  -0.7875  -0.6386  -0.5067   0.0033
     0.1194   0.1258   0.2472   0.7033   1.0014   1.1577   1.1783   1.2616
     1.3472   1.6773   1.6901   1.7463   1.9705   2.1532   2.2935   2.3486
     2.3585   2.3638   2.5907   2.6980   2.7023   2.7652   2.8363   2.8586
     3.0201   3.0457   3.1431   3.1625   3.2788   3.3300   3.4013   3.4401
     3.4475   3.6180   3.6431   3.7152   3.8822   3.9190   3.9771   4.0264
     4.0416   4.0589   4.1083   4.1671   4.2201   4.2664   4.2668   4.3156
     4.3462   4.4081   4.4671   4.5577   4.5696   4.6575   4.6678   4.7513
     4.8083   4.8612   4.9315   5.0789   5.1028   5.1243   5.1776   5.2109
     5.2158   5.2887   5.3181   5.3195   5.3969   5.4123   5.4943   5.5071
     5.5270   5.5656   5.6112   5.6880   5.7119   5.7248   5.7683   5.8157
     5.8987   5.9574   5.9756   5.9975   6.0087   6.0275   6.1321   6.2042
     6.2591   6.2831   6.3084   6.3163   6.3351   6.3714   6.4305   6.4768
     6.4829   6.4867   6.5034   6.5233   6.5898   6.6000   6.6253   6.6393
     6.7351   6.8038   6.8277   6.9010   6.9467   6.9535   6.9840   7.0468
     7.0986   7.1088   7.1490   7.1589   7.1866   7.2522   7.2894   7.3449
     7.3675   7.3909   7.4000   7.4701   7.5017   7.5019   7.5556   7.6248
     7.6415   7.7289   7.7804   7.8353   7.8586   7.8654   7.9008   7.9241
     7.9431   7.9595   8.0125   8.0288   8.0457   8.1317   8.1454   8.1821
     8.2046   8.2243   8.2448   8.2760   8.3058   8.3334   8.4041   8.4184
     8.4772   8.4913   8.5185   8.5395   8.6071   8.6564   8.6712   8.6976
     8.7244   8.7667   8.7686   8.7862   8.8836   8.8953   8.9193   8.9891
     9.0073   9.0958   9.1558   9.1673   9.1749   9.1924   9.2118   9.2128
     9.2925   9.3239   9.3369   9.3540   9.4134   9.4434   9.4512   9.4756
     9.5170   9.5621   9.5692   9.5778   9.6113   9.6125   9.6435   9.7096
     9.7198   9.7439   9.8098   9.8261   9.8493   9.8556   9.9308   9.9718
     9.9852  10.0269  10.0931  10.1463  10.2106  10.2437  10.2459  10.2960
    10.3869  10.3932  10.4139  10.4585  10.4604  10.4856  10.4866  10.5177
    10.5432  10.6071  10.6186  10.6570  10.6671  10.6997  10.7343  10.7531
    10.7715  10.8216  10.8606  10.8826  10.9121  10.9337  10.9464  10.9529
    10.9757  11.0045  11.0769  11.1164  11.1288  11.1388  11.1464  11.2126
    11.2222  11.2709  11.3227  11.3588  11.3592  11.4203  11.4368  11.4483
    11.4571  11.4658  11.4996  11.5051  11.5578  11.5706  11.5786  11.5792
    11.6123  11.6665  11.6912  11.6969  11.7062  11.7288  11.7408  11.7552
    11.8237  11.8339  11.8653  11.9204  11.9799  11.9839  11.9921  12.0081
    12.0801  12.0996  12.1089  12.1415  12.1515  12.1755  12.2491  12.3088
    12.3222  12.3486  12.4266  12.4426  12.4586  12.4990  12.5126  12.5384
    12.5599  12.5867  12.6188  12.6373  12.7116  12.7414  12.7867  12.7928
    12.8639  12.9022  12.9524  13.0198  13.0210  13.0777  13.1190  13.1284
    13.2082  13.2162  13.2599  13.3038  13.3084  13.3310  13.3606  13.4084
    13.4093  13.4820  13.5068  13.5421  13.5440  13.5745  13.5900  13.6073
    13.6175  13.6293  13.6293  13.6534  13.7041  13.7046  13.7405  13.7952
    13.8144  13.8695  13.9217  13.9285  13.9600  13.9635  14.0050  14.0105
    14.0333  14.0707  14.0795  14.1235  14.1303  14.1875  14.1910  14.2129
    14.2262  14.2685  14.3065  14.3210  14.3707  14.3798  14.4451  14.4743
    14.5005  14.5478  14.5557  14.5879  14.5891  14.6609  14.6690  14.6805
    14.6910  14.7282  14.7604  14.7898  14.8452  14.8517  14.8968  14.9668
    14.9900  15.0201  15.0568  15.1164  15.1291  15.1724  15.1830  15.2520
    15.2575  15.2690  15.3404  15.3528  15.3725  15.4010  15.4180  15.4391
    15.4667  15.4753  15.4772  15.5022

          k = 0.0000 0.0000 0.0282 ( 73614 PWs)   bands (ev):

   -21.0223 -20.8925 -20.3737 -20.1924 -20.0869 -19.8217 -19.3982 -19.1511
   -18.8672 -18.7439 -18.6983 -18.2951 -18.0982 -17.7286 -17.4160 -17.2813
   -17.1514 -16.7672 -16.6432 -16.5231 -16.4401 -16.1300 -15.7818 -15.7295
   -15.4748 -14.7506 -14.3564 -14.1496 -14.0441 -13.9171 -13.8558 -13.8251
   -13.6639 -13.3373 -13.1041 -12.9810 -12.3410 -12.1602 -11.9630 -11.6543
   -11.5662 -11.4193 -11.1776 -11.0961 -10.9727 -10.8961 -10.6792 -10.4309
   -10.1725  -9.9097  -9.8028  -9.5623  -9.5371  -9.4775  -9.3821  -9.1966
    -9.0691  -8.9798  -8.9296  -8.9196  -8.8114  -8.7300  -8.5960  -8.5395
    -8.4778  -8.3318  -8.2549  -8.1031  -8.0911  -8.0895  -7.9841  -7.8618
    -7.7760  -7.7054  -7.6721  -7.5023  -7.4137  -7.3401  -7.2197  -7.2090
    -7.1003  -6.9354  -6.9004  -6.8801  -6.6417  -6.6235  -6.4644  -6.4002
    -6.3862  -5.9929  -5.8058  -5.7719  -5.6424  -5.5644  -5.5192  -5.3862
    -5.2066  -4.9631  -4.8138  -4.5574  -4.3077  -4.1656  -4.1208  -3.8662
    -3.3557  -3.2088  -2.8899  -1.0401  -0.7409  -0.6025  -0.4995   0.0494
     0.1318   0.1886   0.2846   0.6932   0.9859   1.1428   1.1963   1.2794
     1.3594   1.6357   1.7043   1.7551   1.9503   2.1590   2.2371   2.3033
     2.3386   2.3644   2.5877   2.6669   2.7233   2.7763   2.7863   2.8562
     2.9906   3.0531   3.0901   3.1791   3.2324   3.2725   3.3917   3.4165
     3.4513   3.6338   3.6472   3.6744   3.8345   3.9370   3.9877   4.0395
     4.0450   4.0682   4.0892   4.1643   4.2315   4.2464   4.2725   4.2992
     4.3652   4.4432   4.5019   4.5128   4.5997   4.6288   4.6975   4.7281
     4.8272   4.8769   4.9325   5.0301   5.0897   5.1702   5.1980   5.2182
     5.2796   5.2876   5.3163   5.3227   5.3537   5.4277   5.4859   5.5113
     5.5129   5.6084   5.6868   5.6902   5.7295   5.7588   5.7789   5.7985
     5.8923   5.9492   6.0262   6.0733   6.0939   6.0970   6.1436   6.2179
     6.2487   6.2831   6.3026   6.3323   6.3702   6.3830   6.4169   6.4699
     6.4743   6.5124   6.5124   6.5481   6.6061   6.6064   6.6324   6.6610
     6.7393   6.8058   6.8544   6.9245   6.9327   6.9639   7.0151   7.0304
     7.1210   7.1496   7.1535   7.1835   7.2348   7.2672   7.2887   7.3834
     7.4003   7.4079   7.4329   7.4554   7.5002   7.5047   7.5526   7.6050
     7.6348   7.6470   7.7500   7.7982   7.8232   7.8455   7.8842   7.8985
     7.9199   7.9579   8.0110   8.0201   8.0397   8.1280   8.1650   8.1933
     8.2170   8.2247   8.2894   8.2987   8.3170   8.3389   8.3501   8.3747
     8.4324   8.4764   8.5241   8.5273   8.5676   8.6183   8.6273   8.6774
     8.6808   8.7333   8.7605   8.7798   8.8519   8.8545   8.9147   8.9302
     9.0251   9.0545   9.1104   9.1203   9.1343   9.1641   9.1707   9.2390
     9.2460   9.2791   9.2971   9.3208   9.3304   9.4225   9.4287   9.4720
     9.4967   9.5272   9.5372   9.5704   9.6104   9.6278   9.6599   9.7133
     9.7314   9.7553   9.7794   9.8022   9.8128   9.8461   9.8843   9.8902
     9.9770   9.9936  10.0933  10.1554  10.1757  10.2075  10.2756  10.3060
    10.3436  10.3764  10.4007  10.4463  10.4634  10.4902  10.4955  10.5204
    10.5386  10.5780  10.6073  10.6386  10.6830  10.6949  10.7000  10.7018
    10.7355  10.7831  10.8442  10.8744  10.8785  10.9208  10.9408  10.9767
    10.9849  11.0200  11.0746  11.1635  11.1792  11.1830  11.2139  11.2482
    11.3006  11.3126  11.3410  11.3614  11.3769  11.3814  11.4162  11.4375
    11.4661  11.4818  11.5042  11.5341  11.5553  11.5825  11.6099  11.6120
    11.6516  11.6525  11.6820  11.6931  11.7114  11.7144  11.7318  11.7350
    11.8348  11.8520  11.8986  11.9014  11.9415  11.9695  12.0096  12.0348
    12.1014  12.1092  12.1352  12.1484  12.1700  12.1835  12.2993  12.3018
    12.3584  12.3834  12.3859  12.4382  12.4681  12.5151  12.5352  12.5364
    12.5956  12.6117  12.6142  12.6493  12.7179  12.7441  12.7726  12.8766
    12.9029  12.9116  12.9696  13.0117  13.0594  13.0729  13.0979  13.1364
    13.1855  13.2580  13.2813  13.3133  13.3223  13.3607  13.3724  13.4291
    13.4296  13.4844  13.5070  13.5508  13.5592  13.5809  13.6174  13.6383
    13.6406  13.6540  13.6732  13.6868  13.7158  13.7489  13.7572  13.8026
    13.8290  13.8624  13.9328  13.9398  13.9525  13.9702  14.0109  14.0119
    14.0739  14.0788  14.1287  14.1476  14.1881  14.2232  14.2260  14.2345
    14.2442  14.2635  14.2996  14.3101  14.3885  14.4234  14.4243  14.4786
    14.5122  14.5193  14.5534  14.5664  14.5933  14.6499  14.6981  14.7136
    14.7171  14.7606  14.7700  14.7988  14.8307  14.9125  14.9345  14.9711
    14.9949  15.0239  15.0578  15.1350  15.1574  15.1923  15.2118  15.2272
    15.2686  15.2687  15.3527  15.3753  15.3904  15.4012  15.4328  15.4478
    15.4656  15.4748  15.4807  15.5085

          k = 0.0000 0.0000 0.0305 ( 73610 PWs)   bands (ev):

   -21.0084 -20.8789 -20.3895 -20.2269 -20.1088 -19.8175 -19.4153 -19.1520
   -18.8743 -18.6999 -18.6388 -18.2838 -18.0817 -17.7005 -17.4149 -17.2627
   -17.1331 -16.8164 -16.6875 -16.5825 -16.4429 -16.1295 -15.8502 -15.7387
   -15.5335 -14.7397 -14.3470 -14.1268 -14.0333 -13.8572 -13.7796 -13.7449
   -13.6619 -13.3180 -13.1194 -13.0086 -12.3550 -12.1960 -11.9387 -11.6245
   -11.5411 -11.3928 -11.2011 -11.1080 -11.0208 -10.8774 -10.7108 -10.3919
   -10.1911  -9.9652  -9.7948  -9.6121  -9.5328  -9.5064  -9.4537  -9.2148
    -9.0527  -8.9801  -8.9321  -8.9132  -8.8254  -8.7472  -8.5930  -8.5316
    -8.4409  -8.3451  -8.2741  -8.1343  -8.1141  -8.1058  -8.0114  -7.8742
    -7.7434  -7.7016  -7.6478  -7.4607  -7.3371  -7.2871  -7.2399  -7.2122
    -7.0890  -6.9515  -6.9118  -6.8290  -6.6552  -6.5859  -6.4024  -6.3959
    -6.3182  -5.9830  -5.7981  -5.7969  -5.6732  -5.5920  -5.5472  -5.3429
    -5.2029  -4.9465  -4.7811  -4.5600  -4.3650  -4.2309  -4.1166  -3.8701
    -3.3845  -3.2732  -2.9649  -0.9750  -0.7123  -0.5461  -0.4921   0.0519
     0.1735   0.2456   0.3527   0.6725   0.9676   1.1381   1.2157   1.2987
     1.3723   1.5824   1.7176   1.7667   1.9418   2.1535   2.1925   2.2462
     2.3169   2.3798   2.5636   2.6595   2.7205   2.7446   2.8082   2.8252
     2.9518   3.0336   3.0538   3.1829   3.2102   3.2412   3.3369   3.4354
     3.4670   3.6006   3.6526   3.6844   3.7837   3.9270   3.9559   4.0179
     4.0424   4.0747   4.0966   4.2193   4.2343   4.2478   4.2720   4.3217
     4.3840   4.4521   4.4701   4.5437   4.5687   4.6321   4.7122   4.7635
     4.8428   4.8974   4.9428   4.9921   5.0552   5.1496   5.2345   5.2363
     5.2753   5.3045   5.3296   5.3374   5.3597   5.4019   5.4595   5.5002
     5.5730   5.6680   5.6939   5.7392   5.7570   5.7887   5.7987   5.8157
     5.8812   5.9188   6.0794   6.1247   6.1622   6.1645   6.1850   6.2359
     6.2381   6.2777   6.2939   6.3280   6.3477   6.3506   6.4585   6.4687
     6.5185   6.5290   6.5554   6.5569   6.5879   6.6290   6.6832   6.6868
     6.7497   6.8306   6.8447   6.8913   6.9454   6.9633   7.0498   7.0735
     7.1088   7.1299   7.1872   7.1981   7.2648   7.3080   7.3301   7.3933
     7.4042   7.4325   7.4658   7.4719   7.4971   7.5065   7.5408   7.5725
     7.5848   7.6374   7.6735   7.7767   7.7997   7.8332   7.8511   7.8742
     7.9226   7.9730   7.9895   7.9980   8.0518   8.1493   8.1728   8.1771
     8.2025   8.2055   8.2329   8.2985   8.3257   8.3412   8.3748   8.3979
     8.4367   8.4443   8.5039   8.5268   8.5506   8.5830   8.5983   8.6450
     8.6569   8.6879   8.7392   8.7749   8.7760   8.8426   8.8775   8.9366
     9.0056   9.0268   9.0654   9.0928   9.0964   9.1129   9.1291   9.1840
     9.2060   9.2102   9.3103   9.3153   9.3295   9.3615   9.4127   9.4512
     9.4808   9.4858   9.5386   9.5769   9.6067   9.6396   9.6764   9.6815
     9.6984   9.7190   9.7404   9.7806   9.8124   9.8208   9.8617   9.9220
     9.9538   9.9845  10.0593  10.1108  10.1820  10.1910  10.2111  10.3086
    10.3294  10.3476  10.3489  10.4185  10.4486  10.4552  10.5134  10.5284
    10.5684  10.6017  10.6094  10.6251  10.6351  10.6563  10.6964  10.7179
    10.7399  10.7964  10.8063  10.8068  10.8977  10.9442  10.9508  10.9817
    10.9988  11.0223  11.0561  11.1603  11.2114  11.2360  11.2388  11.2681
    11.2749  11.3426  11.3646  11.3782  11.4051  11.4291  11.4399  11.4581
    11.4865  11.5010  11.5242  11.5509  11.5532  11.5986  11.6080  11.6231
    11.6575  11.6810  11.6925  11.6971  11.7088  11.7276  11.7300  11.7399
    11.8285  11.8346  11.8714  11.8738  11.9306  11.9654  11.9970  12.0539
    12.1164  12.1305  12.1490  12.1923  12.1930  12.2084  12.3012  12.3157
    12.3502  12.3937  12.4273  12.4289  12.5082  12.5158  12.5371  12.5478
    12.6144  12.6184  12.6602  12.6895  12.7336  12.7519  12.7943  12.8895
    12.9368  12.9584  12.9759  12.9823  13.0187  13.1001  13.1060  13.1476
    13.1739  13.2304  13.2557  13.3176  13.3448  13.3647  13.4511  13.4615
    13.4726  13.4763  13.5162  13.5547  13.5809  13.5892  13.6167  13.6297
    13.6537  13.6695  13.6738  13.6809  13.7402  13.7648  13.7993  13.8567
    13.8682  13.8990  13.9252  13.9405  13.9662  13.9722  14.0255  14.0921
    14.0927  14.0974  14.1385  14.1803  14.2016  14.2190  14.2428  14.2607
    14.2907  14.2986  14.3226  14.3376  14.3629  14.3784  14.4605  14.5057
    14.5068  14.5210  14.5550  14.5868  14.6115  14.6213  14.6869  14.7529
    14.7604  14.8015  14.8158  14.8510  14.8597  14.9609  14.9784  14.9962
    15.0224  15.0243  15.0595  15.1544  15.1630  15.1800  15.2117  15.2236
    15.2669  15.2843  15.3437  15.3949  15.3990  15.4114  15.4158  15.4213
    15.4755  15.4889  15.4930  15.4970

          k = 0.0000 0.0000 0.0329 ( 73596 PWs)   bands (ev):

   -20.9935 -20.8642 -20.4097 -20.2599 -20.1267 -19.8113 -19.4343 -19.1541
   -18.8898 -18.6462 -18.5738 -18.2724 -18.0714 -17.6670 -17.4188 -17.2449
   -17.1073 -16.8873 -16.7224 -16.6406 -16.4344 -16.1293 -15.9234 -15.7438
   -15.5897 -14.7279 -14.3398 -14.1081 -14.0298 -13.8307 -13.6994 -13.6652
   -13.6168 -13.3047 -13.1431 -13.0206 -12.3710 -12.2304 -11.9189 -11.6133
   -11.4916 -11.3694 -11.2574 -11.1545 -11.0307 -10.8506 -10.7142 -10.3582
   -10.2036 -10.0251  -9.7983  -9.6830  -9.5334  -9.5273  -9.4956  -9.2367
    -9.0350  -8.9890  -8.9392  -8.8956  -8.8506  -8.7487  -8.5901  -8.5212
    -8.4093  -8.3633  -8.2914  -8.1756  -8.1266  -8.1143  -8.0349  -7.8888
    -7.7122  -7.6950  -7.6249  -7.4256  -7.2865  -7.2620  -7.2557  -7.1672
    -7.0781  -6.9716  -6.9237  -6.7745  -6.6725  -6.5444  -6.3925  -6.3348
[...]
     3.4004   3.4567   3.6028   3.6100   3.6954   3.7013   3.7838   3.9080
     3.9345   3.9403   4.0646   4.1645   4.2135   4.3638   4.4395   4.4482
     4.5029   4.5690   4.6064   4.6598   4.7031   4.7491   4.8010   4.8184
     4.8590   4.8616   4.9491   4.9671   5.0303   5.0335   5.0599   5.1801
     5.3538   5.4455   5.4758   5.5146   5.5419   5.5990   5.5993   5.6616
     5.7364   5.7611   5.7790   5.8327   5.8783   5.8854   5.8939   5.9166
     6.0098   6.0855   6.1857   6.1919   6.2258   6.2741   6.3063   6.3152
     6.3329   6.3555   6.3741   6.4660   6.4918   6.5391   6.5709   6.5761
     6.6670   6.6939   6.6995   6.7173   6.7946   6.8086   6.8173   6.8740
     6.9097   6.9269   6.9701   7.0127   7.0127   7.0381   7.0635   7.1006
     7.1349   7.1629   7.1964   7.2261   7.2517   7.2902   7.2974   7.3212
     7.3583   7.3894   7.4148   7.4434   7.4931   7.5312   7.5357   7.5661
     7.6463   7.6788   7.7111   7.7489   7.7775   7.7868   7.7965   7.8588
     7.8738   7.8873   7.9141   7.9229   7.9266   8.0220   8.0258   8.0403
     8.0882   8.0942   8.1242   8.1426   8.2000   8.2063   8.2279   8.2973
     8.3315   8.3484   8.3511   8.3534   8.4144   8.4754   8.5209   8.5400
     8.5439   8.6056   8.6325   8.6470   8.6893   8.6986   8.7022   8.7395
     8.7947   8.8199   8.8412   8.9072   8.9212   8.9570   9.0088   9.0443
     9.0658   9.1284   9.1489   9.1746   9.1915   9.2028   9.2327   9.2930
     9.3130   9.3499   9.4068   9.4397   9.4480   9.5298   9.5419   9.5806
     9.5949   9.6963   9.7365   9.7628   9.7855   9.7946   9.8163   9.8927
     9.9032   9.9075   9.9267   9.9898  10.0018  10.0333  10.0425  10.0529
    10.1398  10.1663  10.1868  10.1880  10.2300  10.2623  10.3129  10.3359
    10.3726  10.4326  10.4939  10.5481  10.5824  10.5910  10.6262  10.7159
    10.7638  10.8048  10.8449  10.8592  10.8922  11.0018  11.0721  11.1102
    11.1283  11.1482  11.1651  11.1951  11.2282  11.2772  11.3231  11.3507
    11.3552  11.3684  11.4086  11.4179  11.4249  11.4675  11.4883  11.5085
    11.5740  11.5775  11.6278  11.6404  11.6581  11.7009  11.7189  11.7390
    11.7501  11.7755  11.7786  11.8059  11.8682  11.8811  11.9020  11.9103
    11.9162  11.9467  11.9866  11.9951  12.0523  12.0974  12.1011  12.1306
    12.1700  12.1869  12.1884  12.1985  12.2300  12.3015  12.3066  12.3616
    12.3756  12.3989  12.4036  12.4320  12.4497  12.4857  12.5055  12.5459
    12.6188  12.6379  12.6686  12.7180  12.7478  12.7613  12.8013  12.8573
    12.8998  12.9066  13.0183  13.0278  13.0932  13.1168  13.1571  13.1818
    13.2082  13.2290  13.2304  13.3146  13.3295  13.4200  13.4343  13.4754
    13.5381  13.5729  13.5825  13.6147  13.6840  13.7022  13.7375  13.7385
    13.7752  13.8146  13.8183  13.9003  13.9295  13.9654  13.9929  14.0235
    14.0653  14.0661  14.0844  14.0971  14.1231  14.1497  14.1970  14.2382
    14.2521  14.2977  14.3349  14.3454  14.3911  14.4039  14.4609  14.4639
    14.5218  14.5287  14.5518  14.6201  14.6219  14.7061  14.7112  14.7153
    14.7307  14.7640  14.7803  14.8192  14.8251  14.8489  14.8558  14.8840
    14.9017  14.9300  14.9794  15.0099  15.0529  15.1104  15.1214  15.1362
    15.1635  15.1834  15.2014  15.2377  15.2462  15.2853  15.3046  15.3139
    15.3320  15.3530  15.3784  15.3825  15.4015  15.4316  15.4581  15.4885
    15.5039  15.5067  15.5514  15.5632

          k = 0.0000 0.0000 0.0540 ( 73714 PWs)   bands (ev):

   -20.8288 -20.7066 -20.6532 -20.5145 -20.1591 -19.7068 -19.6252 -19.1499
   -19.0282 -18.2100 -18.1559 -17.9692 -17.9137 -17.6647 -17.6321 -17.3632
   -17.2774 -16.9712 -16.8033 -16.6380 -16.5033 -16.3623 -16.3292 -15.8263
   -15.7823 -14.6002 -14.4190 -14.1236 -13.8742 -13.7147 -13.6356 -13.3686
   -13.3359 -12.8480 -12.6968 -12.6578 -12.6182 -12.2721 -12.2083 -12.1242
   -12.0291 -11.1503 -11.0516 -11.0004 -10.8058 -10.7586 -10.5574 -10.4402
   -10.3834 -10.2658 -10.1670  -9.9279  -9.8012  -9.6089  -9.4917  -9.3689
    -9.1258  -8.9573  -8.8684  -8.8434  -8.7522  -8.7017  -8.6285  -8.6263
    -8.5155  -8.4849  -8.3816  -8.2840  -8.1975  -8.0865  -8.0146  -7.7472
    -7.6707  -7.5713  -7.5370  -7.4882  -7.4809  -7.3164  -7.1252  -7.0274
    -6.9940  -6.7790  -6.6366  -6.4862  -6.4551  -6.2755  -6.2168  -6.1509
    -6.0676  -5.9447  -5.8948  -5.8924  -5.8859  -5.5829  -5.5416  -5.2847
    -5.2207  -4.9853  -4.9369  -4.6656  -4.4107  -4.2515  -4.1102  -4.0699
    -3.9189  -3.5059  -3.4589  -0.7005  -0.5879  -0.1971  -0.0467   0.0586
     0.2315   0.4264   0.7290   0.9088   1.1199   1.3814   1.4174   1.4380
     1.5221   1.5910   1.6691   1.7455   1.7658   1.8292   1.8395   2.0277
     2.0504   2.0942   2.1997   2.2246   2.4364   2.6389   2.7254   2.8428
     2.9433   2.9746   3.0716   3.1055   3.1531   3.2412   3.3237   3.3853
     3.4127   3.4918   3.5645   3.5960   3.6524   3.7319   3.8077   3.8965
     3.9208   3.9689   4.0282   4.1256   4.2465   4.3901   4.4006   4.4656
     4.5270   4.5843   4.5984   4.6632   4.7019   4.7434   4.7989   4.8192
     4.8417   4.8453   4.9372   4.9938   5.0084   5.0542   5.1164   5.2002
     5.3479   5.4177   5.4945   5.4962   5.5160   5.6239   5.6335   5.7230
     5.7434   5.7569   5.8006   5.8491   5.8602   5.8653   5.8985   5.9298
     5.9938   6.0836   6.1789   6.1967   6.2320   6.2601   6.2728   6.3014
     6.3661   6.3894   6.4206   6.4367   6.4923   6.5270   6.5627   6.6328
     6.6745   6.6993   6.7149   6.7689   6.8009   6.8368   6.8424   6.8535
     6.8737   6.8983   6.9424   6.9845   6.9980   7.0283   7.0615   7.1288
     7.1456   7.2075   7.2114   7.2388   7.2630   7.2638   7.3068   7.3361
     7.3884   7.4077   7.4220   7.4434   7.5232   7.5391   7.5516   7.5749
     7.6270   7.6476   7.7017   7.7567   7.7571   7.7694   7.7873   7.8182
     7.8561   7.8803   7.8869   7.9212   7.9373   7.9771   7.9886   8.0201
     8.0232   8.0941   8.1129   8.1649   8.2090   8.2441   8.2524   8.2850
     8.3082   8.3637   8.3709   8.3907   8.4240   8.4947   8.5353   8.5388
     8.5885   8.5982   8.6108   8.6324   8.6731   8.6881   8.7027   8.7220
     8.7918   8.8000   8.8567   8.8697   8.8924   8.9474   8.9598   9.0073
     9.0384   9.0601   9.0893   9.1471   9.1632   9.2265   9.2569   9.3093
     9.3365   9.4233   9.4518   9.4547   9.4592   9.5016   9.5653   9.5744
     9.6121   9.6708   9.7025   9.7642   9.7717   9.7998   9.8529   9.8763
     9.8936   9.9306   9.9403   9.9735   9.9780  10.0174  10.0183  10.0560
    10.1235  10.1334  10.1564  10.1909  10.2380  10.2737  10.2760  10.3392
    10.3687  10.3785  10.4852  10.5288  10.5718  10.6022  10.6261  10.7259
    10.7700  10.8044  10.8143  10.8428  10.9680  10.9970  11.0791  11.1105
    11.1284  11.1441  11.1583  11.2017  11.2473  11.2559  11.3214  11.3335
    11.3420  11.3859  11.3895  11.4392  11.4405  11.4535  11.4818  11.4913
    11.5595  11.6121  11.6398  11.6858  11.6866  11.6888  11.7669  11.7696
    11.7813  11.7864  11.7977  11.8334  11.8678  11.8757  11.8941  11.8974
    11.9326  11.9586  11.9817  12.0166  12.0396  12.0945  12.1166  12.1224
    12.1390  12.1526  12.1789  12.2128  12.2497  12.2786  12.3096  12.3638
    12.3695  12.3717  12.4259  12.4292  12.4479  12.5027  12.5064  12.5596
    12.6208  12.6239  12.6477  12.7030  12.7416  12.7772  12.7932  12.8385
    12.8958  12.9053  12.9967  13.0555  13.0801  13.1030  13.1056  13.1544
    13.1814  13.2005  13.2248  13.2925  13.3468  13.4103  13.4857  13.4906
    13.5423  13.5897  13.6004  13.6232  13.6897  13.7238  13.7572  13.7946
    13.8340  13.8397  13.8843  13.9453  13.9652  13.9747  13.9915  14.0363
    14.0365  14.0671  14.0759  14.1148  14.1308  14.1528  14.2103  14.2404
    14.2430  14.3118  14.3212  14.3654  14.3993  14.4246  14.4604  14.5021
    14.5329  14.5464  14.5658  14.5804  14.6310  14.6901  14.6983  14.7252
    14.7260  14.7644  14.7836  14.8172  14.8434  14.8592  14.8665  14.8965
    14.9307  14.9365  14.9522  15.0314  15.0622  15.0890  15.1420  15.1463
    15.1671  15.1920  15.2092  15.2247  15.2629  15.3019  15.3133  15.3340
    15.3540  15.3560  15.3733  15.3868  15.3942  15.4147  15.4882  15.4894
    15.5341  15.5360  15.5529  15.5781

          k = 0.0000 0.0000 0.0563 ( 73732 PWs)   bands (ev):

   -20.8159 -20.6942 -20.6701 -20.5285 -20.1587 -19.6933 -19.6414 -19.1486
   -19.0332 -18.1988 -18.1605 -17.8953 -17.8548 -17.7380 -17.6895 -17.3516
   -17.2943 -16.9333 -16.8254 -16.6290 -16.4854 -16.3918 -16.3521 -15.8170
   -15.7928 -14.5918 -14.4286 -14.1276 -13.8389 -13.7423 -13.6371 -13.3584
   -13.3441 -12.8229 -12.7174 -12.5535 -12.5194 -12.3399 -12.3022 -12.1440
   -12.0645 -11.1018 -11.0329 -11.0132 -10.7836 -10.7581 -10.5442 -10.4754
   -10.4080 -10.2952 -10.1387  -9.9419  -9.7886  -9.6123  -9.5165  -9.3729
    -9.1184  -8.9381  -8.8875  -8.8293  -8.7482  -8.6835  -8.6498  -8.6381
    -8.5216  -8.5022  -8.3648  -8.2810  -8.2157  -8.0861  -7.9988  -7.7218
    -7.6899  -7.5548  -7.5474  -7.5003  -7.4744  -7.3367  -7.1166  -7.0273
    -6.9962  -6.7817  -6.5948  -6.4911  -6.4096  -6.2724  -6.2249  -6.1351
    -6.1027  -5.9406  -5.9180  -5.8975  -5.8945  -5.5201  -5.4851  -5.3363
    -5.2605  -4.9895  -4.9615  -4.6481  -4.3770  -4.2544  -4.1126  -4.0793
    -3.9492  -3.5101  -3.4700  -0.6974  -0.5876  -0.1675  -0.0390   0.0547
     0.2190   0.4433   0.7242   0.8730   1.1557   1.4445   1.4569   1.5090
     1.5542   1.6239   1.6329   1.6822   1.7050   1.7375   1.8340   2.0424
     2.0532   2.0919   2.1608   2.2149   2.4450   2.6472   2.7296   2.8118
     2.9717   2.9766   3.0700   3.1117   3.1890   3.2004   3.2804   3.4128
     3.4227   3.5214   3.5391   3.5844   3.6112   3.7651   3.8182   3.8710
     3.9260   3.9984   4.0040   4.0868   4.2827   4.3606   4.4116   4.4794
     4.5475   4.5571   4.6259   4.6724   4.6800   4.7422   4.8031   4.8187
     4.8289   4.8430   4.9092   4.9940   5.0154   5.0778   5.1618   5.2172
     5.3606   5.3888   5.4472   5.5039   5.5071   5.6519   5.6674   5.7292
     5.7319   5.7699   5.8067   5.8255   5.8558   5.8973   5.9341   5.9720
     5.9963   6.0803   6.1159   6.1800   6.1936   6.2392   6.2660   6.2831
     6.3464   6.4455   6.4727   6.5126   6.5127   6.5205   6.5698   6.6404
     6.6430   6.6904   6.7448   6.7449   6.7981   6.8153   6.8453   6.8651
     6.8818   6.9195   6.9528   6.9578   7.0061   7.0170   7.0505   7.0953
     7.1498   7.1830   7.1845   7.2364   7.3059   7.3155   7.3386   7.3818
     7.4142   7.4194   7.4272   7.4431   7.5096   7.5455   7.5550   7.5803
     7.6354   7.6480   7.6752   7.6980   7.7449   7.7688   7.7776   7.8108
     7.8571   7.8705   7.8859   7.8955   7.9279   7.9330   7.9765   7.9775
     8.0359   8.0976   8.1387   8.1395   8.2315   8.2524   8.2720   8.2747
     8.2942   8.3690   8.4013   8.4144   8.4510   8.4895   8.5190   8.5348
     8.5780   8.6034   8.6053   8.6399   8.6732   8.6971   8.7300   8.7465
     8.7837   8.7973   8.8314   8.8558   8.8749   8.8995   8.9634   8.9698
     8.9887   9.0342   9.0368   9.1139   9.1143   9.2910   9.2997   9.3253
     9.3555   9.4329   9.4662   9.4662   9.4850   9.5281   9.5438   9.5878
     9.6173   9.6335   9.7108   9.7716   9.7727   9.7997   9.8148   9.8512
     9.8757   9.9528   9.9587   9.9753   9.9962   9.9973  10.0359  10.0443
    10.0851  10.0940  10.1865  10.1879  10.2253  10.2452  10.2999  10.3357
    10.3435  10.3666  10.4376  10.5187  10.6138  10.6156  10.6239  10.7329
    10.7611  10.7798  10.8163  10.8193  11.0013  11.0631  11.0693  11.0823
    11.1235  11.1491  11.1761  11.2197  11.2323  11.2510  11.2837  11.3157
    11.3204  11.3559  11.3912  11.4477  11.4614  11.4622  11.5048  11.5072
    11.5563  11.6158  11.6550  11.6708  11.7122  11.7349  11.7446  11.7758
    11.7957  11.8063  11.8458  11.8505  11.8671  11.8747  11.8921  11.9098
    11.9488  11.9631  11.9850  12.0334  12.0439  12.0687  12.0896  12.1010
    12.1215  12.1388  12.1738  12.2054  12.2523  12.2668  12.3012  12.3411
    12.3511  12.3801  12.4441  12.4585  12.4891  12.5096  12.5305  12.5620
    12.5966  12.6243  12.6246  12.6930  12.7125  12.7760  12.7903  12.8529
    12.8972  12.9159  12.9831  13.0378  13.0521  13.1016  13.1036  13.1290
    13.1648  13.1706  13.2339  13.2817  13.3636  13.4035  13.5038  13.5103
    13.5621  13.5789  13.5907  13.6226  13.7098  13.7253  13.7911  13.8410
    13.8631  13.8803  13.9452  13.9529  13.9759  13.9844  14.0034  14.0248
    14.0372  14.0586  14.1069  14.1146  14.1463  14.1553  14.1678  14.2327
    14.2612  14.2836  14.3256  14.3511  14.3931  14.4670  14.4725  14.5281
    14.5499  14.5650  14.5814  14.5918  14.6480  14.6565  14.6869  14.7137
    14.7295  14.7362  14.7407  14.7809  14.8509  14.8751  14.8785  14.8971
    14.9450  14.9836  15.0068  15.0509  15.0577  15.0984  15.1152  15.1438
    15.1650  15.1831  15.2102  15.2125  15.2301  15.2859  15.3040  15.3338
    15.3622  15.3876  15.3926  15.4004  15.4190  15.4407  15.4770  15.5052
    15.5181  15.5365  15.5722  15.5863

          k = 0.0000 0.0000-0.0587 ( 73736 PWs)   bands (ev):

   -20.8110 -20.6879 -20.6780 -20.5336 -20.1585 -19.6863 -19.6493 -19.1481
   -19.0350 -18.1942 -18.1633 -17.8282 -17.8271 -17.8001 -17.7214 -17.3472
   -17.3004 -16.9138 -16.8393 -16.6294 -16.4511 -16.4332 -16.3534 -15.8103
   -15.7998 -14.5887 -14.4321 -14.1290 -13.8179 -13.7619 -13.6364 -13.3532
   -13.3486 -12.8120 -12.7284 -12.4759 -12.4328 -12.4211 -12.3755 -12.1425
   -12.0788 -11.0700 -11.0507 -11.0059 -10.7945 -10.7412 -10.5230 -10.5028
   -10.4201 -10.3042 -10.1268  -9.9478  -9.7854  -9.6096  -9.5286  -9.3738
    -9.1160  -8.9233  -8.9020  -8.8240  -8.7467  -8.6706  -8.6638  -8.6423
    -8.5237  -8.5085  -8.3582  -8.2795  -8.2234  -8.0860  -7.9929  -7.7083
    -7.7008  -7.5517  -7.5456  -7.5105  -7.4690  -7.3444  -7.1136  -7.0273
    -6.9970  -6.7825  -6.5748  -6.5039  -6.3693  -6.3109  -6.1856  -6.1625
    -6.1023  -5.9392  -5.9284  -5.9013  -5.8945  -5.4995  -5.4163  -5.4062
    -5.2698  -4.9961  -4.9653  -4.6422  -4.3577  -4.2674  -4.1083  -4.0799
    -3.9632  -3.5109  -3.4741  -0.6964  -0.5875  -0.1570  -0.0328   0.0476
     0.2165   0.4497   0.7232   0.8594   1.1674   1.4466   1.4971   1.5827
     1.5899   1.5983   1.6290   1.6622   1.6630   1.6690   1.8358   2.0400
     2.0601   2.1041   2.1364   2.2120   2.4482   2.6482   2.7373   2.7964
     2.9773   2.9883   3.0513   3.1478   3.1594   3.2231   3.2483   3.4263
     3.4265   3.5135   3.5632   3.5782   3.5800   3.7936   3.8025   3.8657
     3.9299   3.9850   4.0297   4.0598   4.3167   4.3254   4.4205   4.4861
     4.5440   4.5560   4.6445   4.6624   4.6761   4.7385   4.8098   4.8170
     4.8245   4.8450   4.8955   4.9890   5.0221   5.0871   5.1793   5.2259
     5.3720   5.3870   5.4100   5.4990   5.5116   5.6667   5.6935   5.7092
     5.7239   5.7623   5.8169   5.8339   5.8527   5.8972   5.9519   5.9994
     6.0293   6.0913   6.0930   6.1028   6.1759   6.2419   6.2702   6.2760
     6.3391   6.4787   6.4827   6.4987   6.5641   6.5797   6.6058   6.6077
     6.6115   6.6252   6.7362   6.7801   6.7936   6.8070   6.8107   6.8834
     6.8992   6.9226   6.9658   6.9860   7.0163   7.0256   7.0281   7.0392
     7.1418   7.1668   7.2039   7.2115   7.3517   7.3561   7.3648   7.3688
     7.3918   7.4187   7.4454   7.4571   7.5254   7.5391   7.5485   7.5741
     7.6060   7.6460   7.6572   7.7284   7.7304   7.7800   7.7977   7.8015
     7.8180   7.8628   7.8683   7.8941   7.9135   7.9150   7.9646   8.0262
     8.0381   8.0884   8.1088   8.1623   8.2259   8.2481   8.2515   8.2820
     8.3456   8.3726   8.4178   8.4205   8.4300   8.4683   8.5086   8.5428
     8.5884   8.5976   8.6062   8.6481   8.6896   8.7000   8.7142   8.7865
     8.7870   8.8103   8.8353   8.8376   8.8442   8.8878   8.9044   8.9603
     9.0170   9.0179   9.0478   9.0694   9.0950   9.3207   9.3278   9.3332
     9.3616   9.4333   9.4566   9.4677   9.4838   9.5307   9.5639   9.5808
     9.5905   9.6973   9.6975   9.7619   9.7665   9.7710   9.8303   9.8330
     9.8530   9.9709   9.9814   9.9814   9.9818  10.0075  10.0363  10.0512
    10.0596  10.0796  10.1860  10.2039  10.2229  10.2246  10.3002  10.3322
    10.3454  10.3659  10.4151  10.5092  10.6209  10.6219  10.6701  10.6858
    10.7682  10.7848  10.7977  10.8205  11.0229  11.0325  11.0830  11.1202
    11.1535  11.1594  11.1609  11.1844  11.2072  11.2560  11.2944  11.2947
    11.3237  11.3386  11.3914  11.4432  11.4646  11.4648  11.5160  11.5277
    11.5606  11.6158  11.6488  11.6823  11.7143  11.7250  11.7557  11.7816
    11.7892  11.8318  11.8334  11.8627  11.8752  11.8924  11.8962  11.9134
    11.9281  11.9813  11.9848  12.0407  12.0564  12.0674  12.0683  12.0884
    12.1088  12.1434  12.1691  12.1814  12.2563  12.2644  12.2767  12.3464
    12.3646  12.3767  12.4427  12.4740  12.5122  12.5209  12.5432  12.5768
    12.5913  12.6098  12.6120  12.6458  12.7170  12.7881  12.7955  12.8689
    12.8769  12.9231  12.9919  13.0179  13.0312  13.0983  13.1214  13.1270
    13.1465  13.1607  13.2378  13.2785  13.3698  13.4022  13.5023  13.5231
    13.5677  13.5858  13.5872  13.6061  13.7212  13.7285  13.8044  13.8666
    13.8742  13.8913  13.9462  13.9572  13.9810  14.0019  14.0131  14.0188
    14.0451  14.0462  14.0912  14.1425  14.1444  14.1532  14.1679  14.2250
    14.2631  14.2732  14.3260  14.3418  14.3872  14.4817  14.4906  14.5220
    14.5317  14.5958  14.6179  14.6188  14.6284  14.6569  14.6806  14.6909
    14.7172  14.7174  14.7401  14.7450  14.8657  14.8781  14.8797  14.8921
    14.9575  15.0282  15.0415  15.0460  15.0831  15.0888  15.1194  15.1249
    15.1432  15.1629  15.2062  15.2074  15.2087  15.2605  15.3022  15.3299
    15.3948  15.4058  15.4074  15.4271  15.4330  15.4435  15.4492  15.5042
    15.5192  15.5417  15.5616  15.5655

     the Fermi energy is    -1.9491 ev

     Writing output data file ANTI14-4-6_2.save/

     init_run     :     10.03s CPU     10.47s WALL (       1 calls)
     electrons    :   7302.74s CPU   7361.14s WALL (       1 calls)

     Called by init_run:
     wfcinit      :      0.00s CPU      0.00s WALL (       1 calls)
     potinit      :      0.83s CPU      0.90s WALL (       1 calls)
     hinit0       :      7.76s CPU      7.84s WALL (       1 calls)

     Called by electrons:
     c_bands      :   7302.73s CPU   7360.78s WALL (       1 calls)
     v_of_rho     :      0.54s CPU      0.57s WALL (       1 calls)
     newd         :      0.46s CPU      0.54s WALL (       1 calls)

     Called by c_bands:
     init_us_2    :      0.27s CPU      0.28s WALL (      26 calls)
     cegterg      :   7194.97s CPU   7249.72s WALL (     142 calls)

     Called by sum_band:

     Called by *egterg:
     h_psi        :   1483.28s CPU   1507.13s WALL (    2917 calls)
     s_psi        :    140.66s CPU    140.83s WALL (    2917 calls)
     g_psi        :      8.21s CPU      8.23s WALL (    2749 calls)
     cdiaghg      :   3768.96s CPU   3771.50s WALL (    2775 calls)

     Called by h_psi:
     h_psi:pot    :   1479.52s CPU   1500.64s WALL (    2917 calls)
     h_psi:calbec :    163.93s CPU    165.88s WALL (    2917 calls)
     vloc_psi     :   1174.98s CPU   1194.00s WALL (    2917 calls)
     add_vuspsi   :    140.58s CPU    140.71s WALL (    2917 calls)

     General routines
     calbec       :    163.91s CPU    165.85s WALL (    2917 calls)
     fft          :      0.66s CPU      0.71s WALL (      14 calls)
     ffts         :      0.01s CPU      0.01s WALL (       1 calls)
     fftw         :   1100.62s CPU   1119.27s WALL (  617802 calls)
     interpolate  :      0.06s CPU      0.06s WALL (       1 calls)
     davcio       :      0.00s CPU      1.49s WALL (      52 calls)

     Parallel routines
     fft_scatt_xy :    109.77s CPU    110.81s WALL (  617817 calls)
     fft_scatt_yz :    618.68s CPU    633.90s WALL (  617817 calls)

     PWSCF        :     2h 2m CPU        2h 2m WALL

       6h

   This run was terminated on:  13:38:23  22Apr2021            

=------------------------------------------------------------------------------=
   JOB DONE.
=------------------------------------------------------------------------------=
