
     Program PWSCF v.6.3 starts on 22Apr2021 at 11:35:27 

     This program is part of the open-source Quantum ESPRESSO suite
     for quantum simulation of materials; please cite
         "P. Giannozzi et al., J. Phys.:Condens. Matter 21 395502 (2009);
         "P. Giannozzi et al., J. Phys.:Condens. Matter 29 465901 (2017);
          URL http://www.quantum-espresso.org", 
     in publications or presentations arising from this work. More details at
     http://www.quantum-espresso.org/quote

     Parallel version (MPI), running on    16 processors
     R & G space division:  proc/nbgrp/npool/nimage =      16
     Waiting for input...
     Reading input from standard input
     Message from routine read_cards :
     DEPRECATED: no units specified in CELL_PARAMETERS card

     Current dimensions of program PWSCF are:
     Max number of different atomic species (ntypx) = 10
     Max number of k-points (npk) =  40000
     Max angular momentum in pseudopotentials (lmaxx) =  3

     Atomic positions and unit cell read from directory:
     /home/zfwang/scratch/GNRDATASET/AGNR/ANTI14-4-6_1/ANTI14-4-6_1.save/


     Subspace diagonalization in iterative solution of the eigenvalue problem:
     a serial algorithm will be used


     Parallelization info
     --------------------
     sticks:   dense  smooth     PW     G-vecs:    dense   smooth      PW
     Min        2556     852    226               191435    36836    5050
     Max        2557     853    228               191437    36837    5051
     Sum       40909   13645   3627              3062965   589389   80803



     bravais-lattice index     =            0
     lattice parameter (alat)  =       1.8897  a.u.
     unit-cell volume          =   17248.7430 (a.u.)^3
     number of atoms/cell      =           64
     number of atomic types    =            2
     number of electrons       =       214.00
     number of Kohn-Sham states=          500
     kinetic-energy cutoff     =      40.0000  Ry
     charge density cutoff     =     480.0000  Ry
     Exchange-correlation      = PBE ( 1  4  3  4 0 0)

     celldm(1)=  18.897261  celldm(2)=   3.000000  celldm(3)=   0.852000
     celldm(4)=   0.000000  celldm(5)=   0.000000  celldm(6)=   0.000000

     crystal axes: (cart. coord. in units of alat)
               a(1) = (  10.000000   0.000000   0.000000 )  
               a(2) = (   0.000000  30.000000   0.000000 )  
               a(3) = (   0.000000   0.000000   8.520000 )  

     reciprocal axes: (cart. coord. in units 2 pi/alat)
               b(1) = (  0.100000  0.000000  0.000000 )  
               b(2) = (  0.000000  0.033333  0.000000 )  
               b(3) = (  0.000000  0.000000  0.117371 )  


     PseudoPot. # 1 for C  read from file:
     /home/zfwang/hp_home/MySoftware/qe-6.3/pseudo/C.pbe-n-rrkjus_psl.0.1.UPF
     MD5 check sum: fff530ed632a789b3b184014e67dd7f1
     Pseudo is Ultrasoft + core correction, Zval =  4.0
     Generated using "atomic" code by A. Dal Corso v.5.0.2 svn rev. 9415
     Using radial grid of 1073 points,  4 beta functions with: 
                l(1) =   0
                l(2) =   0
                l(3) =   1
                l(4) =   1
     Q(r) pseudized with 0 coefficients 


     PseudoPot. # 2 for H  read from file:
     /home/zfwang/hp_home/MySoftware/qe-6.3/pseudo/H.pbe-rrkjus_psl.0.1.UPF
     MD5 check sum: e164a6907b691c6980f16942be34de84
     Pseudo is Ultrasoft, Zval =  1.0
     Generated using "atomic" code by A. Dal Corso v.5.0.2 svn rev. 9415
     Using radial grid of  929 points,  2 beta functions with: 
                l(1) =   0
                l(2) =   0
     Q(r) pseudized with 0 coefficients 


     atomic species   valence    mass     pseudopotential
        C              4.00    12.01070     C ( 1.00)
        H              1.00     1.00794     H ( 1.00)

     No symmetry found



   Cartesian axes

     site n.     atom                  positions (alat units)
         1           C   tau(   1) = (   5.0000006   6.9689562   2.8112247  )
         2           C   tau(   2) = (   5.0000003   6.9710460   7.0727553  )
         3           C   tau(   3) = (   5.0000007   8.1766475   3.5457446  )
         4           C   tau(   4) = (   5.0000003   8.1805927   7.8055829  )
         5           C   tau(   5) = (   5.0000005   6.9710458   1.4472457  )
         6           C   tau(   6) = (   5.0000003   6.9689561   5.7087773  )
         7           C   tau(   7) = (   5.0000006   9.4069710   2.8421187  )
         8           C   tau(   8) = (   5.0000002   9.4100812   7.1022754  )
         9           C   tau(   9) = (   5.0000007  10.6418374   3.5534696  )
        10           C   tau(  10) = (   4.9999999  10.6482695   7.8143830  )
        11           C   tau(  11) = (   5.0000004   8.1805930   0.7144187  )
        12           C   tau(  12) = (   5.0000006   8.1766476   4.9742569  )
        13           C   tau(  13) = (   5.0000004   9.4100811   1.4177259  )
        14           C   tau(  14) = (   5.0000004   9.4069710   5.6778829  )
        15           C   tau(  15) = (   5.0000006  11.8765924   2.8388650  )
        16           C   tau(  16) = (   5.0000001  11.8856245   7.1019750  )
        17           C   tau(  17) = (   5.0000005  13.1090107   3.5386537  )
        18           C   tau(  18) = (   5.0000001  13.1181613   7.8090124  )
        19           C   tau(  19) = (   5.0000001  10.6482695   0.7056181  )
        20           C   tau(  20) = (   5.0000005  10.6418373   4.9665320  )
        21           C   tau(  21) = (   5.0000002  11.8856248   1.4180266  )
        22           C   tau(  22) = (   5.0000005  11.8765929   5.6811362  )
        23           C   tau(  23) = (   5.0000000  14.3041354   2.8119430  )
        24           C   tau(  24) = (   5.0000000  14.3515932   7.0908504  )
        25           C   tau(  25) = (   4.9999997  15.6229180   7.8106224  )
        26           C   tau(  26) = (   5.0000000  13.1181611   0.7109885  )
        27           C   tau(  27) = (   5.0000006  13.1090100   4.9813477  )
        28           C   tau(  28) = (   4.9999999  14.3515936   1.4291515  )
        29           C   tau(  29) = (   5.0000003  14.3041357   5.7080574  )
        30           C   tau(  30) = (   4.9999996  16.8558310   7.1510821  )
        31           C   tau(  31) = (   4.9999996  18.0884300   7.8100744  )
        32           C   tau(  32) = (   4.9999996  15.6229175   0.7093780  )
        33           C   tau(  33) = (   4.9999996  16.8558318   1.3689185  )
        34           C   tau(  34) = (   4.9999998  19.4121318   2.8102600  )
        35           C   tau(  35) = (   4.9999997  19.3623387   7.0887085  )
        36           C   tau(  36) = (   4.9999996  20.6135688   3.5389207  )
        37           C   tau(  37) = (   4.9999998  20.5998303   7.8085576  )
        38           C   tau(  38) = (   4.9999997  18.0884298   0.7099262  )
        39           C   tau(  39) = (   4.9999999  19.3623388   1.4312916  )
        40           C   tau(  40) = (   4.9999997  19.4121319   5.7097410  )
        41           C   tau(  41) = (   4.9999998  21.8459931   2.8422126  )
        42           C   tau(  42) = (   4.9999995  21.8326633   7.1040407  )
        43           C   tau(  43) = (   4.9999999  23.0590872   3.5788810  )
        44           C   tau(  44) = (   4.9999996  23.0439501   7.8397818  )
        45           C   tau(  45) = (   5.0000000  20.5998306   0.7114432  )
        46           C   tau(  46) = (   4.9999994  20.6135689   4.9810804  )
        47           C   tau(  47) = (   5.0000001  21.8326637   1.4159599  )
        48           C   tau(  48) = (   4.9999992  21.8459930   5.6777884  )
        49           C   tau(  49) = (   5.0000000  23.0439504   0.6802189  )
        50           C   tau(  50) = (   4.9999993  23.0590869   4.9411201  )
        51           H   tau(  51) = (   5.0000003   6.0133711   3.3282957  )
        52           H   tau(  52) = (   4.9999999   6.0168250   7.5920906  )
        53           H   tau(  53) = (   5.0000005   6.0168251   0.9279111  )
        54           H   tau(  54) = (   4.9999999   6.0133711   5.1917059  )
        55           H   tau(  55) = (   5.0000008  24.0153982   3.0628153  )
        56           H   tau(  56) = (   4.9999993  23.9985940   7.3209373  )
        57           H   tau(  57) = (   5.0000001  23.9985948   1.1990623  )
        58           H   tau(  58) = (   4.9999995  24.0153980   5.4571857  )
        59           H   tau(  59) = (   4.9999995  15.2399577   3.3586006  )
        60           H   tau(  60) = (   4.9999999  15.2399574   5.1614007  )
        61           H   tau(  61) = (   4.9999997  16.8525888   6.0656217  )
        62           H   tau(  62) = (   4.9999997  16.8525890   2.4543789  )
        63           H   tau(  63) = (   4.9999997  18.4770085   3.3583321  )
        64           H   tau(  64) = (   4.9999997  18.4770084   5.1616683  )

     number of k points=    26  Marzari-Vanderbilt smearing, width (Ry)=  0.0100
                       cart. coord. in units 2pi/alat
        k(    1) = (   0.0000000   0.0000000   0.0000000), wk =   0.0400000
        k(    2) = (   0.0000000   0.0000000   0.0023474), wk =   0.0800000
        k(    3) = (   0.0000000   0.0000000   0.0046948), wk =   0.0800000
        k(    4) = (   0.0000000   0.0000000   0.0070423), wk =   0.0800000
        k(    5) = (   0.0000000   0.0000000   0.0093897), wk =   0.0800000
        k(    6) = (   0.0000000   0.0000000   0.0117371), wk =   0.0800000
        k(    7) = (   0.0000000   0.0000000   0.0140845), wk =   0.0800000
        k(    8) = (   0.0000000   0.0000000   0.0164319), wk =   0.0800000
        k(    9) = (   0.0000000   0.0000000   0.0187793), wk =   0.0800000
        k(   10) = (   0.0000000   0.0000000   0.0211268), wk =   0.0800000
        k(   11) = (   0.0000000   0.0000000   0.0234742), wk =   0.0800000
        k(   12) = (   0.0000000   0.0000000   0.0258216), wk =   0.0800000
        k(   13) = (   0.0000000   0.0000000   0.0281690), wk =   0.0800000
        k(   14) = (   0.0000000   0.0000000   0.0305164), wk =   0.0800000
        k(   15) = (   0.0000000   0.0000000   0.0328638), wk =   0.0800000
        k(   16) = (   0.0000000   0.0000000   0.0352113), wk =   0.0800000
        k(   17) = (   0.0000000   0.0000000   0.0375587), wk =   0.0800000
        k(   18) = (   0.0000000   0.0000000   0.0399061), wk =   0.0800000
        k(   19) = (   0.0000000   0.0000000   0.0422535), wk =   0.0800000
        k(   20) = (   0.0000000   0.0000000   0.0446009), wk =   0.0800000
        k(   21) = (   0.0000000   0.0000000   0.0469484), wk =   0.0800000
        k(   22) = (   0.0000000   0.0000000   0.0492958), wk =   0.0800000
        k(   23) = (   0.0000000   0.0000000   0.0516432), wk =   0.0800000
        k(   24) = (   0.0000000   0.0000000   0.0539906), wk =   0.0800000
        k(   25) = (   0.0000000   0.0000000   0.0563380), wk =   0.0800000
        k(   26) = (   0.0000000   0.0000000  -0.0586854), wk =   0.0400000

     Dense  grid:  3062965 G-vectors     FFT dimensions: ( 135, 400, 120)

     Smooth grid:   589389 G-vectors     FFT dimensions: (  80, 240,  72)

     Estimated max dynamical RAM per process >     734.45 MB

     Estimated total dynamical RAM >      11.48 GB

     The potential is recalculated from file :
     /home/zfwang/scratch/GNRDATASET/AGNR/ANTI14-4-6_1/ANTI14-4-6_1.save/charge-density.dat


     negative rho (up, down):  1.407E-04 0.000E+00
     Starting wfcs are  214 randomized atomic wfcs +  286 random wfcs

     Band Structure Calculation
     Davidson diagonalization with overlap
     c_bands:  1 eigenvalues not converged
     c_bands:  1 eigenvalues not converged
     c_bands:  1 eigenvalues not converged
     c_bands:  1 eigenvalues not converged
     c_bands:  1 eigenvalues not converged
     c_bands:  1 eigenvalues not converged
     c_bands:  1 eigenvalues not converged
     c_bands:  1 eigenvalues not converged
     c_bands:  1 eigenvalues not converged
     c_bands:  2 eigenvalues not converged
     c_bands:  1 eigenvalues not converged
     c_bands:  1 eigenvalues not converged
     c_bands:  1 eigenvalues not converged

     ethr =  4.67E-09,  avg # of iterations = 95.0

     total cpu time spent up to now is     6925.1 secs

     End of band structure calculation

          k = 0.0000 0.0000 0.0000 ( 73589 PWs)   bands (ev):

   -21.1774 -20.8140 -20.4837 -19.9529 -19.7455 -19.6507 -19.3338 -19.3260
   -19.0967 -19.0849 -18.7656 -18.5096 -18.0482 -17.7614 -17.6696 -17.3251
   -17.1969 -16.8672 -16.5727 -16.1554 -15.9044 -15.6228 -15.4894 -15.2548
   -15.2029 -14.9135 -14.8152 -14.6950 -14.4990 -14.4617 -13.9274 -13.8924
   -13.6220 -13.4986 -13.0215 -12.6686 -12.5209 -12.1183 -12.1160 -12.0036
   -11.5607 -11.4648 -11.3886 -10.8409 -10.7452 -10.5673 -10.5434 -10.4715
   -10.1334  -9.9987  -9.5727  -9.5700  -9.4313  -9.2873  -9.2459  -9.1025
    -8.8625  -8.8139  -8.7635  -8.7090  -8.5774  -8.5755  -8.5325  -8.4789
    -8.4636  -8.4157  -8.3543  -8.1745  -8.1304  -8.0840  -8.0158  -7.9836
    -7.9741  -7.8441  -7.6567  -7.6244  -7.5331  -7.4632  -7.4500  -7.2325
    -7.1569  -7.1426  -7.1246  -7.1204  -6.8713  -6.7958  -6.5322  -6.4243
    -6.3996  -6.2212  -5.8110  -5.7831  -5.5133  -5.4640  -5.4347  -5.3746
    -5.2935  -5.1021  -4.9033  -4.6779  -4.2261  -4.0214  -3.8665  -3.3220
    -2.9727  -2.8963  -2.5140  -1.3720  -1.0335  -0.9216  -0.7117  -0.5627
    -0.3574   0.2112   0.2648   0.7294   1.0064   1.0876   1.1707   1.2671
     1.3653   1.5479   1.6674   1.8044   1.9385   2.0570   2.2461   2.5600
     2.5816   2.6525   2.7701   2.7940   2.9256   2.9889   2.9951   3.0745
     3.1702   3.1807   3.1811   3.2281   3.3664   3.3722   3.4497   3.5011
     3.5398   3.6201   3.6339   3.6703   3.8385   3.9637   3.9701   3.9932
     3.9933   4.0829   4.1865   4.2098   4.2150   4.2305   4.2333   4.3800
     4.5033   4.5526   4.5581   4.5862   4.6301   4.7236   4.7385   4.7493
     4.8427   4.8754   4.8850   4.9363   4.9431   4.9905   4.9949   5.0089
     5.1026   5.1204   5.1792   5.2170   5.2471   5.2579   5.2928   5.3461
     5.4458   5.4647   5.5471   5.5583   5.5997   5.6207   5.6684   5.7049
     5.8544   5.8567   5.8865   5.9704   5.9906   6.0131   6.0158   6.0280
     6.1100   6.1153   6.1584   6.2047   6.2141   6.2563   6.3330   6.3662
     6.3747   6.3789   6.4471   6.4796   6.4932   6.5395   6.5920   6.6634
     6.6981   6.7441   6.7676   6.7683   6.8502   6.8515   6.9163   6.9919
     7.0062   7.0547   7.1806   7.1948   7.2125   7.2378   7.2486   7.2686
     7.2846   7.2854   7.2968   7.3351   7.3477   7.4117   7.4978   7.5129
     7.5975   7.6165   7.6381   7.7258   7.7572   7.8104   7.8156   7.8886
     7.9019   7.9942   8.0214   8.0461   8.1719   8.2131   8.2181   8.2443
     8.3215   8.3638   8.3781   8.4125   8.4174   8.4664   8.5720   8.6008
     8.6274   8.6294   8.7381   8.7524   8.7651   8.7792   8.9052   8.9396
     8.9451   9.0696   9.1197   9.1510   9.1534   9.1724   9.2256   9.2283
     9.2578   9.3072   9.3220   9.3629   9.3713   9.3740   9.3890   9.4003
     9.4031   9.4595   9.4623   9.4944   9.5186   9.5246   9.5305   9.5577
     9.5680   9.6381   9.6507   9.6590   9.6916   9.7564   9.8096   9.8619
     9.8876   9.9537   9.9644  10.0172  10.0265  10.0478  10.0975  10.1030
    10.1183  10.1195  10.1449  10.1869  10.1873  10.2791  10.2860  10.3254
    10.3345  10.3355  10.3853  10.4238  10.4518  10.4984  10.5168  10.5500
    10.5588  10.6458  10.6992  10.7101  10.7274  10.7580  10.7621  10.7969
    10.8094  10.8242  10.8311  10.8438  10.8600  10.9055  10.9150  10.9496
    10.9933  10.9997  11.1011  11.1047  11.1689  11.1700  11.2001  11.2106
    11.2248  11.2584  11.2865  11.2866  11.2870  11.3306  11.3419  11.3480
    11.3688  11.3892  11.4014  11.4929  11.5098  11.5190  11.5224  11.5277
    11.5381  11.5509  11.5692  11.5834  11.5898  11.6627  11.7029  11.7035
    11.7398  11.7694  11.8266  11.8446  11.9178  11.9443  11.9547  11.9853
    12.0090  12.0481  12.0932  12.1007  12.1561  12.1625  12.1751  12.1843
    12.2330  12.2749  12.2842  12.3124  12.3125  12.3352  12.3544  12.3683
    12.4345  12.5104  12.5127  12.5179  12.5747  12.6484  12.6604  12.7002
    12.7075  12.7683  12.8296  12.8384  12.8784  12.8989  12.9515  12.9594
    12.9814  13.0029  13.1201  13.1392  13.1439  13.1652  13.1786  13.2346
    13.2376  13.2493  13.2761  13.2848  13.3296  13.3535  13.3919  13.3944
    13.4213  13.4542  13.4832  13.5204  13.5597  13.5903  13.6239  13.6331
    13.7059  13.7391  13.7540  13.7960  13.8406  13.8814  13.8869  13.9335
    13.9874  14.0307  14.0561  14.0873  14.1265  14.1416  14.1771  14.1785
    14.2440  14.2637  14.2979  14.3838  14.4068  14.4071  14.4471  14.4753
    14.4770  14.5195  14.5209  14.5917  14.6012  14.6375  14.6845  14.7120
    14.7691  14.8304  14.8325  14.8709  14.8927  14.9367  15.0074  15.0318
    15.0521  15.0782  15.1054  15.1066  15.1362  15.1401  15.2146  15.2194
    15.2288  15.2322  15.2593  15.3075  15.3099  15.3114  15.3287  15.3318
    15.3979  15.4349  15.4693  15.5069

          k = 0.0000 0.0000 0.0023 ( 73645 PWs)   bands (ev):

   -21.1768 -20.8135 -20.4833 -19.9542 -19.7689 -19.6258 -19.3715 -19.2912
   -19.1036 -19.0798 -18.7582 -18.5094 -18.0496 -17.7726 -17.6581 -17.3239
   -17.1963 -16.8665 -16.5720 -16.1565 -15.9161 -15.6224 -15.5016 -15.2549
   -15.2140 -14.9041 -14.8108 -14.6870 -14.4877 -14.4573 -13.9352 -13.8885
   -13.6220 -13.5017 -13.0196 -12.6726 -12.5173 -12.1336 -12.1015 -11.9995
   -11.5586 -11.4620 -11.3926 -10.8463 -10.7411 -10.5651 -10.5425 -10.4768
   -10.1324  -9.9966  -9.6216  -9.5602  -9.3977  -9.2829  -9.2452  -9.1033
    -8.8619  -8.8181  -8.7860  -8.7067  -8.6240  -8.5686  -8.5209  -8.4630
    -8.4429  -8.4267  -8.3493  -8.1747  -8.1257  -8.0823  -8.0123  -7.9802
    -7.9671  -7.8453  -7.6742  -7.6135  -7.5694  -7.4467  -7.4258  -7.2382
    -7.1648  -7.1557  -7.1323  -7.0863  -6.8640  -6.8056  -6.5203  -6.4245
    -6.4007  -6.2216  -5.8107  -5.7836  -5.5147  -5.4956  -5.4033  -5.3758
    -5.2948  -5.1013  -4.9028  -4.6769  -4.2256  -4.0222  -3.8700  -3.3267
    -2.9740  -2.9019  -2.5178  -1.3686  -1.0276  -0.9213  -0.7067  -0.5615
    -0.3524   0.2082   0.2665   0.7305   1.0013   1.0884   1.1715   1.2677
     1.3641   1.5486   1.6723   1.8048   1.9390   2.0574   2.2469   2.5605
     2.5824   2.6533   2.7674   2.7954   2.9263   2.9475   2.9877   3.0748
     3.1602   3.1816   3.2183   3.2288   3.3325   3.3779   3.4854   3.5087
     3.5404   3.5784   3.6212   3.7198   3.8358   3.9169   3.9714   3.9915
     4.0445   4.0894   4.1541   4.1766   4.2211   4.2300   4.2999   4.3714
     4.4886   4.4922   4.5933   4.6075   4.6327   4.6937   4.7393   4.7940
     4.8262   4.8396   4.8659   4.8923   4.9391   4.9898   5.0548   5.0660
     5.0822   5.1276   5.1995   5.2142   5.2287   5.2652   5.2947   5.3743
     5.3842   5.4906   5.5306   5.5663   5.6210   5.6501   5.6730   5.7035
     5.7886   5.8808   5.9267   5.9592   5.9802   5.9888   6.0129   6.0195
     6.0828   6.1388   6.1711   6.1806   6.2522   6.2906   6.3180   6.3442
     6.3835   6.3913   6.4485   6.4800   6.5134   6.5404   6.5933   6.6417
     6.7081   6.7300   6.7647   6.7718   6.8551   6.8689   6.9163   6.9944
     7.0124   7.0372   7.1402   7.1956   7.1990   7.2252   7.2301   7.2647
     7.2820   7.3136   7.3389   7.3544   7.3569   7.4202   7.4960   7.5169
     7.5928   7.6204   7.6386   7.7221   7.7538   7.8059   7.8178   7.8597
     7.9364   7.9970   8.0254   8.0476   8.1549   8.1883   8.2408   8.2475
     8.3180   8.3589   8.3765   8.4012   8.4250   8.4714   8.5837   8.6020
     8.6025   8.6466   8.7044   8.7358   8.7790   8.8227   8.8951   8.9462
     8.9560   9.0660   9.0972   9.1075   9.1310   9.1966   9.2221   9.2308
     9.2394   9.2938   9.3114   9.3305   9.3614   9.3732   9.3857   9.4044
     9.4158   9.4288   9.4804   9.4854   9.5056   9.5350   9.5531   9.5793
     9.6059   9.6164   9.6594   9.6644   9.7037   9.7976   9.8148   9.8560
     9.8789   9.9423   9.9457   9.9887  10.0076  10.0217  10.0465  10.1143
    10.1302  10.1389  10.1534  10.1923  10.2419  10.2734  10.2892  10.2982
    10.3414  10.3518  10.3949  10.4234  10.4414  10.4936  10.5050  10.5486
    10.5941  10.6147  10.6841  10.7090  10.7277  10.7283  10.7686  10.7706
    10.7908  10.8302  10.8569  10.8689  10.8706  10.9080  10.9394  10.9416
    11.0096  11.0255  11.0852  11.1038  11.1596  11.1753  11.2016  11.2030
    11.2218  11.2452  11.2816  11.2956  11.3041  11.3137  11.3428  11.3584
    11.3764  11.3862  11.4175  11.4504  11.4674  11.4756  11.5214  11.5454
    11.5520  11.5703  11.5724  11.6030  11.6464  11.6659  11.6767  11.7255
    11.7306  11.7714  11.8335  11.8431  11.9153  11.9381  11.9403  11.9525
    12.0113  12.0379  12.0891  12.1140  12.1403  12.1407  12.1779  12.1986
    12.2383  12.2690  12.2794  12.3038  12.3154  12.3664  12.3777  12.4040
    12.4408  12.4882  12.5304  12.5548  12.5803  12.6274  12.6494  12.6689
    12.7419  12.7928  12.7963  12.8374  12.8731  12.9269  12.9625  12.9685
    12.9775  13.0147  13.0976  13.1114  13.1479  13.1637  13.1826  13.2037
    13.2380  13.2573  13.2749  13.3202  13.3396  13.3671  13.3861  13.4223
    13.4287  13.4402  13.4835  13.5183  13.5486  13.5734  13.6179  13.6659
    13.7062  13.7326  13.7429  13.7797  13.8441  13.8861  13.8926  13.9573
    13.9829  14.0282  14.0555  14.0965  14.1228  14.1439  14.1710  14.1836
    14.2458  14.2746  14.2900  14.3611  14.3952  14.4087  14.4667  14.4740
    14.4884  14.5159  14.5444  14.5783  14.6168  14.6417  14.6867  14.7168
    14.7638  14.8050  14.8313  14.8684  14.8895  14.9328  15.0125  15.0376
    15.0448  15.0688  15.0971  15.1074  15.1403  15.1459  15.1750  15.2026
    15.2120  15.2457  15.2570  15.2834  15.3253  15.3256  15.3563  15.3595
    15.3980  15.4328  15.4725  15.4943

          k = 0.0000 0.0000 0.0047 ( 73689 PWs)   bands (ev):

   -21.1751 -20.8120 -20.4820 -19.9584 -19.8113 -19.5789 -19.4130 -19.2599
   -19.1172 -19.0680 -18.7376 -18.5084 -18.0536 -17.7969 -17.6329 -17.3206
   -17.1942 -16.8643 -16.5699 -16.1599 -15.9494 -15.6212 -15.5359 -15.2651
   -15.2362 -14.8781 -14.8003 -14.6614 -14.4572 -14.4431 -13.9523 -13.8827
   -13.6224 -13.5100 -13.0143 -12.6839 -12.5072 -12.1513 -12.0857 -11.9877
   -11.5520 -11.4541 -11.4037 -10.8601 -10.7320 -10.5589 -10.5410 -10.4890
   -10.1312  -9.9912  -9.6976  -9.5558  -9.3478  -9.2646  -9.2431  -9.1056
    -8.8610  -8.8601  -8.7993  -8.7052  -8.6922  -8.5861  -8.4999  -8.4615
    -8.4324  -8.3910  -8.3429  -8.1727  -8.1123  -8.0784  -7.9985  -7.9693
    -7.9491  -7.8490  -7.7043  -7.6252  -7.6036  -7.4362  -7.3676  -7.2497
    -7.2087  -7.1517  -7.1074  -7.0601  -6.8433  -6.8289  -6.4893  -6.4254
    -6.4036  -6.2227  -5.8099  -5.7851  -5.5381  -5.5186  -5.3797  -5.3615
    -5.2985  -5.0986  -4.9014  -4.6740  -4.2241  -4.0247  -3.8804  -3.3407
    -2.9781  -2.9183  -2.5293  -1.3584  -1.0100  -0.9203  -0.6919  -0.5581
    -0.3377   0.2002   0.2707   0.7334   0.9864   1.0908   1.1739   1.2694
     1.3605   1.5505   1.6868   1.8059   1.9403   2.0585   2.2493   2.5620
     2.5848   2.6559   2.7612   2.7975   2.8850   2.9284   2.9400   3.0754
     3.1133   3.2254   3.2309   3.2557   3.3008   3.3981   3.4808   3.5242
     3.5412   3.5871   3.5959   3.7823   3.8156   3.8799   3.9826   3.9935
     4.0718   4.0814   4.1307   4.1638   4.2301   4.2546   4.3302   4.3810
     4.4276   4.4757   4.5619   4.6270   4.6521   4.7125   4.7427   4.7569
     4.7770   4.7857   4.8854   4.8925   4.9091   5.0412   5.0519   5.0884
     5.1467   5.1514   5.1923   5.2104   5.2688   5.2820   5.3055   5.3096
     5.4230   5.4311   5.5681   5.6046   5.6242   5.6807   5.6881   5.7166
     5.7476   5.8830   5.9172   5.9354   5.9418   5.9793   6.0187   6.0265
     6.0493   6.1169   6.1899   6.2268   6.2759   6.3171   6.3171   6.3480
     6.3987   6.4097   6.4534   6.4819   6.5381   6.5492   6.5931   6.6124
     6.7114   6.7198   6.7560   6.7770   6.8661   6.9031   6.9147   6.9922
     6.9982   7.0323   7.0990   7.1379   7.1385   7.2454   7.2490   7.2608
     7.2876   7.3355   7.3597   7.3760   7.4103   7.4591   7.5002   7.5254
     7.5854   7.6324   7.6363   7.7114   7.7446   7.7949   7.8239   7.8343
     7.9689   8.0050   8.0381   8.0520   8.1223   8.1613   8.2425   8.2672
     8.3137   8.3338   8.3726   8.3782   8.4414   8.4954   8.5501   8.5974
     8.6226   8.6621   8.6750   8.7154   8.7959   8.8780   8.8796   8.9485
     8.9789   9.0215   9.0535   9.0791   9.0802   9.1382   9.2061   9.2205
     9.2621   9.2679   9.2892   9.3045   9.3209   9.3696   9.3700   9.4050
     9.4057   9.4293   9.4606   9.4769   9.5256   9.5462   9.5561   9.6027
     9.6224   9.6597   9.6671   9.7080   9.7599   9.7941   9.8264   9.8546
     9.8896   9.9118   9.9242   9.9479   9.9716   9.9886   9.9903  10.0944
    10.1316  10.1468  10.1885  10.1983  10.2407  10.2675  10.2991  10.3295
    10.3532  10.3804  10.3872  10.4127  10.4562  10.4794  10.5226  10.5261
    10.5545  10.6394  10.6659  10.6704  10.7004  10.7155  10.7304  10.7824
    10.8226  10.8383  10.8614  10.8938  10.9075  10.9151  10.9634  10.9640
    11.0318  11.0539  11.0557  11.1206  11.1354  11.1664  11.1856  11.2022
    11.2213  11.2517  11.2735  11.2890  11.3083  11.3166  11.3507  11.3724
    11.3749  11.3967  11.4033  11.4277  11.4336  11.4559  11.5063  11.5349
    11.5550  11.5886  11.6011  11.6286  11.6323  11.6564  11.6833  11.7678
    11.7848  11.7873  11.8268  11.8395  11.8509  11.9068  11.9295  11.9525
    12.0154  12.0407  12.0616  12.0772  12.1018  12.1482  12.1533  12.2091
    12.2495  12.2544  12.2863  12.3363  12.3748  12.3916  12.4249  12.4312
    12.4680  12.5321  12.5589  12.5697  12.5741  12.5955  12.6379  12.6779
    12.7045  12.8085  12.8295  12.8518  12.8756  12.9378  12.9602  12.9749
    13.0014  13.0458  13.0701  13.0946  13.1080  13.1463  13.1528  13.2208
    13.2334  13.2518  13.3003  13.3636  13.3663  13.3914  13.4016  13.4087
    13.4383  13.4688  13.4859  13.5208  13.5345  13.5440  13.6073  13.6895
    13.7026  13.7059  13.7571  13.7656  13.8523  13.8842  13.9320  13.9640
    13.9971  14.0211  14.0420  14.1107  14.1158  14.1401  14.1788  14.2005
    14.2400  14.2600  14.3165  14.3234  14.3814  14.4066  14.4632  14.5091
    14.5144  14.5189  14.5693  14.5920  14.6188  14.6497  14.7031  14.7246
    14.7496  14.7597  14.8175  14.8587  14.8879  14.9261  15.0137  15.0166
    15.0267  15.0677  15.0717  15.1010  15.1276  15.1547  15.1631  15.1745
    15.1949  15.2305  15.2631  15.2642  15.3211  15.3461  15.3862  15.4123
    15.4204  15.4221  15.4312  15.4667

          k = 0.0000 0.0000 0.0070 ( 73661 PWs)   bands (ev):

   -21.1722 -20.8095 -20.4799 -19.9673 -19.8540 -19.5315 -19.4491 -19.2428
   -19.1298 -19.0481 -18.7077 -18.5064 -18.0604 -17.8246 -17.6036 -17.3160
   -17.1898 -16.8608 -16.5665 -16.1654 -16.0000 -15.6198 -15.5871 -15.3091
   -15.2424 -14.8448 -14.7814 -14.6183 -14.4293 -14.4025 -13.9731 -13.8801
   -13.6255 -13.5206 -13.0068 -12.7007 -12.4921 -12.1702 -12.0685 -11.9692
   -11.5411 -11.4451 -11.4175 -10.8791 -10.7246 -10.5536 -10.5415 -10.4946
   -10.1337  -9.9887  -9.7719  -9.5501  -9.3217  -9.2397  -9.2253  -9.1098
    -8.9272  -8.8571  -8.7964  -8.7704  -8.6957  -8.6120  -8.5253  -8.4590
    -8.4027  -8.3666  -8.3224  -8.1644  -8.0953  -8.0696  -7.9710  -7.9500
    -7.9247  -7.8560  -7.7360  -7.6805  -7.6047  -7.4199  -7.3179  -7.2589
    -7.2415  -7.1451  -7.0747  -7.0460  -6.8620  -6.8054  -6.4472  -6.4285
    -6.4069  -6.2242  -5.8086  -5.7876  -5.5806  -5.5252  -5.3861  -5.3206
    -5.3047  -5.0944  -4.8983  -4.6692  -4.2217  -4.0296  -3.8967  -3.3635
    -2.9857  -2.9441  -2.5479  -1.3419  -0.9817  -0.9184  -0.6680  -0.5520
    -0.3134   0.1889   0.2758   0.7377   0.9640   1.0948   1.1778   1.2724
     1.3538   1.5537   1.7100   1.8078   1.9423   2.0603   2.2533   2.5645
     2.5888   2.6603   2.7534   2.7963   2.8179   2.8779   2.9324   3.0587
     3.0751   3.1893   3.2339   3.3011   3.3592   3.4129   3.4248   3.5034
     3.5457   3.6080   3.6512   3.7522   3.8381   3.8990   3.9727   4.0132
     4.0162   4.0799   4.1543   4.1715   4.2567   4.2627   4.2914   4.3797
     4.4333   4.4907   4.5088   4.6308   4.6672   4.6674   4.6802   4.7353
     4.7535   4.7925   4.8697   4.9176   4.9577   5.0246   5.0401   5.1285
     5.1440   5.2090   5.2270   5.2386   5.2434   5.2823   5.3323   5.3348
     5.3830   5.4799   5.5696   5.6174   5.6360   5.6726   5.7185   5.7224
     5.8002   5.8537   5.8780   5.8936   5.9136   5.9728   5.9909   6.0291
     6.0723   6.1142   6.1970   6.2629   6.2705   6.3043   6.3747   6.3850
     6.4257   6.4405   6.4658   6.4778   6.5352   6.5459   6.5878   6.6210
     6.7168   6.7322   6.7415   6.7859   6.8696   6.9039   6.9337   6.9582
     6.9747   7.0433   7.0836   7.0858   7.0986   7.2442   7.2657   7.2695
     7.2908   7.3586   7.3598   7.3847   7.4747   7.4956   7.5205   7.5459
     7.5947   7.6301   7.6527   7.6943   7.7309   7.7822   7.8166   7.8335
     7.9690   8.0199   8.0588   8.0590   8.0919   8.1479   8.2441   8.2597
     8.2877   8.3264   8.3623   8.3742   8.4402   8.5057   8.5361   8.5743
     8.6353   8.6759   8.6778   8.7161   8.7964   8.8635   8.9055   8.9167
     8.9364   8.9947   9.0050   9.0623   9.0821   9.0895   9.1728   9.2011
     9.2189   9.2414   9.2576   9.2769   9.2923   9.3609   9.3682   9.3911
     9.4056   9.4182   9.4830   9.4908   9.4952   9.5358   9.5761   9.6150
     9.6420   9.6592   9.7086   9.7091   9.7957   9.8294   9.8380   9.8395
     9.8731   9.8936   9.9064   9.9231   9.9462   9.9597  10.0224  10.0470
    10.0972  10.1416  10.1675  10.2094  10.2372  10.2622  10.3225  10.3562
    10.3658  10.3784  10.3866  10.4068  10.4452  10.4513  10.5006  10.5528
    10.5814  10.5948  10.6180  10.6823  10.7139  10.7337  10.7508  10.7772
    10.8098  10.8535  10.8611  10.9079  10.9248  10.9499  10.9737  11.0062
    11.0334  11.0438  11.0677  11.0913  11.1201  11.1551  11.1656  11.2212
    11.2467  11.2474  11.2713  11.2978  11.3010  11.3094  11.3416  11.3551
    11.3818  11.3919  11.4031  11.4263  11.4580  11.4615  11.4979  11.5235
    11.5525  11.5662  11.5810  11.6119  11.6412  11.6866  11.7096  11.7380
    11.7788  11.8301  11.8303  11.8582  11.8799  11.8951  11.9123  11.9473
    11.9815  11.9982  12.0593  12.0852  12.1018  12.1054  12.1452  12.2159
    12.2252  12.2643  12.3060  12.3715  12.4107  12.4588  12.4735  12.4873
    12.4985  12.5101  12.5549  12.5700  12.5829  12.6211  12.6553  12.6696
    12.7274  12.8114  12.8309  12.8876  12.8989  12.9388  12.9597  12.9963
    13.0042  13.0233  13.0714  13.0759  13.1214  13.1232  13.1628  13.1911
    13.2293  13.2946  13.3263  13.3463  13.3720  13.4057  13.4234  13.4331
    13.4646  13.4974  13.4995  13.5177  13.5368  13.5440  13.5877  13.6416
    13.7073  13.7094  13.7797  13.8147  13.8614  13.8823  13.9318  13.9824
    14.0102  14.0177  14.0256  14.0884  14.1270  14.1309  14.1934  14.2174
    14.2393  14.2497  14.2784  14.3593  14.3667  14.4065  14.4595  14.5369
    14.5449  14.5460  14.5697  14.6010  14.6457  14.6562  14.7021  14.7143
    14.7310  14.7503  14.8055  14.8488  14.8883  14.9148  14.9809  14.9839
    15.0055  15.0414  15.0861  15.0912  15.1224  15.1396  15.1503  15.1551
    15.1610  15.2124  15.2667  15.2793  15.3118  15.3647  15.3693  15.3867
    15.4117  15.4336  15.4670  15.4746

          k = 0.0000 0.0000 0.0094 ( 73645 PWs)   bands (ev):

   -21.1682 -20.8060 -20.4770 -19.9842 -19.8902 -19.5209 -19.4452 -19.2467
   -19.1336 -19.0186 -18.6724 -18.5025 -18.0699 -17.8521 -17.5737 -17.3114
   -17.1815 -16.8563 -16.5616 -16.1736 -16.0626 -15.6507 -15.6177 -15.3702
   -15.2461 -14.8251 -14.7371 -14.5626 -14.4029 -14.3418 -13.9955 -13.8817
   -13.6348 -13.5284 -12.9985 -12.7212 -12.4734 -12.1903 -12.0495 -11.9449
   -11.5261 -11.4572 -11.4111 -10.9014 -10.7261 -10.5668 -10.5296 -10.4830
   -10.1442 -10.0056  -9.8210  -9.5421  -9.3148  -9.2348  -9.1855  -9.1182
    -8.9891  -8.8529  -8.8473  -8.7841  -8.6903  -8.6384  -8.5669  -8.4554
    -8.4053  -8.3530  -8.2801  -8.1511  -8.0903  -8.0377  -7.9340  -7.9217
    -7.8964  -7.8686  -7.7658  -7.7314  -7.6156  -7.4039  -7.3275  -7.2596
    -7.2135  -7.1361  -7.0449  -7.0375  -6.8901  -6.7603  -6.4357  -6.4088
    -6.4001  -6.2249  -5.8072  -5.7912  -5.6218  -5.5344  -5.3950  -5.3133
    -5.2816  -5.0890  -4.8926  -4.6628  -4.2184  -4.0381  -3.9174  -3.3946
    -3.0014  -2.9737  -2.5730  -1.3196  -0.9451  -0.9139  -0.6369  -0.5423
    -0.2799   0.1754   0.2812   0.7421   0.9368   1.1004   1.1834   1.2765
     1.3437   1.5581   1.7406   1.8104   1.9446   2.0630   2.2589   2.5678
     2.5941   2.6662   2.7446   2.7497   2.7869   2.8123   2.9374   3.0080
     3.0672   3.1360   3.2367   3.3263   3.4039   3.4145   3.4324   3.4580
     3.5514   3.6532   3.6718   3.7394   3.8551   3.9358   3.9564   3.9724
     4.0400   4.0865   4.1474   4.1778   4.2214   4.2505   4.3140   4.3655
     4.4562   4.4747   4.5450   4.5819   4.6071   4.6182   4.6549   4.7021
     4.7645   4.8471   4.8645   4.9204   4.9853   5.0292   5.0369   5.1235
     5.1841   5.2011   5.2197   5.2398   5.2790   5.2884   5.3488   5.4156
     5.4293   5.5174   5.5493   5.5768   5.6389   5.7213   5.7240   5.7624
     5.7937   5.8334   5.8355   5.8941   5.9136   5.9335   5.9969   6.0334
     6.0422   6.1458   6.2039   6.2584   6.3034   6.3145   6.3882   6.4483
     6.4512   6.4563   6.4658   6.5047   6.5163   6.5497   6.6005   6.6369
     6.7217   6.7412   6.7546   6.8043   6.8615   6.8684   6.9123   6.9354
     6.9777   7.0122   7.0391   7.0985   7.1197   7.2368   7.2693   7.2847
     7.2963   7.3451   7.3872   7.3977   7.4850   7.5313   7.5387   7.6050
     7.6090   7.6522   7.6722   7.6796   7.7158   7.7707   7.8015   7.8465
     7.9496   8.0076   8.0683   8.0721   8.0909   8.1570   8.2187   8.2367
     8.2641   8.3367   8.3399   8.3902   8.4292   8.4722   8.5250   8.5936
     8.6291   8.6769   8.6937   8.7432   8.7756   8.7849   8.8459   8.8698
     8.9329   8.9473   9.0297   9.0321   9.0897   9.0913   9.1562   9.1622
     9.1686   9.1840   9.2345   9.2667   9.2673   9.3498   9.3534   9.3638
     9.3687   9.4007   9.4798   9.5105   9.5350   9.5398   9.5878   9.6229
     9.6489   9.6529   9.6771   9.6980   9.7860   9.8138   9.8273   9.8345
     9.8690   9.8800   9.9053   9.9232   9.9442   9.9798  10.0167  10.0460
    10.1050  10.1074  10.1544  10.1860  10.2228  10.2737  10.3049  10.3167
    10.3346  10.3926  10.4084  10.4155  10.4332  10.4625  10.4822  10.5413
    10.5794  10.6163  10.6319  10.6983  10.7182  10.7375  10.7563  10.8197
    10.8357  10.8420  10.8622  10.9095  10.9234  10.9544  10.9849  11.0080
    11.0240  11.0559  11.0854  11.0916  11.1190  11.1389  11.1648  11.2029
    11.2393  11.2469  11.2779  11.2837  11.2921  11.3178  11.3458  11.3601
    11.3848  11.3929  11.4106  11.4280  11.4462  11.4690  11.5035  11.5314
    11.5395  11.5642  11.5894  11.6096  11.6226  11.6534  11.7252  11.7637
    11.7739  11.8094  11.8219  11.8538  11.8661  11.9039  11.9440  11.9867
    11.9937  12.0266  12.0281  12.0499  12.0834  12.1020  12.1593  12.1766
    12.2633  12.3018  12.3410  12.3937  12.4112  12.4114  12.4660  12.5084
    12.5520  12.5669  12.5796  12.5846  12.5974  12.6592  12.6635  12.7032
    12.7703  12.8100  12.8512  12.8565  12.9290  12.9447  12.9664  12.9905
    13.0000  13.0312  13.0702  13.0883  13.1161  13.1386  13.1729  13.2237
    13.2359  13.2887  13.3245  13.3463  13.3767  13.4087  13.4469  13.4520
    13.4922  13.5107  13.5143  13.5243  13.5454  13.5784  13.5828  13.6302
    13.7162  13.7284  13.7934  13.8651  13.8771  13.8832  13.9087  13.9908
    13.9934  14.0190  14.0435  14.0577  14.1186  14.1386  14.1774  14.2049
    14.2537  14.2733  14.2791  14.3496  14.3540  14.4162  14.4711  14.5251
    14.5562  14.5691  14.5930  14.6140  14.6473  14.6635  14.6900  14.7091
    14.7190  14.7594  14.8293  14.8460  14.8833  14.8962  14.9382  14.9663
    14.9911  15.0130  15.0787  15.0892  15.0982  15.1112  15.1222  15.1409
    15.1465  15.2304  15.2375  15.2870  15.3030  15.3417  15.3787  15.3923
    15.4211  15.4390  15.4570  15.4976

          k = 0.0000 0.0000 0.0117 ( 73667 PWs)   bands (ev):

   -21.1629 -20.8015 -20.4733 -20.0125 -19.9157 -19.5537 -19.3954 -19.2678
   -19.1292 -18.9806 -18.6360 -18.4950 -18.0821 -17.8779 -17.5446 -17.3082
   -17.1680 -16.8512 -16.5554 -16.1868 -16.1306 -15.7210 -15.6173 -15.4385
   -15.2536 -14.8182 -14.6688 -14.5027 -14.3689 -14.2728 -14.0180 -13.8871
   -13.6535 -13.5296 -12.9912 -12.7438 -12.4520 -12.2108 -12.0286 -11.9153
   -11.5079 -11.4854 -11.3883 -10.9262 -10.7419 -10.5847 -10.5084 -10.4597
   -10.1698 -10.0503  -9.8298  -9.5316  -9.3213  -9.2286  -9.1694  -9.1335
    -9.0367  -8.9080  -8.8475  -8.7738  -8.6928  -8.6556  -8.6059  -8.4510
    -8.4376  -8.3427  -8.2400  -8.1378  -8.0864  -7.9902  -7.8933  -7.8902
    -7.8879  -7.8656  -7.7861  -7.7737  -7.6323  -7.3959  -7.3690  -7.2467
    -7.1523  -7.1249  -7.0575  -6.9973  -6.9093  -6.7087  -6.4473  -6.4087
    -6.3533  -6.2224  -5.8061  -5.7959  -5.6606  -5.5461  -5.4065  -5.3244
    -5.2458  -5.0829  -4.8832  -4.6550  -4.2143  -4.0527  -3.9395  -3.4332
    -3.0374  -2.9936  -2.6040  -1.2922  -0.9198  -0.8885  -0.6023  -0.5260
    -0.2376   0.1605   0.2863   0.7442   0.9088   1.1075   1.1906   1.2818
     1.3299   1.5638   1.7771   1.8138   1.9467   2.0665   2.2661   2.5716
     2.6005   2.6736   2.6820   2.7342   2.7460   2.7638   2.9430   2.9708
     3.0320   3.1110   3.2356   3.2746   3.3739   3.4487   3.4681   3.5015
     3.5581   3.6112   3.7014   3.8043   3.8655   3.8859   3.9352   4.0360
     4.0623   4.0918   4.1407   4.1499   4.1539   4.2411   4.3372   4.3728
     4.4750   4.4862   4.4967   4.5416   4.5645   4.5979   4.6610   4.6821
     4.7742   4.8756   4.8819   4.9197   4.9435   5.0643   5.0752   5.1204
     5.1645   5.1795   5.2284   5.2484   5.3068   5.3256   5.4136   5.4760
     5.4972   5.5044   5.5453   5.5806   5.6459   5.7166   5.7357   5.7489
     5.7582   5.8050   5.8625   5.8947   5.9310   5.9568   5.9962   6.0099
     6.0613   6.1189   6.2250   6.2849   6.3273   6.3368   6.3852   6.4280
     6.4465   6.4619   6.5141   6.5364   6.5583   6.5689   6.6240   6.6613
     6.6981   6.7556   6.7851   6.8185   6.8287   6.8371   6.8845   6.9155
     6.9587   7.0130   7.0149   7.1165   7.1534   7.2247   7.2662   7.2974
     7.3152   7.3321   7.4129   7.4132   7.4682   7.5301   7.5965   7.6003
     7.6403   7.6800   7.6892   7.7090   7.7257   7.7620   7.7869   7.8641
     7.9263   7.9823   8.0577   8.0789   8.1201   8.1732   8.1859   8.1870
     8.2678   8.2956   8.3541   8.4040   8.4291   8.4557   8.4914   8.6086
     8.6269   8.6382   8.6750   8.7255   8.7472   8.7595   8.8007   8.8183
     8.8895   8.9573   8.9909   9.0610   9.0613   9.0914   9.1133   9.1241
     9.1303   9.1999   9.2219   9.2375   9.2576   9.2690   9.3222   9.3483
     9.3662   9.3914   9.4831   9.5178   9.5443   9.5746   9.5982   9.6013
     9.6290   9.6523   9.6673   9.6744   9.7543   9.7712   9.7978   9.8127
     9.8433   9.8510   9.8693   9.9402   9.9780   9.9980  10.0257  10.0669
    10.0774  10.1039  10.1564  10.1909  10.1916  10.2030  10.2611  10.3157
    10.3464  10.3687  10.4111  10.4508  10.4574  10.4697  10.4879  10.5611
    10.5656  10.6134  10.6579  10.6904  10.7080  10.7486  10.7622  10.8229
    10.8480  10.8816  10.8835  10.9062  10.9300  10.9440  10.9850  10.9975
    11.0209  11.0520  11.0859  11.1161  11.1440  11.1560  11.1800  11.1839
    11.1857  11.2134  11.2778  11.2798  11.2993  11.3268  11.3358  11.3570
    11.3755  11.3773  11.4116  11.4516  11.4556  11.4800  11.4951  11.5267
    11.5611  11.5643  11.5958  11.6084  11.6481  11.6601  11.6884  11.7266
    11.7871  11.8132  11.8224  11.8369  11.9021  11.9156  11.9231  11.9770
    12.0182  12.0271  12.0399  12.0848  12.0919  12.1191  12.1359  12.2135
    12.2909  12.3148  12.3436  12.3720  12.4032  12.4481  12.4494  12.5346
    12.5377  12.5647  12.5993  12.6063  12.6515  12.6792  12.7229  12.7721
    12.7947  12.8178  12.8202  12.8694  12.9217  12.9413  12.9683  12.9978
    13.0166  13.0551  13.0697  13.1134  13.1482  13.1672  13.1735  13.2536
    13.2640  13.2863  13.3110  13.3359  13.4118  13.4126  13.4551  13.4727
    13.4987  13.5124  13.5204  13.5274  13.5597  13.6224  13.6348  13.6680
    13.7191  13.7692  13.7829  13.8444  13.8766  13.9195  13.9459  13.9601
    13.9983  14.0122  14.0318  14.0409  14.1112  14.1518  14.1775  14.1821
    14.2710  14.2822  14.3030  14.3428  14.3454  14.4128  14.4675  14.4892
    14.5599  14.5640  14.5955  14.5967  14.6403  14.6646  14.6879  14.7284
    14.7710  14.7803  14.8383  14.8483  14.8690  14.8952  14.9008  14.9563
    14.9753  14.9941  15.0361  15.0745  15.0887  15.0999  15.1032  15.1327
    15.1683  15.2013  15.2382  15.2771  15.3048  15.3260  15.3861  15.3954
    15.4439  15.4452  15.4587  15.5020

          k = 0.0000 0.0000 0.0141 ( 73613 PWs)   bands (ev):

   -21.1566 -20.7960 -20.4690 -20.0501 -19.9325 -19.5916 -19.3390 -19.2965
   -19.1215 -18.9367 -18.6035 -18.4802 -18.0968 -17.9008 -17.5168 -17.3073
   -17.1483 -16.8459 -16.5479 -16.2282 -16.1779 -15.7959 -15.6202 -15.5084
   -15.2660 -14.8134 -14.5880 -14.4484 -14.3223 -14.1992 -14.0391 -13.8951
   -13.6810 -13.5242 -12.9866 -12.7671 -12.4288 -12.2312 -12.0059 -11.8809
   -11.5230 -11.4820 -11.3597 -10.9533 -10.7718 -10.6003 -10.4810 -10.4291
   -10.2245 -10.0927  -9.8147  -9.5186  -9.3475  -9.2210  -9.1865  -9.1431
    -9.0826  -8.9450  -8.8409  -8.7660  -8.7153  -8.6576  -8.6226  -8.4783
    -8.4456  -8.3427  -8.2196  -8.1262  -8.0698  -7.9413  -7.9237  -7.8644
    -7.8467  -7.8448  -7.8046  -7.7713  -7.6510  -7.4135  -7.3984  -7.2196
    -7.1117  -7.0952  -7.0744  -6.9550  -6.9166  -6.6536  -6.4625  -6.4075
    -6.3145  -6.2104  -5.8068  -5.8017  -5.6950  -5.5604  -5.4205  -5.3379
    -5.2137  -5.0767  -4.8689  -4.6460  -4.2095  -4.0765  -3.9592  -3.4784
    -3.0880  -3.0084  -2.6400  -1.2605  -0.9135  -0.8356  -0.5719  -0.4964
    -0.1872   0.1446   0.2914   0.7396   0.8856   1.1163   1.1993   1.2881
     1.3128   1.5707   1.8178   1.8179   1.9483   2.0709   2.2749   2.5744
     2.6072   2.6168   2.6799   2.6813   2.7115   2.7359   2.9435   2.9518
     2.9829   3.1066   3.2156   3.2194   3.3293   3.4568   3.5349   3.5471
     3.5677   3.5713   3.7373   3.8256   3.8504   3.9134   3.9139   4.0677
     4.0691   4.0960   4.0990   4.1306   4.1465   4.2485   4.2966   4.4133
     4.4173   4.4640   4.4957   4.5115   4.5445   4.5998   4.6705   4.7050
     4.7942   4.8397   4.8886   4.9249   4.9738   5.0149   5.1136   5.1297
     5.1669   5.1803   5.2380   5.2855   5.3189   5.3850   5.4118   5.4949
     5.5343   5.5361   5.5938   5.6146   5.6498   5.6854   5.6955   5.7335
     5.7598   5.7731   5.8917   5.9251   5.9493   5.9800   5.9884   6.0317
     6.0764   6.1298   6.1926   6.3400   6.3465   6.3549   6.3710   6.4126
     6.4250   6.4723   6.5564   6.5648   6.5766   6.6262   6.6581   6.6851
     6.7012   6.7538   6.7684   6.7786   6.8225   6.8341   6.8843   6.8870
     6.9765   7.0080   7.0164   7.1272   7.1822   7.2056   7.2674   7.3095
     7.3253   7.3470   7.4139   7.4345   7.4683   7.5263   7.5971   7.6157
     7.6264   7.6930   7.7159   7.7417   7.7645   7.7658   7.8072   7.8879
     7.9116   7.9608   8.0411   8.0880   8.1407   8.1430   8.1551   8.1812
     8.2460   8.2602   8.3721   8.3880   8.4509   8.4554   8.4773   8.5143
     8.5786   8.6299   8.6677   8.6765   8.7355   8.7389   8.7665   8.7960
     8.8805   8.9582   8.9667   9.0275   9.0329   9.0411   9.0788   9.0807
     9.1477   9.1578   9.1940   9.2384   9.2502   9.2805   9.3039   9.3379
     9.3568   9.3817   9.4855   9.5192   9.5346   9.5529   9.5626   9.6007
     9.6058   9.6163   9.6473   9.7022   9.7128   9.7328   9.7621   9.8022
     9.8085   9.8216   9.8647   9.9465   9.9630  10.0044  10.0205  10.0409
    10.0704  10.0778  10.1209  10.1542  10.1989  10.2226  10.2397  10.3027
    10.3722  10.3827  10.4347  10.4350  10.4580  10.4793  10.5177  10.5389
    10.5946  10.6213  10.6687  10.6988  10.7344  10.7558  10.7710  10.7865
    10.7931  10.8700  10.9070  10.9075  10.9351  10.9803  10.9965  11.0022
    11.0383  11.0537  11.0835  11.1113  11.1256  11.1554  11.1702  11.1730
    11.2026  11.2379  11.2557  11.2754  11.2854  11.3116  11.3366  11.3577
    11.3581  11.3902  11.4099  11.4204  11.4721  11.4952  11.4997  11.5380
    11.5732  11.6043  11.6175  11.6271  11.6378  11.6664  11.6847  11.7203
    11.7599  11.7930  11.8286  11.8606  11.8935  11.9253  11.9318  11.9836
    12.0292  12.0388  12.0644  12.0749  12.0949  12.1516  12.1852  12.2198
    12.2640  12.2908  12.3914  12.4003  12.4386  12.4590  12.4753  12.4816
    12.5656  12.5719  12.5783  12.6292  12.6846  12.7017  12.7353  12.7759
    12.8108  12.8231  12.8707  12.8890  12.9072  12.9584  12.9941  13.0126
    13.0243  13.0578  13.1087  13.1480  13.1791  13.1878  13.2026  13.2786
    13.2848  13.2948  13.3156  13.3365  13.4240  13.4476  13.4702  13.4911
    13.4949  13.5078  13.5369  13.5522  13.5977  13.6472  13.6796  13.7143
    13.7360  13.7673  13.8227  13.8227  13.8690  13.9121  13.9652  13.9691
    13.9893  14.0207  14.0259  14.0279  14.1138  14.1574  14.1620  14.2043
    14.2633  14.2951  14.3189  14.3450  14.3577  14.3981  14.4091  14.4842
    14.5265  14.5536  14.5690  14.5744  14.6262  14.6637  14.7126  14.7749
    14.7763  14.8104  14.8178  14.8475  14.8634  14.8751  14.8983  14.9618
    14.9815  15.0026  15.0137  15.0558  15.0906  15.0987  15.1091  15.1190
    15.1524  15.2089  15.2266  15.2693  15.3171  15.3276  15.3752  15.3993
    15.4261  15.4490  15.4856  15.5258

          k = 0.0000 0.0000 0.0164 ( 73623 PWs)   bands (ev):

   -21.1491 -20.7896 -20.4641 -20.0920 -19.9454 -19.6289 -19.3343 -19.2752
   -19.1123 -18.8893 -18.5800 -18.4542 -18.1136 -17.9204 -17.4906 -17.3089
   -17.1222 -16.8408 -16.5394 -16.3040 -16.1960 -15.8727 -15.6384 -15.5664
   -15.2836 -14.8068 -14.5005 -14.4068 -14.2596 -14.1259 -14.0555 -13.9035
   -13.7146 -13.5147 -12.9862 -12.7897 -12.4043 -12.2508 -11.9817 -11.8422
   -11.5614 -11.4553 -11.3274 -10.9824 -10.8108 -10.6155 -10.4502 -10.3932
   -10.3054 -10.1173  -9.7926  -9.5042  -9.3976  -9.2120  -9.2070  -9.1727
    -9.1176  -8.9671  -8.8332  -8.7872  -8.7283  -8.6562  -8.6081  -8.5201
    -8.4396  -8.3483  -8.2233  -8.1147  -8.0429  -7.9667  -7.9085  -7.8643
    -7.8266  -7.8196  -7.7860  -7.7252  -7.6643  -7.4569  -7.4078  -7.1832
    -7.1199  -7.0964  -7.0199  -6.9118  -6.9115  -6.5969  -6.4804  -6.4059
    -6.2929  -6.1803  -5.8129  -5.8089  -5.7208  -5.5772  -5.4371  -5.3538
    -5.1860  -5.0709  -4.8487  -4.6358  -4.2043  -4.1111  -3.9743  -3.5291
    -3.1463  -3.0237  -2.6805  -1.2252  -0.9085  -0.7742  -0.5508  -0.4494
    -0.1293   0.1283   0.2964   0.7229   0.8734   1.1266   1.2097   1.2926
     1.2955   1.5788   1.8226   1.8608   1.9495   2.0763   2.2852   2.5437
     2.5860   2.6093   2.6148   2.6600   2.6938   2.7242   2.9049   2.9471
     2.9711   3.0982   3.1674   3.1740   3.3129   3.4677   3.4761   3.5792
     3.6043   3.6236   3.7379   3.8003   3.8687   3.9049   3.9775   4.0126
     4.0267   4.0970   4.1170   4.1249   4.2026   4.2639   4.2653   4.3368
     4.4035   4.4247   4.4518   4.5249   4.5949   4.6002   4.6825   4.7351
     4.7798   4.8402   4.8957   4.9422   4.9526   5.0234   5.0486   5.1779
     5.1907   5.2340   5.2503   5.3276   5.3322   5.3466   5.4419   5.5251
     5.5343   5.5708   5.6035   5.6394   5.6523   5.6778   5.7184   5.7231
     5.7685   5.7731   5.8803   5.9183   5.9860   5.9958   6.0533   6.0546
     6.0751   6.1605   6.1915   6.3026   6.3540   6.3638   6.3942   6.4137
     6.4520   6.4812   6.5574   6.5784   6.6141   6.6298   6.6948   6.7156
     6.7213   6.7370   6.7451   6.7716   6.8110   6.8403   6.8602   6.9086
     7.0084   7.0159   7.0347   7.1302   7.1753   7.2028   7.2732   7.3218
     7.3340   7.3661   7.4194   7.4511   7.4809   7.5086   7.6022   7.6108
     7.6110   7.7063   7.7077   7.7279   7.8097   7.8212   7.8452   7.9158
     7.9203   7.9548   8.0268   8.0834   8.1143   8.1291   8.1536   8.1703
     8.1999   8.2463   8.3471   8.3575   8.4392   8.4508   8.4634   8.5104
     8.5412   8.5421   8.6386   8.6605   8.7206   8.7293   8.7508   8.7779
     8.8611   8.9285   8.9479   8.9682   8.9796   9.0096   9.0437   9.0836
     9.0984   9.1551   9.1647   9.2322   9.2612   9.3054   9.3137   9.3377
     9.3577   9.3786   9.4709   9.4952   9.5007   9.5239   9.5286   9.5513
     9.5706   9.5989   9.6128   9.6689   9.6873   9.7305   9.7585   9.7590
     9.8050   9.8376   9.8772   9.8865   9.9190   9.9622   9.9891  10.0334
    10.0574  10.0688  10.1274  10.1411  10.1466  10.2680  10.2683  10.3242
    10.3479  10.3611  10.3926  10.4278  10.4899  10.4967  10.5091  10.5968
    10.6238  10.6350  10.6942  10.7041  10.7172  10.7581  10.7687  10.7736
    10.8073  10.8418  10.9050  10.9127  10.9322  10.9418  10.9721  10.9933
    11.0313  11.0719  11.0829  11.1033  11.1179  11.1728  11.1849  11.1896
    11.2235  11.2463  11.2604  11.2740  11.2755  11.2885  11.3091  11.3334
    11.3675  11.3974  11.4278  11.4457  11.4846  11.5129  11.5338  11.5535
    11.5640  11.6169  11.6269  11.6328  11.6529  11.6656  11.7021  11.7248
    11.7422  11.8067  11.8107  11.8567  11.8984  11.9337  11.9667  12.0190
    12.0291  12.0317  12.0436  12.0942  12.1022  12.1827  12.1905  12.2305
    12.2870  12.2932  12.3976  12.4102  12.4311  12.4896  12.4966  12.5327
    12.5343  12.5920  12.6106  12.6453  12.6841  12.7065  12.7162  12.7500
    12.7823  12.8630  12.8881  12.8888  12.9751  12.9790  13.0133  13.0271
    13.0635  13.1021  13.1158  13.1904  13.2002  13.2302  13.2437  13.2850
    13.3033  13.3159  13.3224  13.3845  13.4302  13.4608  13.4852  13.4985
    13.5330  13.5342  13.5569  13.5998  13.6201  13.6354  13.6644  13.7672
    13.7765  13.7926  13.8144  13.8444  13.8741  13.9111  13.9220  13.9728
    13.9964  14.0372  14.0400  14.0457  14.1250  14.1507  14.1684  14.2218
    14.2651  14.2813  14.2993  14.3497  14.3612  14.3809  14.4145  14.4519
    14.4836  14.5219  14.5727  14.5782  14.6087  14.6618  14.7022  14.7334
    14.7622  14.7844  14.8015  14.8579  14.8804  14.9071  14.9395  14.9606
    14.9620  15.0220  15.0563  15.0607  15.0818  15.0949  15.1047  15.1183
    15.1447  15.2172  15.2443  15.2686  15.3178  15.3469  15.3615  15.3771
    15.4395  15.4593  15.5126  15.5190

          k = 0.0000 0.0000 0.0188 ( 73613 PWs)   bands (ev):

   -21.1404 -20.7823 -20.4588 -20.1350 -19.9578 -19.6643 -19.3683 -19.2165
   -19.1010 -18.8403 -18.5662 -18.4169 -18.1320 -17.9363 -17.4662 -17.3127
   -17.0904 -16.8365 -16.5308 -16.3860 -16.2115 -15.9491 -15.6943 -15.5892
   -15.3060 -14.7968 -14.4159 -14.3703 -14.1848 -14.0880 -14.0344 -13.9085
   -13.7517 -13.5037 -12.9909 -12.8104 -12.3790 -12.2688 -11.9562 -11.8003
   -11.6021 -11.4245 -11.2928 -11.0137 -10.8536 -10.6344 -10.4340 -10.3819
   -10.3512 -10.1320  -9.7708  -9.4990  -9.4541  -9.2434  -9.2152  -9.2017
    -9.1226  -8.9896  -8.8382  -8.8244  -8.7219  -8.6558  -8.5884  -8.5441
    -8.4328  -8.3558  -8.2413  -8.1037  -8.0190  -8.0144  -7.9113  -7.8466
    -7.8447  -7.7848  -7.7185  -7.6994  -7.6416  -7.4980  -7.4193  -7.1577
    -7.1430  -7.0781  -6.9684  -6.8888  -6.8675  -6.5405  -6.5004  -6.4042
    -6.2858  -6.1353  -5.8283  -5.8173  -5.7328  -5.5964  -5.4563  -5.3720
    -5.1629  -5.0657  -4.8225  -4.6246  -4.2007  -4.1540  -3.9853  -3.5842
    -3.2099  -3.0405  -2.7245  -1.1869  -0.9031  -0.7075  -0.5350  -0.3899
    -0.0648   0.1119   0.3017   0.6933   0.8738   1.1385   1.2216   1.2698
     1.3039   1.5881   1.8280   1.9008   1.9537   2.0827   2.2972   2.4806
     2.5499   2.5755   2.5893   2.6371   2.6978   2.7213   2.8486   2.9505
     2.9797   3.0629   3.1129   3.1503   3.3163   3.4128   3.4800   3.5909
     3.5961   3.6903   3.6982   3.8248   3.8795   3.9115   3.9663   3.9699
     4.0561   4.0655   4.1365   4.1416   4.2425   4.2513   4.2697   4.3042
     4.3501   4.3690   4.4457   4.5103   4.6362   4.6414   4.7052   4.7285
     4.7510   4.8810   4.8966   4.9235   4.9632   4.9936   5.0662   5.1904
     5.2384   5.2737   5.2750   5.2861   5.3507   5.3770   5.4633   5.5027
     5.5284   5.5709   5.6067   5.6176   5.6657   5.6996   5.7586   5.7723
     5.7948   5.8232   5.8636   5.8996   5.9783   6.0636   6.0722   6.0769
     6.1364   6.1378   6.2388   6.2882   6.3471   6.3797   6.3817   6.4078
     6.4854   6.5183   6.5533   6.5883   6.6013   6.6232   6.6596   6.6976
     6.7341   6.7595   6.7943   6.7982   6.8284   6.8392   6.8621   6.9354
     7.0147   7.0316   7.0888   7.1273   7.1598   7.2077   7.2701   7.3342
     7.3464   7.3696   7.4544   7.4624   7.4793   7.4884   7.5808   7.6021
     7.6368   7.6701   7.7008   7.7621   7.8363   7.8505   7.8585   7.9312
     7.9621   7.9777   8.0408   8.0609   8.0909   8.0980   8.1517   8.1593
     8.1796   8.2225   8.2486   8.3352   8.4109   8.4408   8.4481   8.4949
     8.5034   8.5536   8.5945   8.6349   8.7192   8.7212   8.7482   8.7491
     8.8100   8.8463   8.8922   8.9050   8.9874   8.9897   9.0217   9.0755
     9.0886   9.1366   9.1792   9.1897   9.2605   9.2812   9.3175   9.3531
     9.3932   9.4005   9.4135   9.4374   9.4774   9.4778   9.4944   9.5301
     9.5344   9.5788   9.5958   9.6198   9.6576   9.7061   9.7227   9.7609
     9.8095   9.8162   9.8273   9.8782   9.8786   9.9525   9.9842  10.0064
    10.0269  10.0546  10.0881  10.1879  10.1945  10.2428  10.2703  10.3096
    10.3201  10.3306  10.3831  10.4036  10.4964  10.5029  10.5411  10.5953
    10.6178  10.6874  10.6951  10.7236  10.7329  10.7718  10.7867  10.7869
    10.7997  10.8182  10.8875  10.8977  10.9172  10.9316  10.9474  10.9814
    11.0187  11.0324  11.0800  11.0891  11.1303  11.1744  11.1760  11.2108
    11.2125  11.2439  11.2501  11.2571  11.2783  11.3211  11.3305  11.3629
    11.3914  11.4138  11.4725  11.4914  11.4962  11.5151  11.5295  11.5633
    11.5781  11.6142  11.6310  11.6331  11.6594  11.6847  11.6991  11.7468
    11.7629  11.8027  11.8234  11.8332  11.9129  11.9556  11.9603  12.0022
    12.0105  12.0263  12.1034  12.1244  12.1303  12.1606  12.2164  12.2569
    12.2750  12.3172  12.3787  12.4435  12.4456  12.4561  12.5164  12.5429
    12.5842  12.6342  12.6383  12.6458  12.6625  12.6832  12.7246  12.7532
    12.7853  12.8265  12.8978  12.9473  12.9699  13.0075  13.0316  13.0566
    13.1104  13.1355  13.1861  13.1915  13.2578  13.2636  13.2895  13.2959
    13.3118  13.3486  13.3678  13.4338  13.4536  13.4573  13.4978  13.5102
    13.5604  13.5607  13.5816  13.5995  13.6192  13.6618  13.6982  13.7520
    13.8028  13.8180  13.8459  13.8549  13.8767  13.8983  13.9545  13.9761
    13.9947  14.0372  14.0485  14.0821  14.1441  14.1618  14.1682  14.1998
    14.2396  14.2740  14.2902  14.3374  14.3788  14.3798  14.4307  14.4476
    14.4558  14.5070  14.5741  14.5838  14.5861  14.6443  14.6455  14.7046
    14.7363  14.7634  14.8005  14.8384  14.8794  14.9320  14.9444  14.9668
    14.9882  15.0213  15.0451  15.0775  15.0878  15.1251  15.1318  15.1380
    15.1845  15.2204  15.2602  15.2621  15.3178  15.3504  15.3862  15.3951
    15.4496  15.4684  15.4905  15.5114

          k = 0.0000 0.0000 0.0211 ( 73583 PWs)   bands (ev):

   -21.1306 -20.7741 -20.4534 -20.1775 -19.9713 -19.6972 -19.4031 -19.1609
   -19.0844 -18.7912 -18.5588 -18.3724 -18.1509 -17.9482 -17.4434 -17.3181
   -17.0538 -16.8333 -16.5286 -16.4630 -16.2300 -16.0222 -15.7689 -15.5952
   -15.3328 -14.7833 -14.3765 -14.2953 -14.1049 -14.0958 -13.9745 -13.8982
   -13.7907 -13.4928 -13.0007 -12.8289 -12.3536 -12.2843 -11.9295 -11.7588
   -11.6415 -11.3904 -11.2577 -11.0476 -10.8952 -10.6627 -10.5043 -10.3670
   -10.3086 -10.1410  -9.7525  -9.5552  -9.4585  -9.3138  -9.2268  -9.1900
    -9.1211  -9.0152  -8.8944  -8.8145  -8.7186  -8.6669  -8.5963  -8.5159
    -8.4257  -8.3618  -8.2649  -8.0943  -8.0634  -8.0093  -7.9197  -7.8625
    -7.8304  -7.7527  -7.6893  -7.6448  -7.5878  -7.5363  -7.4263  -7.1971
    -7.1047  -7.0540  -6.9405  -6.8379  -6.8238  -6.5215  -6.4868  -6.4027
    -6.2833  -6.0849  -5.8511  -5.8272  -5.7315  -5.6180  -5.4779  -5.3925
    -5.1443  -5.0607  -4.7914  -4.6120  -4.2201  -4.1814  -3.9943  -3.6423
    -3.2775  -3.0590  -2.7717  -1.1462  -0.8970  -0.6374  -0.5203  -0.3223
     0.0044   0.0972   0.3076   0.6548   0.8830   1.1520   1.2351   1.2448
     1.3132   1.5984   1.8341   1.9198   1.9772   2.0902   2.3107   2.4172
     2.4868   2.5111   2.5917   2.6351   2.6950   2.7297   2.7939   2.9568
     2.9882   3.0140   3.0529   3.1538   3.3273   3.3514   3.4927   3.5534
     3.6047   3.6121   3.7610   3.8806   3.8883   3.8914   3.9413   3.9552
     4.0258   4.1094   4.1419   4.1692   4.2114   4.2391   4.2732   4.3052
     4.3166   4.3778   4.4135   4.5168   4.6233   4.6752   4.7205   4.7378
     4.7719   4.8524   4.8786   4.9259   4.9887   5.0208   5.1034   5.2029
     5.2133   5.2713   5.3083   5.3119   5.3817   5.3948   5.4621   5.4788
     5.5132   5.5387   5.5966   5.6322   5.6938   5.7301   5.7884   5.8056
     5.8469   5.8742   5.8925   5.9155   5.9640   6.0519   6.0890   6.1278
     6.1506   6.2200   6.2213   6.3212   6.3476   6.3826   6.3923   6.4124
     6.4795   6.5199   6.5672   6.5707   6.5873   6.6045   6.6607   6.6747
     6.7406   6.7829   6.7967   6.8295   6.8445   6.8897   6.9208   6.9413
     7.0445   7.0547   7.0928   7.1289   7.1752   7.2199   7.2664   7.3433
     7.3462   7.3944   7.4237   7.4680   7.4837   7.5275   7.5464   7.5856
     7.6426   7.6569   7.7295   7.7854   7.8174   7.8570   7.8806   7.9091
     8.0093   8.0334   8.0383   8.0439   8.0597   8.0795   8.1272   8.1439
     8.1869   8.1910   8.2103   8.2884   8.3562   8.4261   8.4263   8.4757
     8.5129   8.5439   8.5535   8.6261   8.6936   8.7101   8.7189   8.7265
     8.7600   8.7983   8.8409   8.8647   8.9453   8.9780   9.0019   9.0503
     9.1068   9.1336   9.1668   9.1847   9.2280   9.2457   9.2996   9.3375
     9.3604   9.3738   9.4052   9.4057   9.4628   9.4716   9.4810   9.4930
     9.5218   9.5414   9.5751   9.6205   9.6401   9.6687   9.6716   9.7462
     9.7579   9.7590   9.7703   9.8829   9.9383   9.9446   9.9712   9.9918
     9.9984  10.0413  10.0850  10.1796  10.2071  10.2177  10.2523  10.2701
    10.3046  10.3620  10.3881  10.4163  10.4602  10.4916  10.5057  10.6030
    10.6060  10.6519  10.7098  10.7275  10.7386  10.7739  10.7945  10.8029
    10.8275  10.8474  10.8853  10.8897  10.8947  10.9294  10.9480  10.9774
    10.9850  11.0182  11.0522  11.1110  11.1166  11.1215  11.1564  11.2010
    11.2060  11.2472  11.2786  11.2945  11.2999  11.3475  11.3704  11.3845
    11.4112  11.4293  11.4807  11.5070  11.5217  11.5421  11.5601  11.5682
    11.5948  11.6277  11.6370  11.6408  11.6551  11.6905  11.7182  11.7589
    11.7890  11.8047  11.8245  11.8573  11.8651  11.9314  11.9551  12.0141
    12.0449  12.0533  12.1179  12.1260  12.1741  12.1821  12.2343  12.2488
    12.2841  12.3108  12.3483  12.4616  12.4773  12.5050  12.5227  12.5748
    12.5752  12.6084  12.6142  12.6177  12.6728  12.7229  12.7261  12.7702
    12.8129  12.8740  12.9061  12.9670  12.9843  12.9889  13.0278  13.1238
    13.1500  13.1682  13.2276  13.2285  13.2347  13.2967  13.3231  13.3739
    13.3752  13.3787  13.4063  13.4480  13.4662  13.4822  13.5147  13.5385
    13.5501  13.5610  13.5846  13.6248  13.6327  13.7106  13.7434  13.7576
    13.8078  13.8255  13.8316  13.8584  13.9008  13.9253  13.9883  13.9891
    14.0213  14.0335  14.0610  14.0867  14.1276  14.1341  14.1679  14.2133
    14.2211  14.3013  14.3117  14.3292  14.3751  14.3918  14.4334  14.4453
    14.4491  14.5111  14.5440  14.5851  14.5875  14.6131  14.6342  14.7004
    14.7124  14.7224  14.7942  14.8133  14.8464  14.9186  14.9198  14.9980
    15.0086  15.0457  15.0568  15.0709  15.1110  15.1419  15.1587  15.1914
    15.2159  15.2410  15.2708  15.2879  15.3243  15.3454  15.4265  15.4410
    15.4490  15.4507  15.4982  15.5204

          k = 0.0000 0.0000 0.0235 ( 73607 PWs)   bands (ev):

   -21.1196 -20.7650 -20.4484 -20.2185 -19.9866 -19.7272 -19.4373 -19.1196
   -19.0521 -18.7436 -18.5539 -18.3253 -18.1684 -17.9559 -17.4221 -17.3244
   -17.0134 -16.8319 -16.5754 -16.4915 -16.2556 -16.0870 -15.8473 -15.5987
   -15.3632 -14.7666 -14.3657 -14.1983 -14.1052 -14.0258 -13.9407 -13.8492
   -13.8286 -13.4834 -13.0144 -12.8457 -12.3301 -12.2948 -11.9019 -11.7360
   -11.6615 -11.3537 -11.2251 -11.0847 -10.9304 -10.7129 -10.5785 -10.3322
   -10.2647 -10.1446  -9.7394  -9.6328  -9.4560  -9.3754  -9.2366  -9.1769
    -9.1206  -9.0435  -8.9455  -8.8035  -8.7391  -8.6767  -8.5974  -8.4782
    -8.4186  -8.3647  -8.2851  -8.1117  -8.0883  -8.0146  -7.9210  -7.8816
    -7.8247  -7.7362  -7.6552  -7.5713  -7.5696  -7.5431  -7.4155  -7.2363
    -7.0745  -7.0194  -6.9254  -6.7822  -6.7715  -6.5419  -6.4394  -6.4018
    -6.2787  -6.0360  -5.8739  -5.8387  -5.7208  -5.6419  -5.5021  -5.4153
    -5.1299  -5.0554  -4.7571  -4.5975  -4.2755  -4.1787  -4.0035  -3.7017
    -3.3481  -3.0792  -2.8213  -1.1037  -0.8901  -0.5694  -0.5009  -0.2492
     0.0597   0.1019   0.3145   0.6116   0.8973   1.1671   1.2178   1.2502
     1.3233   1.6098   1.8409   1.9154   2.0204   2.0988   2.3257   2.3550
     2.4249   2.4425   2.5899   2.6220   2.6960   2.7439   2.7450   2.9516
     2.9565   3.0099   3.0102   3.1618   3.2936   3.3421   3.4923   3.4999
     3.5325   3.6199   3.7763   3.8519   3.9027   3.9370   3.9448   3.9577
     4.0013   4.1050   4.1398   4.1731   4.2174   4.2362   4.2505   4.3095
     4.3124   4.3739   4.4450   4.5412   4.5706   4.6964   4.7167   4.7522
     4.8191   4.8441   4.8447   4.9061   5.0414   5.0878   5.1337   5.1617
     5.2125   5.2832   5.3280   5.3373   5.3709   5.3948   5.4644   5.4675
     5.4934   5.5409   5.5871   5.6935   5.6959   5.7206   5.8262   5.8491
     5.8984   5.9070   5.9260   5.9514   6.0099   6.0277   6.0999   6.1274
     6.2140   6.2263   6.3003   6.3038   6.3517   6.3865   6.3944   6.4694
     6.4705   6.4976   6.5358   6.5395   6.5772   6.5951   6.6635   6.7264
     6.7312   6.7779   6.8011   6.8353   6.9057   6.9276   6.9581   6.9921
     7.0638   7.0817   7.0896   7.1384   7.1798   7.2283   7.3012   7.3480
     7.3566   7.3808   7.4274   7.4650   7.4765   7.5131   7.5527   7.5771
     7.6331   7.6703   7.7714   7.7963   7.7984   7.8357   7.8752   7.8934
     7.9940   7.9997   8.0278   8.0522   8.0567   8.0710   8.1062   8.1394
     8.2056   8.2172   8.2187   8.2430   8.3421   8.3818   8.4190   8.4562
     8.4772   8.5130   8.5277   8.5853   8.6499   8.6753   8.6959   8.7217
     8.7272   8.7802   8.8289   8.8651   8.8904   8.9240   9.0043   9.0137
     9.0610   9.1408   9.1489   9.1895   9.1983   9.2104   9.2727   9.2839
     9.3060   9.3395   9.3482   9.4092   9.4302   9.4592   9.4651   9.4924
     9.5402   9.5413   9.5686   9.5785   9.6224   9.6436   9.6596   9.7042
     9.7072   9.7350   9.7561   9.8744   9.9076   9.9297   9.9506   9.9879
    10.0255  10.0707  10.0744  10.0942  10.1458  10.2118  10.2808  10.3013
    10.3187  10.3399  10.3784  10.4130  10.4434  10.4743  10.5199  10.5399
    10.5991  10.6235  10.6427  10.6865  10.7373  10.7757  10.7938  10.8062
    10.8436  10.8443  10.8597  10.9153  10.9186  10.9403  10.9744  10.9835
    10.9886  10.9936  11.0613  11.0913  11.1092  11.1189  11.1526  11.1887
    11.2168  11.2705  11.3015  11.3125  11.3352  11.3609  11.3814  11.4114
    11.4355  11.4371  11.5120  11.5221  11.5297  11.5431  11.5622  11.5744
    11.6064  11.6265  11.6400  11.6620  11.6719  11.7090  11.7470  11.7913
    11.8078  11.8221  11.8246  11.8637  11.8766  11.9143  11.9464  11.9916
    12.0773  12.0847  12.1160  12.1448  12.2048  12.2053  12.2270  12.2324
    12.2864  12.3378  12.3804  12.4583  12.4898  12.4930  12.5178  12.5651
    12.5963  12.6046  12.6137  12.6489  12.6834  12.7203  12.7330  12.7601
    12.8815  12.9134  12.9366  12.9587  12.9801  13.0118  13.0791  13.1326
    13.1862  13.2047  13.2358  13.2422  13.2629  13.2860  13.3805  13.3858
    13.3972  13.4353  13.4693  13.4720  13.4858  13.5045  13.5248  13.5425
    13.5795  13.5924  13.6034  13.6506  13.6863  13.6991  13.7742  13.7891
    13.8067  13.8092  13.8340  13.8947  13.9134  13.9476  13.9511  14.0131
    14.0413  14.0619  14.0709  14.0749  14.0798  14.1584  14.1925  14.2235
    14.2469  14.3119  14.3280  14.3461  14.3844  14.3930  14.4116  14.4221
    14.4670  14.5137  14.5347  14.5914  14.6035  14.6117  14.6449  14.6667
    14.6769  14.7284  14.7540  14.7981  14.7985  14.9186  14.9314  15.0045
    15.0251  15.0501  15.0585  15.1146  15.1236  15.1675  15.1778  15.2108
    15.2410  15.2691  15.2954  15.3225  15.3457  15.3532  15.4309  15.4316
    15.4658  15.4754  15.5017  15.5199

          k = 0.0000 0.0000 0.0258 ( 73582 PWs)   bands (ev):

   -21.1076 -20.7551 -20.4446 -20.2566 -20.0042 -19.7542 -19.4701 -19.0973
   -18.9997 -18.6995 -18.5488 -18.2814 -18.1799 -17.9591 -17.4023 -17.3311
   -16.9700 -16.8330 -16.6564 -16.4861 -16.2937 -16.1370 -15.9258 -15.6029
   -15.3967 -14.7472 -14.3635 -14.1283 -14.0826 -13.9688 -13.9038 -13.8684
   -13.7724 -13.4764 -13.0295 -12.8619 -12.3201 -12.2890 -11.8739 -11.7621
   -11.6325 -11.3154 -11.1995 -11.1244 -10.9539 -10.7929 -10.6271 -10.2970
   -10.2245 -10.1407  -9.7325  -9.7104  -9.4926  -9.4007  -9.2450  -9.1625
    -9.1247  -9.0802  -8.9779  -8.7916  -8.7832  -8.6743  -8.5932  -8.4515
    -8.4122  -8.3734  -8.2842  -8.1581  -8.0890  -8.0246  -7.9205  -7.9031
    -7.8260  -7.7244  -7.6165  -7.6029  -7.5212  -7.4904  -7.3732  -7.2744
    -7.0520  -6.9761  -6.9133  -6.7460  -6.7005  -6.5579  -6.4040  -6.4015
    -6.2659  -5.9968  -5.8870  -5.8518  -5.7030  -5.6680  -5.5287  -5.4403
    -5.1193  -5.0488  -4.7223  -4.5799  -4.3393  -4.1723  -4.0155  -3.7599
    -3.4206  -3.1011  -2.8730  -1.0599  -0.8823  -0.5243  -0.4566  -0.1721
     0.0554   0.1711   0.3229   0.5666   0.9145   1.1838   1.1894   1.2669
     1.3342   1.6221   1.8484   1.9010   2.0680   2.1086   2.2937   2.3426
     2.3643   2.3747   2.5781   2.5901   2.7059   2.7071   2.7603   2.8998
     2.9338   3.0040   3.0251   3.1658   3.2447   3.3582   3.4064   3.4432
     3.5323   3.6368   3.7416   3.8097   3.8913   3.9335   3.9790   3.9871
     4.0274   4.0623   4.1431   4.1607   4.1834   4.2616   4.2711   4.3047
     4.3315   4.3764   4.5043   4.5133   4.5806   4.6814   4.7119   4.7532
     4.7978   4.8721   4.8767   4.9067   5.0744   5.1131   5.1537   5.1867
     5.2151   5.2873   5.3194   5.3332   5.3830   5.3839   5.4254   5.4389
     5.5256   5.5815   5.6093   5.6666   5.7269   5.7686   5.8434   5.8541
     5.9192   5.9733   5.9741   5.9939   6.0024   6.1010   6.1088   6.1378
     6.2190   6.2831   6.2880   6.3453   6.3548   6.3827   6.3926   6.4688
     6.4835   6.4882   6.5079   6.5440   6.5852   6.6067   6.6617   6.7139
     6.7463   6.7849   6.8186   6.8609   6.9280   6.9691   6.9830   7.0537
     7.0681   7.0880   7.1364   7.1455   7.1843   7.2389   7.3197   7.3523
     7.3628   7.4084   7.4437   7.4451   7.4635   7.4934   7.5364   7.5703
     7.6427   7.7099   7.7274   7.7770   7.7943   7.8501   7.8614   7.8840
     7.9638   7.9661   7.9748   8.0002   8.0681   8.0691   8.1144   8.1490
     8.2167   8.2500   8.2693   8.2834   8.3237   8.3344   8.3829   8.4277
     8.4285   8.4914   8.5131   8.5190   8.6081   8.6433   8.6632   8.7068
     8.7385   8.7423   8.8212   8.8649   8.8683   8.8922   8.9410   9.0162
     9.0177   9.0789   9.1124   9.1315   9.1832   9.2172   9.2321   9.2612
     9.2821   9.2929   9.2953   9.3616   9.3779   9.4314   9.4633   9.5018
     9.5224   9.5590   9.5761   9.5884   9.6065   9.6311   9.6472   9.6721
     9.6850   9.7509   9.7534   9.8474   9.8494   9.8751   9.9551   9.9598
    10.0114  10.0433  10.0576  10.1182  10.1453  10.2134  10.2369  10.2718
    10.3065  10.3690  10.3994  10.4129  10.4277  10.4647  10.4729  10.5323
    10.5781  10.5929  10.6117  10.6560  10.7212  10.7453  10.7575  10.7771
    10.8138  10.8155  10.8368  10.8985  10.9286  10.9630  10.9756  10.9969
    11.0319  11.0551  11.0681  11.0981  11.1000  11.1420  11.1823  11.2216
    11.2419  11.2706  11.3051  11.3223  11.3460  11.3812  11.4118  11.4371
    11.4557  11.4721  11.4761  11.5080  11.5356  11.5691  11.5780  11.5892
    11.5895  11.6277  11.6413  11.6758  11.6965  11.7217  11.7613  11.7847
    11.8400  11.8511  11.8531  11.8928  11.9047  11.9394  11.9459  11.9789
    12.0509  12.0846  12.1313  12.1821  12.1835  12.2038  12.2553  12.2725
    12.2823  12.3860  12.4222  12.4336  12.4489  12.4933  12.5070  12.5585
    12.5865  12.6303  12.6578  12.6671  12.6897  12.7258  12.7485  12.8009
    12.8880  12.9294  12.9484  12.9831  13.0100  13.0148  13.1299  13.1616
    13.1793  13.2075  13.2465  13.2742  13.3015  13.3099  13.3744  13.3754
    13.3941  13.4667  13.4948  13.4951  13.5253  13.5530  13.5620  13.5811
    13.6029  13.6476  13.6554  13.6783  13.7021  13.7184  13.7749  13.7904
    13.7924  13.8179  13.8754  13.8879  13.9201  13.9269  13.9398  14.0070
    14.0458  14.0470  14.1001  14.1050  14.1523  14.1946  14.2194  14.2545
    14.2545  14.2716  14.3287  14.3691  14.3849  14.3889  14.4070  14.4326
    14.4756  14.5331  14.5341  14.5877  14.6018  14.6281  14.6499  14.6562
    14.6620  14.7075  14.7555  14.7855  14.8130  14.9367  14.9506  14.9926
    15.0285  15.0306  15.1045  15.1164  15.1556  15.1998  15.2056  15.2302
    15.2551  15.2642  15.3014  15.3502  15.3684  15.3998  15.4029  15.4215
    15.4440  15.4836  15.5329  15.5367

          k = 0.0000 0.0000 0.0282 ( 73614 PWs)   bands (ev):

   -21.0943 -20.7445 -20.4439 -20.2902 -20.0242 -19.7784 -19.5013 -19.0828
   -18.9389 -18.6618 -18.5406 -18.2542 -18.1724 -17.9571 -17.3839 -17.3379
   -16.9251 -16.8392 -16.7378 -16.4813 -16.3432 -16.1707 -16.0018 -15.6088
   -15.4324 -14.7261 -14.3658 -14.1337 -13.9855 -13.9407 -13.9129 -13.8270
   -13.6940 -13.4721 -13.0434 -12.8785 -12.3243 -12.2660 -11.8488 -11.8028
   -11.5870 -11.2800 -11.1911 -11.1563 -10.9683 -10.8827 -10.6596 -10.2639
   -10.1957 -10.1255  -9.7835  -9.7312  -9.5532  -9.4090  -9.2524  -9.1468
    -9.1342  -9.1252  -8.9852  -8.8336  -8.7787  -8.6720  -8.5893  -8.4359
    -8.4077  -8.3967  -8.2541  -8.2009  -8.0992  -8.0303  -7.9270  -7.9223
    -7.8286  -7.7123  -7.6313  -7.5998  -7.4916  -7.4135  -7.3105  -7.3103
    -7.0330  -6.9298  -6.9017  -6.7216  -6.6285  -6.5624  -6.4021  -6.3840
    -6.2425  -5.9806  -5.8753  -5.8667  -5.6962  -5.6783  -5.5576  -5.4673
    -5.1116  -5.0408  -4.6905  -4.5571  -4.4074  -4.1655  -4.0340  -3.8132
    -3.4939  -3.1244  -2.9262  -1.0153  -0.8735  -0.5059  -0.3841  -0.0925
     0.0415   0.2523   0.3342   0.5227   0.9331   1.1597   1.2019   1.2851
     1.3458   1.6354   1.8568   1.8790   2.1148   2.1191   2.2346   2.3049
     2.3099   2.3607   2.5423   2.5514   2.6834   2.7213   2.7782   2.8522
     2.9098   3.0158   3.0415   3.1469   3.2239   3.2964   3.3805   3.3859
     3.5492   3.6553   3.6930   3.7662   3.8391   3.9345   3.9544   4.0178
     4.0447   4.0642   4.1378   4.1657   4.1829   4.2748   4.2880   4.2931
     4.3619   4.4221   4.4579   4.5531   4.6316   4.6385   4.7064   4.7463
     4.7828   4.9079   4.9079   4.9341   5.0330   5.1513   5.1721   5.2158
     5.2470   5.2778   5.3176   5.3196   5.3692   5.3919   5.4145   5.4245
     5.5359   5.6164   5.6420   5.6799   5.7367   5.8379   5.8450   5.8530
     5.9224   5.9553   6.0443   6.0476   6.0679   6.1234   6.1587   6.1813
     6.2238   6.2672   6.3066   6.3384   6.3513   6.3785   6.4238   6.4302
     6.4598   6.5021   6.5339   6.5789   6.5998   6.6359   6.6738   6.7146
     6.7353   6.7856   6.8171   6.9311   6.9349   6.9678   7.0250   7.0672
     7.0931   7.1080   7.1394   7.1871   7.2214   7.2473   7.3410   7.3553
     7.3614   7.4058   7.4267   7.4608   7.4785   7.4902   7.5370   7.5503
     7.6106   7.6923   7.7281   7.7694   7.7789   7.8321   7.8535   7.8755
     7.9173   7.9524   7.9567   7.9659   8.0382   8.0806   8.1529   8.1658
     8.2216   8.2406   8.2632   8.3120   8.3285   8.3344   8.3551   8.4010
     8.4225   8.4475   8.4844   8.5153   8.5771   8.6176   8.6184   8.6577
     8.7270   8.7342   8.7930   8.8163   8.8624   8.8662   8.9142   8.9673
     9.0031   9.0549   9.0576   9.0771   9.1477   9.1797   9.1889   9.2205
     9.2244   9.2577   9.2587   9.3445   9.3569   9.4106   9.4355   9.5185
     9.5293   9.5535   9.5608   9.5935   9.6117   9.6176   9.6331   9.6834
     9.7156   9.7324   9.7875   9.7924   9.7945   9.8286   9.9029   9.9384
     9.9874  10.0019  10.0819  10.1221  10.1443  10.1939  10.2204  10.2395
    10.3160  10.3484  10.3597  10.4154  10.4286  10.4389  10.4801  10.5220
    10.5399  10.5853  10.6190  10.6568  10.6717  10.6929  10.7148  10.7653
    10.7755  10.7834  10.8460  10.8672  10.8977  10.9471  10.9690  11.0178
    11.0408  11.0568  11.1240  11.1272  11.1564  11.1791  11.2489  11.2532
    11.2662  11.2740  11.3049  11.3457  11.3532  11.3686  11.4135  11.4362
    11.4464  11.4886  11.4970  11.5103  11.5374  11.5851  11.6001  11.6139
    11.6300  11.6308  11.6572  11.6874  11.6972  11.7353  11.7551  11.7771
    11.8245  11.8408  11.8716  11.9098  11.9331  11.9622  12.0004  12.0154
    12.0517  12.0916  12.1399  12.1424  12.1788  12.2420  12.2691  12.2969
    12.3501  12.3606  12.4042  12.4177  12.4487  12.5070  12.5548  12.5778
    12.5864  12.6435  12.6492  12.6694  12.7099  12.7398  12.7590  12.8828
    12.8854  12.9302  12.9536  13.0121  13.0167  13.0652  13.0875  13.1601
    13.1884  13.1908  13.2481  13.3088  13.3427  13.3551  13.3682  13.4105
    13.4124  13.4865  13.5012  13.5247  13.5431  13.5712  13.6063  13.6244
    13.6259  13.6727  13.6830  13.6928  13.7059  13.7623  13.7813  13.7858
    13.8169  13.8295  13.8448  13.9011  13.9258  13.9499  13.9635  14.0141
    14.0475  14.0681  14.1209  14.1729  14.2061  14.2137  14.2305  14.2443
    14.2649  14.2738  14.3224  14.3804  14.3805  14.4049  14.4204  14.4576
    14.4594  14.4825  14.5512  14.5804  14.6094  14.6367  14.6616  14.6728
    14.7177  14.7187  14.7797  14.7893  14.8771  14.9501  14.9503  15.0056
    15.0123  15.0461  15.1014  15.1493  15.1773  15.2227  15.2319  15.2376
    15.2510  15.2527  15.3260  15.3453  15.3777  15.3833  15.4055  15.4130
    15.4551  15.5010  15.5189  15.5524

          k = 0.0000 0.0000 0.0305 ( 73610 PWs)   bands (ev):

   -21.0800 -20.7332 -20.4490 -20.3163 -20.0463 -19.8001 -19.5304 -19.0703
   -18.8762 -18.6339 -18.5263 -18.2519 -18.1380 -17.9488 -17.3674 -17.3437
   -16.8888 -16.8562 -16.8007 -16.4912 -16.3878 -16.1967 -16.0706 -15.6173
   -15.4693 -14.7045 -14.3692 -14.1463 -13.9524 -13.9253 -13.8710 -13.7516
   -13.6156 -13.4688 -13.0536 -12.8960 -12.3293 -12.2399 -11.8652 -11.8057
   -11.5415 -11.2711 -11.1974 -11.1587 -11.0249 -10.9189 -10.6847 -10.2354
   -10.1806 -10.1049  -9.8416  -9.7380  -9.6125  -9.4249  -9.2688  -9.1747
    -9.1335  -9.1297  -8.9768  -8.8831  -8.7651  -8.6744  -8.5887  -8.4316
    -8.4170  -8.4076  -8.2377  -8.2145  -8.1131  -8.0334  -7.9532  -7.9249
    -7.8298  -7.7010  -7.6570  -7.6073  -7.4454  -7.3443  -7.3367  -7.2397
    -7.0154  -6.8898  -6.8849  -6.7146  -6.5586  -6.5478  -6.4038  -6.3740
    -6.2147  -5.9827  -5.8835  -5.8410  -5.7263  -5.6469  -5.5888  -5.4964
    -5.1055  -5.0317  -4.6652  -4.5270  -4.4783  -4.1590  -4.0637  -3.8571
    -3.5662  -3.1492  -2.9805  -0.9708  -0.8634  -0.4950  -0.3036  -0.0120
     0.0275   0.3197   0.3595   0.4868   0.9523   1.1292   1.2217   1.3049
     1.3578   1.6495   1.8491   1.8660   2.1293   2.1568   2.1782   2.2470
     2.2498   2.3803   2.4858   2.5133   2.6674   2.7398   2.7967   2.8132
     2.8956   3.0319   3.0546   3.1088   3.1877   3.2312   3.3292   3.4008
     3.5683   3.6416   3.6754   3.7210   3.7864   3.8793   3.9670   3.9738
     4.0297   4.0807   4.1507   4.2046   4.2217   4.2696   4.2987   4.3191
     4.3869   4.4119   4.4689   4.5992   4.6025   4.6456   4.7034   4.7608
     4.7894   4.9116   4.9402   4.9712   5.0073   5.1211   5.2064   5.2213
     5.2477   5.3012   5.3018   5.3499   5.3585   5.3866   5.4237   5.4699
     5.5128   5.6205   5.6752   5.7468   5.7507   5.8191   5.8563   5.9072
     5.9226   5.9554   6.0804   6.1124   6.1344   6.1509   6.1926   6.2151
     6.2294   6.2573   6.3215   6.3345   6.3361   6.3643   6.3878   6.4468
     6.4740   6.5150   6.5814   6.5916   6.6336   6.6396   6.6930   6.7343
     6.7619   6.7920   6.8079   6.9371   6.9422   7.0112   7.0478   7.0686
     7.0914   7.1318   7.1664   7.1883   7.2807   7.3063   7.3378   7.3485
     7.3646   7.3701   7.4144   7.4322   7.4964   7.5101   7.5289   7.5596
     7.6047   7.6628   7.7070   7.7493   7.7826   7.8124   7.8185   7.8643
     7.8700   7.9284   7.9592   7.9795   8.0699   8.0838   8.1134   8.1753
     8.2037   8.2261   8.2399   8.3042   8.3177   8.3435   8.3712   8.3947
     8.4204   8.4434   8.5026   8.5042   8.5647   8.5835   8.5986   8.6197
     8.6609   8.7185   8.7550   8.7921   8.7943   8.8531   8.8981   8.9009
     8.9567   9.0053   9.0477   9.0890   9.0940   9.1261   9.1299   9.1822
     9.1839   9.1942   9.2347   9.3347   9.3482   9.3888   9.4669   9.4720
     9.5049   9.5460   9.5793   9.6034   9.6079   9.6218   9.6478   9.6892
     9.6923   9.7234   9.7457   9.7702   9.8018   9.8168   9.8807   9.9011
     9.9580   9.9685  10.0613  10.1091  10.1171  10.1564  10.2108  10.2716
    10.3005  10.3166  10.3302  10.3539  10.4110  10.4512  10.4719  10.5290
    10.5757  10.5876  10.5928  10.6105  10.6273  10.6608  10.7172  10.7277
    10.7730  10.7949  10.8045  10.8253  10.8649  10.9360  10.9906  11.0223
    11.0497  11.0735  11.1328  11.1512  11.1816  11.2360  11.2464  11.2728
    11.2893  11.2956  11.3106  11.3513  11.3614  11.3862  11.4218  11.4423
    11.4597  11.4999  11.5170  11.5412  11.5716  11.6097  11.6221  11.6370
    11.6453  11.6516  11.6661  11.6875  11.6939  11.7327  11.7667  11.7870
    11.8097  11.8233  11.8930  11.8996  11.9213  11.9926  12.0017  12.0561
    12.1036  12.1183  12.1323  12.1477  12.1648  12.2562  12.2975  12.3050
    12.3380  12.3867  12.4118  12.4219  12.4594  12.5375  12.5692  12.5856
    12.6256  12.6301  12.6588  12.6891  12.7270  12.7603  12.7832  12.8791
    12.9069  12.9223  12.9881  13.0045  13.0392  13.0977  13.1028  13.1329
    13.1708  13.2083  13.2119  13.2472  13.3564  13.4129  13.4374  13.4616
    13.4908  13.5023  13.5084  13.5373  13.5605  13.5903  13.6017  13.6208
    13.6414  13.6541  13.6641  13.6932  13.7481  13.7515  13.7616  13.8467
    13.8477  13.8684  13.8929  13.9342  13.9582  13.9659  13.9715  14.0551
    14.0921  14.1025  14.1345  14.1619  14.2060  14.2141  14.2446  14.2484
    14.2749  14.3054  14.3632  14.3693  14.3817  14.4191  14.4277  14.4405
    14.4441  14.5084  14.5634  14.5801  14.6266  14.6335  14.6925  14.7130
    14.7727  14.7983  14.8155  14.8248  14.9247  14.9512  14.9713  15.0164
    15.0201  15.0594  15.1072  15.1532  15.1833  15.2197  15.2337  15.2378
    15.2517  15.2669  15.3149  15.3417  15.3567  15.3956  15.4089  15.4209
    15.4833  15.4846  15.5186  15.5552

          k = 0.0000 0.0000 0.0329 ( 73596 PWs)   bands (ev):

   -21.0645 -20.7214 -20.4629 -20.3318 -20.0699 -19.8199 -19.5571 -19.0583
   -18.8148 -18.6156 -18.5064 -18.2575 -18.0932 -17.9328 -17.3573 -17.3441
   -16.9410 -16.8360 -16.8135 -16.5325 -16.4062 -16.2306 -16.1209 -15.6297
   -15.5060 -14.6837 -14.3711 -14.1609 -13.9888 -13.8999 -13.7663 -13.6837
   -13.5395 -13.4606 -13.0581 -12.9144 -12.3334 -12.2132 -11.9135 -11.7787
   -11.5016 -11.3086 -11.1860 -11.1490 -11.1126 -10.9031 -10.7022 -10.2168
   -10.1732 -10.0979  -9.8708  -9.7521  -9.6632  -9.4494  -9.3087  -9.2065
    -9.1273  -9.1113  -8.9634  -8.9251  -8.7507  -8.6824  -8.5956  -8.4533
    -8.4153  -8.4055  -8.2647  -8.1909  -8.1121  -8.0390  -7.9811  -7.9249
    -7.8287  -7.6935  -7.6804  -7.6224  -7.3930  -7.3753  -7.2614  -7.1665
    -6.9984  -6.8776  -6.8481  -6.7168  -6.5163  -6.4970  -6.4067  -6.3624
    -6.1928  -5.9843  -5.9023  -5.7984  -5.7582  -5.6220  -5.6093  -5.5273
    -5.0994  -5.0220  -4.6492  -4.5504  -4.4889  -4.1534  -4.1070  -3.8904
[...]
     3.3763   3.4004   3.4775   3.5052   3.5684   3.6743   3.7135   3.8309
     3.9181   3.9289   4.0718   4.1678   4.2275   4.4241   4.4422   4.4691
     4.5583   4.5614   4.6499   4.6673   4.7282   4.7576   4.8041   4.8238
     4.8243   4.8826   4.9533   4.9746   5.0305   5.0838   5.1749   5.2890
     5.3306   5.4429   5.4875   5.5079   5.5332   5.5780   5.6331   5.6600
     5.7458   5.7871   5.8138   5.8341   5.8375   5.9189   5.9523   5.9914
     6.0208   6.0290   6.1085   6.1268   6.1536   6.2253   6.2477   6.2763
     6.2863   6.3663   6.4028   6.4232   6.4864   6.5199   6.5618   6.5757
     6.6249   6.6768   6.7217   6.7368   6.7625   6.7691   6.8535   6.8694
     6.8696   6.8899   6.9178   6.9328   6.9694   7.0278   7.0762   7.1106
     7.1617   7.1644   7.1758   7.2357   7.2436   7.2515   7.2937   7.3549
     7.3646   7.3729   7.4062   7.4419   7.5072   7.5182   7.5953   7.6042
     7.6551   7.6689   7.7133   7.7403   7.7471   7.7966   7.8457   7.8836
     7.8896   7.9071   7.9215   7.9425   7.9525   7.9700   8.0200   8.0273
     8.0727   8.1048   8.1096   8.1455   8.1806   8.1904   8.2274   8.2845
     8.3009   8.3192   8.3434   8.3633   8.3926   8.4279   8.5078   8.5166
     8.5581   8.5741   8.6219   8.6641   8.6663   8.6904   8.7154   8.7397
     8.7800   8.8554   8.8599   8.8959   8.9021   8.9505   8.9901   9.0009
     9.0672   9.0831   9.1242   9.1829   9.2079   9.2278   9.2962   9.3011
     9.3251   9.3405   9.3741   9.4154   9.4672   9.5274   9.5321   9.5905
     9.5913   9.6317   9.6520   9.7298   9.7681   9.7688   9.8160   9.8613
     9.8639   9.9145   9.9523   9.9647  10.0241  10.0257  10.0764  10.1037
    10.1560  10.1877  10.2182  10.2235  10.2635  10.2761  10.3533  10.3603
    10.3776  10.4393  10.4787  10.4870  10.5066  10.5841  10.6406  10.6409
    10.6890  10.7650  10.8265  10.9015  10.9542  10.9599  11.0812  11.0842
    11.1063  11.1603  11.1912  11.2299  11.2473  11.2552  11.2604  11.3406
    11.3518  11.3753  11.4113  11.4222  11.4956  11.5108  11.5150  11.5341
    11.5551  11.5681  11.5954  11.6239  11.6350  11.6635  11.7213  11.7260
    11.7581  11.7716  11.7833  11.8027  11.8276  11.8595  11.8774  11.8978
    11.9253  11.9580  11.9728  11.9805  12.0193  12.0369  12.0597  12.0827
    12.1421  12.1554  12.1906  12.2065  12.2170  12.2492  12.2594  12.3173
    12.3393  12.3634  12.3872  12.4123  12.4540  12.4953  12.5259  12.5785
    12.6463  12.6966  12.7041  12.7685  12.7837  12.8316  12.8677  12.8859
    12.9293  12.9530  13.0206  13.0464  13.0628  13.0965  13.1353  13.1490
    13.1965  13.2321  13.2385  13.3426  13.3625  13.3918  13.4307  13.4912
    13.5375  13.5517  13.5928  13.6043  13.6522  13.6803  13.7212  13.7601
    13.7746  13.8027  13.8187  13.8809  13.9209  13.9465  14.0041  14.0119
    14.0443  14.0800  14.0842  14.0926  14.1625  14.1793  14.2263  14.2679
    14.2815  14.2973  14.3297  14.3735  14.3738  14.3990  14.4574  14.4676
    14.4724  14.5175  14.5933  14.6214  14.6478  14.6740  14.7083  14.7130
    14.7520  14.7646  14.7952  14.8050  14.8105  14.8421  14.8625  14.8818
    14.8963  14.9598  14.9635  15.0256  15.0370  15.0533  15.0641  15.0941
    15.1314  15.2047  15.2287  15.2327  15.2441  15.2613  15.2953  15.3166
    15.3417  15.3478  15.3645  15.3725  15.3772  15.3976  15.4097  15.4617
    15.5232  15.5433  15.5521  15.5875

          k = 0.0000 0.0000 0.0540 ( 73714 PWs)   bands (ev):

   -20.8828 -20.7492 -20.5947 -20.3055 -20.2319 -19.9570 -19.6764 -18.9646
   -18.7098 -18.4788 -18.2821 -18.0438 -17.7466 -17.6414 -17.6073 -17.3403
   -17.2231 -17.1786 -16.9276 -16.7490 -16.3803 -16.3513 -16.0842 -15.9193
   -15.6975 -14.6328 -14.2728 -14.2024 -14.1320 -13.9212 -13.6387 -13.2406
   -13.1638 -12.7933 -12.7384 -12.6682 -12.5058 -12.3457 -12.2309 -12.0192
   -11.8291 -11.5057 -11.2883 -11.1234 -10.7839 -10.6724 -10.5553 -10.5027
   -10.3085 -10.1426  -9.9943  -9.8186  -9.7204  -9.6764  -9.5251  -9.3853
    -9.1136  -9.0135  -8.9776  -8.8967  -8.7833  -8.7387  -8.6704  -8.5905
    -8.4698  -8.3773  -8.2666  -8.1746  -8.1607  -8.1397  -8.0292  -7.9176
    -7.8455  -7.8168  -7.7185  -7.5119  -7.4208  -7.1767  -7.0277  -6.9503
    -6.7733  -6.6779  -6.5435  -6.4959  -6.4744  -6.3247  -6.2721  -6.2284
    -6.1453  -6.0539  -5.9291  -5.9082  -5.8622  -5.6751  -5.4210  -5.2805
    -5.1956  -4.9862  -4.8708  -4.7422  -4.4900  -4.4440  -4.1360  -4.0380
    -3.7563  -3.4875  -3.3826  -0.7936  -0.5790  -0.4250  -0.0625  -0.0280
     0.3778   0.5883   0.8394   0.9303   1.0597   1.3547   1.4440   1.4620
     1.4828   1.5162   1.5904   1.6694   1.7477   1.8174   1.9291   1.9912
     1.9998   2.1111   2.2700   2.4273   2.6133   2.6611   2.6725   2.8278
     2.9711   2.9899   3.0293   3.1304   3.1837   3.2365   3.2699   3.3518
     3.3594   3.3619   3.4703   3.5062   3.5285   3.6724   3.7073   3.8565
     3.8839   3.9647   4.0312   4.1246   4.2619   4.4203   4.4580   4.4841
     4.5762   4.5837   4.6205   4.6539   4.7282   4.7483   4.7955   4.8023
     4.8259   4.8730   4.9884   4.9967   5.0372   5.1245   5.1946   5.3154
     5.3256   5.4133   5.4643   5.4998   5.5383   5.6354   5.6532   5.7203
     5.7430   5.7482   5.8097   5.8162   5.8648   5.9413   5.9627   5.9774
     6.0306   6.0347   6.1156   6.1314   6.1369   6.1919   6.2688   6.2751
     6.3424   6.3841   6.4136   6.4401   6.4698   6.4939   6.5575   6.5891
     6.6004   6.6614   6.6876   6.7438   6.7702   6.8041   6.8180   6.8245
     6.8957   6.9130   6.9298   6.9382   6.9982   7.0123   7.1059   7.1062
     7.1388   7.1601   7.2259   7.2562   7.2608   7.2757   7.3217   7.3415
     7.3624   7.3787   7.4267   7.4447   7.5164   7.5506   7.6058   7.6389
     7.6531   7.6537   7.6939   7.7131   7.7200   7.7742   7.7971   7.8248
     7.8647   7.8757   7.9106   7.9315   7.9508   7.9731   8.0161   8.0178
     8.0651   8.1160   8.1161   8.1492   8.1577   8.2358   8.2489   8.2602
     8.2877   8.2986   8.3701   8.3761   8.4280   8.4572   8.5004   8.5069
     8.5464   8.5861   8.5997   8.6526   8.6803   8.6820   8.6962   8.7124
     8.8137   8.8232   8.8552   8.8727   8.8828   8.9075   8.9637   9.0165
     9.0657   9.1099   9.1379   9.1400   9.1834   9.2209   9.2475   9.2717
     9.3307   9.3626   9.3947   9.3980   9.5072   9.5214   9.5531   9.5661
     9.5750   9.6267   9.6273   9.7142   9.7651   9.7793   9.8370   9.8411
     9.8764   9.9214   9.9451   9.9687  10.0115  10.0350  10.0525  10.0685
    10.1182  10.1599  10.1986  10.2290  10.2389  10.2974  10.3515  10.3732
    10.3815  10.4513  10.4624  10.4759  10.5269  10.5933  10.6171  10.6208
    10.7044  10.7276  10.8278  10.8892  10.9668  11.0003  11.0273  11.0796
    11.1369  11.1813  11.2050  11.2521  11.2526  11.2770  11.2807  11.3401
    11.3694  11.3840  11.3974  11.4072  11.4535  11.4887  11.5153  11.5383
    11.5531  11.5973  11.6000  11.6522  11.6628  11.6997  11.7329  11.7473
    11.7697  11.7865  11.8071  11.8100  11.8200  11.8290  11.8688  11.9008
    11.9195  11.9667  11.9757  11.9778  12.0194  12.0425  12.0630  12.1007
    12.1284  12.1308  12.1576  12.1854  12.1943  12.2501  12.2806  12.2960
    12.3189  12.3690  12.4206  12.4340  12.4709  12.4949  12.5251  12.5648
    12.6613  12.6694  12.6973  12.7716  12.7780  12.8285  12.8400  12.8865
    12.9290  12.9486  13.0216  13.0342  13.0615  13.0846  13.1190  13.1421
    13.1934  13.1964  13.2004  13.3332  13.3736  13.4121  13.4729  13.5001
    13.5688  13.5729  13.5906  13.5924  13.6802  13.7192  13.7491  13.7890
    13.7997  13.8493  13.8639  13.9104  13.9666  13.9709  13.9845  14.0174
    14.0208  14.0816  14.0918  14.1178  14.1633  14.1977  14.2311  14.2470
    14.2892  14.3072  14.3308  14.3581  14.3985  14.4202  14.4351  14.4691
    14.4827  14.5388  14.6163  14.6548  14.6708  14.6898  14.7107  14.7287
    14.7613  14.7844  14.7901  14.8023  14.8074  14.8571  14.8610  14.8790
    14.9131  14.9687  14.9752  15.0218  15.0243  15.0386  15.0501  15.0885
    15.1779  15.1863  15.2076  15.2212  15.2536  15.2779  15.2937  15.3224
    15.3333  15.3625  15.3683  15.4005  15.4102  15.4247  15.4413  15.4622
    15.5125  15.5308  15.5600  15.5942

          k = 0.0000 0.0000 0.0563 ( 73732 PWs)   bands (ev):

   -20.8639 -20.7702 -20.5905 -20.3082 -20.2327 -19.9629 -19.6788 -18.9605
   -18.7133 -18.4802 -18.2751 -17.9732 -17.8199 -17.6011 -17.5969 -17.3613
   -17.2398 -17.1599 -16.9640 -16.7593 -16.3652 -16.3390 -16.0878 -15.9329
   -15.7051 -14.6335 -14.2763 -14.2081 -14.0936 -13.9609 -13.6278 -13.2471
   -13.1579 -12.7463 -12.6603 -12.6082 -12.5216 -12.3824 -12.3412 -12.0168
   -11.8446 -11.5075 -11.2591 -11.1410 -10.7858 -10.6484 -10.5598 -10.4829
   -10.3183 -10.1661  -9.9920  -9.8346  -9.7362  -9.6612  -9.5499  -9.3478
    -9.1092  -9.0493  -8.9818  -8.8750  -8.7849  -8.7615  -8.6515  -8.5865
    -8.4774  -8.3823  -8.2708  -8.1760  -8.1607  -8.1124  -8.0548  -7.9236
    -7.8526  -7.8137  -7.7172  -7.5145  -7.3825  -7.2135  -7.0151  -6.9517
    -6.7686  -6.6368  -6.5669  -6.5000  -6.4145  -6.2856  -6.2802  -6.2764
    -6.1618  -6.0430  -5.9230  -5.9184  -5.8936  -5.6016  -5.4578  -5.3054
    -5.1412  -5.0084  -4.8998  -4.6960  -4.5068  -4.4938  -4.1350  -4.0146
    -3.7559  -3.5056  -3.3937  -0.7906  -0.5701  -0.4149  -0.0657  -0.0464
     0.3861   0.6557   0.8066   0.9089   1.1559   1.3373   1.3796   1.4484
     1.5513   1.5864   1.6272   1.6287   1.7061   1.8184   1.8270   1.9852
     1.9925   2.1067   2.2584   2.4368   2.5939   2.6756   2.7080   2.7864
     2.9875   3.0001   3.0544   3.1552   3.1618   3.2090   3.2835   3.3260
     3.3447   3.3959   3.4429   3.4803   3.5455   3.6347   3.7402   3.8331
     3.9019   3.9942   4.0019   4.0829   4.2960   4.3839   4.4905   4.5149
     4.5695   4.5816   4.6119   4.6563   4.7178   4.7394   4.7773   4.7965
     4.8391   4.8639   4.9855   5.0170   5.0511   5.1638   5.2169   5.3336
     5.3406   5.3858   5.4257   5.4698   5.5635   5.6656   5.6754   5.7177
     5.7392   5.7555   5.8026   5.8348   5.8911   5.9364   5.9486   6.0292
     6.0306   6.0512   6.0539   6.1268   6.1485   6.1717   6.2374   6.2684
     6.3696   6.4208   6.4410   6.4592   6.5021   6.5103   6.5524   6.5752
     6.6144   6.6315   6.6458   6.6723   6.7429   6.7751   6.8210   6.8316
     6.9248   6.9397   6.9633   6.9953   7.0086   7.0383   7.0598   7.0827
     7.1459   7.1573   7.2056   7.2389   7.2641   7.3246   7.3422   7.3453
     7.4039   7.4068   7.4422   7.4683   7.5312   7.5685   7.5872   7.6329
     7.6381   7.6518   7.6642   7.6822   7.7010   7.7526   7.7816   7.8136
     7.8454   7.8502   7.8847   7.9102   7.9598   7.9946   8.0176   8.0211
     8.0664   8.0764   8.0967   8.1569   8.1888   8.2383   8.2396   8.2649
     8.3129   8.3135   8.3777   8.4071   8.4182   8.4883   8.4889   8.5181
     8.5453   8.5534   8.5866   8.6445   8.6608   8.6771   8.6987   8.7182
     8.8021   8.8131   8.8355   8.8592   8.8830   8.9214   8.9855   9.0268
     9.0423   9.0528   9.1186   9.1248   9.1881   9.1891   9.2415   9.3142
     9.3628   9.3651   9.3807   9.4129   9.4781   9.4916   9.5327   9.5407
     9.6081   9.6084   9.6757   9.7244   9.7914   9.7925   9.8213   9.8387
     9.8751   9.8859   9.9616   9.9763  10.0005  10.0017  10.0271  10.0424
    10.1074  10.1469  10.1932  10.2313  10.2580  10.3140  10.3476  10.3707
    10.3781  10.4219  10.4574  10.4740  10.5604  10.5763  10.5993  10.6380
    10.7168  10.7359  10.8285  10.8663  10.9157  10.9764  11.0748  11.1034
    11.1661  11.1935  11.2324  11.2447  11.2455  11.2790  11.3043  11.3358
    11.3359  11.3611  11.3755  11.4515  11.4590  11.4683  11.5077  11.5458
    11.5630  11.6032  11.6166  11.6817  11.6943  11.7188  11.7303  11.7397
    11.7689  11.7745  11.7922  11.8160  11.8250  11.8664  11.8675  11.9123
    11.9139  11.9595  11.9616  11.9885  12.0331  12.0394  12.0843  12.1014
    12.1020  12.1172  12.1368  12.1640  12.1658  12.2454  12.2514  12.2839
    12.3283  12.3906  12.4494  12.4650  12.4827  12.5057  12.5262  12.5648
    12.6367  12.6658  12.6871  12.7451  12.7766  12.8224  12.8563  12.9116
    12.9131  12.9439  12.9867  13.0264  13.0501  13.1060  13.1065  13.1213
    13.1629  13.1774  13.2161  13.3301  13.3810  13.4398  13.4995  13.5090
    13.5634  13.5789  13.5880  13.5908  13.7025  13.7309  13.7607  13.8044
    13.8483  13.8795  13.9282  13.9379  13.9575  13.9706  13.9948  14.0136
    14.0237  14.0745  14.1203  14.1277  14.1333  14.1868  14.2334  14.2520
    14.2953  14.3112  14.3206  14.3837  14.4048  14.4103  14.4274  14.4506
    14.4918  14.5735  14.6525  14.6597  14.6706  14.6952  14.7166  14.7253
    14.7723  14.7744  14.7960  14.8052  14.8060  14.8530  14.8784  14.8963
    14.9282  14.9800  14.9856  15.0014  15.0205  15.0284  15.0741  15.0946
    15.1412  15.1757  15.1877  15.1882  15.2473  15.2634  15.3064  15.3218
    15.3625  15.3924  15.3961  15.3978  15.4189  15.4407  15.4487  15.4588
    15.5175  15.5307  15.5447  15.5817

          k = 0.0000 0.0000-0.0587 ( 73736 PWs)   bands (ev):

   -20.8552 -20.7796 -20.5890 -20.3093 -20.2328 -19.9649 -19.6795 -18.9591
   -18.7145 -18.4807 -18.2730 -17.9109 -17.8837 -17.5966 -17.5796 -17.3743
   -17.2440 -17.1500 -16.9796 -16.7625 -16.3627 -16.3313 -16.0902 -15.9371
   -15.7077 -14.6337 -14.2775 -14.2100 -14.0735 -13.9815 -13.6239 -13.2495
   -13.1560 -12.7244 -12.6299 -12.6027 -12.4581 -12.4394 -12.3982 -12.0157
   -11.8498 -11.5080 -11.2467 -11.1490 -10.7906 -10.6077 -10.6024 -10.4551
   -10.3335 -10.1697  -9.9930  -9.8389  -9.7431  -9.6529  -9.5603  -9.3331
    -9.1053  -9.0662  -8.9828  -8.8653  -8.7854  -8.7717  -8.6445  -8.5849
    -8.4808  -8.3838  -8.2725  -8.1771  -8.1605  -8.0853  -8.0809  -7.9257
    -7.8551  -7.8125  -7.7169  -7.5154  -7.3647  -7.2310  -7.0104  -6.9526
    -6.7670  -6.6055  -6.5933  -6.5014  -6.3696  -6.3263  -6.2779  -6.2601
    -6.1778  -6.0331  -5.9212  -5.9212  -5.9079  -5.5478  -5.5016  -5.3128
    -5.1054  -5.0328  -4.9101  -4.6678  -4.5393  -4.4950  -4.1347  -4.0059
    -3.7563  -3.5117  -3.3975  -0.7896  -0.5673  -0.4110  -0.0676  -0.0520
     0.3889   0.6925   0.7819   0.9005   1.2451   1.2636   1.3610   1.4497
     1.5848   1.5931   1.6644   1.6676   1.6965   1.7067   1.8306   1.9821
     1.9923   2.1059   2.2539   2.4413   2.5861   2.6805   2.7429   2.7497
     2.9940   3.0038   3.0652   3.1534   3.1664   3.1955   3.2916   3.3103
     3.3432   3.4238   3.4315   3.4512   3.5657   3.6124   3.7604   3.8121
     3.9208   3.9730   4.0344   4.0490   4.3183   4.3606   4.5093   4.5428
     4.5474   4.5643   4.6194   4.6638   4.7090   4.7341   4.7718   4.7946
     4.8508   4.8551   4.9815   5.0238   5.0577   5.1779   5.2298   5.3401
     5.3657   5.3731   5.3906   5.4590   5.5743   5.6696   5.6965   5.7051
     5.7375   5.7427   5.7981   5.8915   5.9166   5.9199   5.9425   5.9854
     6.0274   6.0318   6.1051   6.1378   6.1566   6.1701   6.1849   6.2665
     6.3544   6.4254   6.4909   6.5103   6.5139   6.5446   6.5529   6.5573
     6.5796   6.5869   6.6396   6.6749   6.6853   6.7770   6.8272   6.8310
     6.9424   6.9495   6.9919   7.0178   7.0192   7.0447   7.0538   7.0726
     7.1149   7.1472   7.2054   7.2255   7.2642   7.3519   7.3522   7.3552
     7.3670   7.4800   7.4828   7.4905   7.5043   7.5571   7.6003   7.6036
     7.6082   7.6196   7.6404   7.6901   7.7433   7.7438   7.7762   7.8166
     7.8289   7.8418   7.8491   7.9286   7.9506   8.0036   8.0329   8.0402
     8.0491   8.0526   8.1073   8.1287   8.2051   8.2115   8.2376   8.3167
     8.3334   8.3340   8.3577   8.3906   8.4386   8.4557   8.4739   8.5281
     8.5609   8.5838   8.6006   8.6284   8.6506   8.6577   8.6691   8.7224
     8.7862   8.8074   8.8447   8.8886   8.9163   8.9198   8.9335   9.0417
     9.0488   9.0723   9.0771   9.0876   9.1636   9.1944   9.2786   9.3312
     9.3778   9.3837   9.3903   9.4081   9.4085   9.4941   9.5245   9.5292
     9.6016   9.6200   9.7148   9.7552   9.7751   9.8011   9.8088   9.8416
     9.8559   9.8826   9.9493   9.9911   9.9981  10.0050  10.0124  10.0168
    10.1070  10.1392  10.1910  10.2313  10.3163  10.3169  10.3211  10.3458
    10.3696  10.4296  10.4512  10.4736  10.5686  10.5903  10.5926  10.6165
    10.7216  10.8046  10.8140  10.8287  10.8779  10.9800  11.0726  11.1453
    11.2011  11.2024  11.2052  11.2335  11.2571  11.2680  11.3130  11.3261
    11.3360  11.3521  11.3527  11.4546  11.4786  11.4803  11.4942  11.5485
    11.5738  11.6049  11.6153  11.6945  11.7088  11.7139  11.7413  11.7515
    11.7576  11.7596  11.7818  11.8168  11.8196  11.8623  11.9073  11.9219
    11.9263  11.9339  11.9480  11.9888  12.0343  12.0598  12.0911  12.0983
    12.1004  12.1060  12.1165  12.1616  12.1778  12.1910  12.2517  12.2797
    12.3593  12.3848  12.4544  12.4689  12.4883  12.5279  12.5383  12.5764
    12.6180  12.6518  12.6598  12.7430  12.7789  12.8467  12.8579  12.8974
    12.9399  12.9407  12.9480  13.0166  13.0554  13.1045  13.1087  13.1232
    13.1441  13.1710  13.2239  13.3296  13.3839  13.4542  13.5127  13.5155
    13.5408  13.5780  13.5888  13.5973  13.7138  13.7254  13.7818  13.7977
    13.8814  13.9014  13.9228  13.9338  13.9706  13.9988  13.9999  14.0123
    14.0226  14.0313  14.0987  14.1364  14.1740  14.1877  14.2233  14.2521
    14.2902  14.3209  14.3267  14.3884  14.3929  14.4073  14.4242  14.4479
    14.4934  14.5932  14.6359  14.6639  14.6803  14.7007  14.7198  14.7393
    14.7631  14.7682  14.7925  14.8095  14.8163  14.8505  14.8749  14.8810
    14.9688  14.9851  14.9956  15.0066  15.0179  15.0440  15.0589  15.0891
    15.1288  15.1614  15.1738  15.1800  15.2129  15.2752  15.3029  15.3307
    15.3764  15.3836  15.4029  15.4178  15.4272  15.4446  15.4534  15.4924
    15.5086  15.5134  15.5376  15.5524

     the Fermi energy is    -2.4280 ev

     Writing output data file ANTI14-4-6_1.save/

     init_run     :      9.88s CPU     10.08s WALL (       1 calls)
     electrons    :   6875.41s CPU   6913.59s WALL (       1 calls)

     Called by init_run:
     wfcinit      :      0.00s CPU      0.00s WALL (       1 calls)
     potinit      :      0.71s CPU      0.78s WALL (       1 calls)
     hinit0       :      7.49s CPU      7.52s WALL (       1 calls)

     Called by electrons:
     c_bands      :   6875.21s CPU   6913.36s WALL (       1 calls)
     v_of_rho     :      0.55s CPU      0.58s WALL (       1 calls)
     newd         :      0.46s CPU      0.54s WALL (       1 calls)

     Called by c_bands:
     init_us_2    :      0.40s CPU      0.41s WALL (      26 calls)
     cegterg      :   6767.07s CPU   6802.08s WALL (     131 calls)

     Called by sum_band:

     Called by *egterg:
     h_psi        :   1458.41s CPU   1472.29s WALL (    2627 calls)
     s_psi        :    144.55s CPU    144.74s WALL (    2627 calls)
     g_psi        :      8.20s CPU      8.21s WALL (    2470 calls)
     cdiaghg      :   3441.27s CPU   3443.22s WALL (    2496 calls)

     Called by h_psi:
     h_psi:pot    :   1451.58s CPU   1461.88s WALL (    2627 calls)
     h_psi:calbec :    155.44s CPU    156.95s WALL (    2627 calls)
     vloc_psi     :   1151.25s CPU   1159.92s WALL (    2627 calls)
     add_vuspsi   :    144.85s CPU    144.99s WALL (    2627 calls)

     General routines
     calbec       :    155.43s CPU    156.94s WALL (    2627 calls)
     fft          :      0.61s CPU      0.65s WALL (      14 calls)
     ffts         :      0.01s CPU      0.01s WALL (       1 calls)
     fftw         :   1052.03s CPU   1060.14s WALL (  595532 calls)
     interpolate  :      0.04s CPU      0.05s WALL (       1 calls)
     davcio       :      0.01s CPU      2.16s WALL (      52 calls)

     Parallel routines
     fft_scatt_xy :    123.30s CPU    124.14s WALL (  595547 calls)
     fft_scatt_yz :    529.26s CPU    534.32s WALL (  595547 calls)

     PWSCF        :     1h54m CPU       54h 1m WALL

      58h

   This run was terminated on:  13:34:10  22Apr2021            

=------------------------------------------------------------------------------=
   JOB DONE.
=------------------------------------------------------------------------------=
