
     Program PWSCF v.6.3 starts on 22Apr2021 at 14:22:55 

     This program is part of the open-source Quantum ESPRESSO suite
     for quantum simulation of materials; please cite
         "P. Giannozzi et al., J. Phys.:Condens. Matter 21 395502 (2009);
         "P. Giannozzi et al., J. Phys.:Condens. Matter 29 465901 (2017);
          URL http://www.quantum-espresso.org", 
     in publications or presentations arising from this work. More details at
     http://www.quantum-espresso.org/quote

     Parallel version (MPI), running on    16 processors
     R & G space division:  proc/nbgrp/npool/nimage =      16
     Waiting for input...
     Reading input from standard input
     Message from routine read_cards :
     DEPRECATED: no units specified in CELL_PARAMETERS card

     Current dimensions of program PWSCF are:
     Max number of different atomic species (ntypx) = 10
     Max number of k-points (npk) =  40000
     Max angular momentum in pseudopotentials (lmaxx) =  3

     Atomic positions and unit cell read from directory:
     /home/zfwang/scratch/GNRDATASET/AGNR/ANTI14-6-6_1/ANTI14-6-6_1.save/


     Subspace diagonalization in iterative solution of the eigenvalue problem:
     a serial algorithm will be used


     Parallelization info
     --------------------
     sticks:   dense  smooth     PW     G-vecs:    dense   smooth      PW
     Min        2556     852    221               287136    55262    7339
     Max        2558     854    222               287139    55263    7342
     Sum       40909   13645   3551              4594185   884201  117443



     bravais-lattice index     =            0
     lattice parameter (alat)  =       1.8897  a.u.
     unit-cell volume          =   25873.1145 (a.u.)^3
     number of atoms/cell      =           96
     number of atomic types    =            2
     number of electrons       =       330.00
     number of Kohn-Sham states=          500
     kinetic-energy cutoff     =      40.0000  Ry
     charge density cutoff     =     480.0000  Ry
     Exchange-correlation      = PBE ( 1  4  3  4 0 0)

     celldm(1)=  18.897261  celldm(2)=   3.000000  celldm(3)=   1.278000
     celldm(4)=   0.000000  celldm(5)=   0.000000  celldm(6)=   0.000000

     crystal axes: (cart. coord. in units of alat)
               a(1) = (  10.000000   0.000000   0.000000 )  
               a(2) = (   0.000000  30.000000   0.000000 )  
               a(3) = (   0.000000   0.000000  12.780000 )  

     reciprocal axes: (cart. coord. in units 2 pi/alat)
               b(1) = (  0.100000  0.000000  0.000000 )  
               b(2) = (  0.000000  0.033333  0.000000 )  
               b(3) = (  0.000000  0.000000  0.078247 )  


     PseudoPot. # 1 for C  read from file:
     /home/zfwang/hp_home/MySoftware/qe-6.3/pseudo/C.pbe-n-rrkjus_psl.0.1.UPF
     MD5 check sum: fff530ed632a789b3b184014e67dd7f1
     Pseudo is Ultrasoft + core correction, Zval =  4.0
     Generated using "atomic" code by A. Dal Corso v.5.0.2 svn rev. 9415
     Using radial grid of 1073 points,  4 beta functions with: 
                l(1) =   0
                l(2) =   0
                l(3) =   1
                l(4) =   1
     Q(r) pseudized with 0 coefficients 


     PseudoPot. # 2 for H  read from file:
     /home/zfwang/hp_home/MySoftware/qe-6.3/pseudo/H.pbe-rrkjus_psl.0.1.UPF
     MD5 check sum: e164a6907b691c6980f16942be34de84
     Pseudo is Ultrasoft, Zval =  1.0
     Generated using "atomic" code by A. Dal Corso v.5.0.2 svn rev. 9415
     Using radial grid of  929 points,  2 beta functions with: 
                l(1) =   0
                l(2) =   0
     Q(r) pseudized with 0 coefficients 


     atomic species   valence    mass     pseudopotential
        C              4.00    12.01070     C ( 1.00)
        H              1.00     1.00794     H ( 1.00)

     No symmetry found



   Cartesian axes

     site n.     atom                  positions (alat units)
         1           C   tau(   1) = (   5.0000001   6.9923882   2.8120323  )
         2           C   tau(   2) = (   5.0000001   6.9867376   7.0734285  )
         3           C   tau(   3) = (   4.9999997   6.9952351  11.3357949  )
         4           C   tau(   4) = (   4.9999997   8.1968474   3.5416971  )
         5           C   tau(   5) = (   4.9999998   8.1934609   7.8034353  )
         6           C   tau(   6) = (   4.9999997   8.2016046  12.0632464  )
         7           C   tau(   7) = (   5.0000000   6.9952333   1.4442021  )
         8           C   tau(   8) = (   5.0000001   6.9867379   5.7065729  )
         9           C   tau(   9) = (   5.0000000   6.9923897   9.9679677  )
        10           C   tau(  10) = (   4.9999992   9.4265912   2.8389975  )
        11           C   tau(  11) = (   4.9999996   9.4202926   7.1016673  )
        12           C   tau(  12) = (   4.9999998   9.4308530  11.3608098  )
        13           C   tau(  13) = (   4.9999990  10.6670248   3.5497071  )
        14           C   tau(  14) = (   4.9999994  10.6589369   7.8149609  )
        15           C   tau(  15) = (   5.0000000  10.6731264  12.0715864  )
        16           C   tau(  16) = (   4.9999996   8.2016038   0.7167524  )
        17           C   tau(  17) = (   4.9999999   8.1934608   4.9765653  )
        18           C   tau(  18) = (   4.9999996   8.1968488   9.2383032  )
        19           C   tau(  19) = (   4.9999994   9.4308503   1.4191913  )
        20           C   tau(  20) = (   4.9999998   9.4202943   5.6783296  )
        21           C   tau(  21) = (   4.9999994   9.4265924   9.9410041  )
        22           C   tau(  22) = (   4.9999991  11.8978935   2.8391750  )
        23           C   tau(  23) = (   5.0000001  11.8923097   7.1146983  )
        24           C   tau(  24) = (   5.0000004  11.9020584  11.3663305  )
        25           C   tau(  25) = (   4.9999993  13.1248095   3.5534968  )
        26           C   tau(  26) = (   5.0000007  13.0804311   7.8367319  )
        27           C   tau(  27) = (   5.0000005  13.1378748  12.0725986  )
        28           C   tau(  28) = (   4.9999995  10.6731259   0.7084195  )
        29           C   tau(  29) = (   4.9999995  10.6589374   4.9650359  )
        30           C   tau(  30) = (   4.9999994  10.6670254   9.2302908  )
        31           C   tau(  31) = (   4.9999996  11.9020563   1.4136736  )
        32           C   tau(  32) = (   4.9999999  11.8923097   5.6652970  )
        33           C   tau(  33) = (   5.0000000  11.8978940   9.9408272  )
        34           C   tau(  34) = (   4.9999996  14.3896343   2.8351084  )
        35           C   tau(  35) = (   5.0000006  14.3808234  11.3647944  )
        36           C   tau(  36) = (   4.9999994  15.6168598   3.4962309  )
        37           C   tau(  37) = (   5.0000004  15.6171347  12.0664102  )
        38           C   tau(  38) = (   5.0000001  13.1378731   0.7074064  )
        39           C   tau(  39) = (   4.9999998  13.0804310   4.9432655  )
        40           C   tau(  40) = (   5.0000006  13.1248122   9.2265025  )
        41           C   tau(  41) = (   5.0000000  14.3808198   1.4152096  )
        42           C   tau(  42) = (   5.0000010  14.3896394   9.9448933  )
        43           C   tau(  43) = (   4.9999998  16.8470636   2.8354950  )
        44           C   tau(  44) = (   5.0000000  16.8546789  11.3647158  )
        45           C   tau(  45) = (   4.9999997  18.1090909   3.5521536  )
        46           C   tau(  46) = (   5.0000001  18.1548888   7.8375761  )
        47           C   tau(  47) = (   4.9999992  18.0957996  12.0722099  )
        48           C   tau(  48) = (   4.9999999  15.6171315   0.7135933  )
        49           C   tau(  49) = (   5.0000011  15.6168642   9.2837679  )
        50           C   tau(  50) = (   4.9999994  16.8546772   1.4152854  )
        51           C   tau(  51) = (   5.0000006  16.8470678   9.9445055  )
        52           C   tau(  52) = (   4.9999993  19.3365407   2.8345025  )
        53           C   tau(  53) = (   5.0000003  19.3405259   7.1115076  )
        54           C   tau(  54) = (   4.9999991  19.3309999  11.3628589  )
        55           C   tau(  55) = (   4.9999995  20.5737337   3.5461153  )
        56           C   tau(  56) = (   5.0000009  20.5823081   7.8125095  )
        57           C   tau(  57) = (   4.9999987  20.5676086  12.0691992  )
        58           C   tau(  58) = (   4.9999992  18.0957981   0.7077903  )
        59           C   tau(  59) = (   4.9999998  18.1548889   4.9424239  )
        60           C   tau(  60) = (   5.0000006  18.1090924   9.2278457  )
        61           C   tau(  61) = (   4.9999993  19.3309997   1.4171399  )
        62           C   tau(  62) = (   4.9999999  19.3405246   5.6684906  )
        63           C   tau(  63) = (   5.0000003  19.3365414   9.9454974  )
        64           C   tau(  64) = (   4.9999997  21.8076755   2.8410632  )
        65           C   tau(  65) = (   5.0000009  21.8138293   7.1066405  )
        66           C   tau(  66) = (   4.9999993  21.8026694  11.3663398  )
        67           C   tau(  67) = (   5.0000013  23.0124156   3.5719108  )
        68           C   tau(  68) = (   5.0000007  23.0156286   7.8393036  )
        69           C   tau(  69) = (   4.9999996  23.0086699  12.0971872  )
        70           C   tau(  70) = (   4.9999990  20.5676084   0.7107999  )
        71           C   tau(  71) = (   4.9999999  20.5823085   4.9674887  )
        72           C   tau(  72) = (   5.0000006  20.5737339   9.2338817  )
        73           C   tau(  73) = (   4.9999991  21.8026689   1.4136586  )
        74           C   tau(  74) = (   5.0000007  21.8138284   5.6733547  )
        75           C   tau(  75) = (   4.9999999  21.8076769   9.9389355  )
        76           C   tau(  76) = (   4.9999992  23.0086693   0.6828112  )
        77           C   tau(  77) = (   5.0000016  23.0156264   4.9406944  )
        78           C   tau(  78) = (   5.0000001  23.0124185   9.2080842  )
        79           H   tau(  79) = (   5.0000007   6.0357537   3.3279440  )
        80           H   tau(  80) = (   5.0000003   6.0304656   7.5899348  )
        81           H   tau(  81) = (   4.9999996   6.0400528  11.8539751  )
        82           H   tau(  82) = (   5.0000007   6.0400484   0.9260248  )
        83           H   tau(  83) = (   5.0000001   6.0304690   5.1900607  )
        84           H   tau(  84) = (   5.0000003   6.0357563   9.4520556  )
        85           H   tau(  85) = (   5.0000022  23.9688405   3.0564873  )
        86           H   tau(  86) = (   5.0000006  23.9736063   7.3257091  )
        87           H   tau(  87) = (   5.0000003  23.9647858  11.5805032  )
        88           H   tau(  88) = (   4.9999996  23.9647858   1.1994924  )
        89           H   tau(  89) = (   5.0000036  23.9736006   5.4542886  )
        90           H   tau(  90) = (   4.9999994  23.9688462   9.7235106  )
        91           H   tau(  91) = (   5.0000020  14.0190391   7.2945321  )
        92           H   tau(  92) = (   4.9999995  15.6151163   4.5809256  )
        93           H   tau(  93) = (   5.0000009  14.0190365   5.4854659  )
        94           H   tau(  94) = (   4.9999989  17.2152938   7.2972824  )
        95           H   tau(  95) = (   5.0000019  15.6151165   8.1990728  )
        96           H   tau(  96) = (   4.9999997  17.2152897   5.4827143  )

     number of k points=    26  Marzari-Vanderbilt smearing, width (Ry)=  0.0100
                       cart. coord. in units 2pi/alat
        k(    1) = (   0.0000000   0.0000000   0.0000000), wk =   0.0400000
        k(    2) = (   0.0000000   0.0000000   0.0015649), wk =   0.0800000
        k(    3) = (   0.0000000   0.0000000   0.0031299), wk =   0.0800000
        k(    4) = (   0.0000000   0.0000000   0.0046948), wk =   0.0800000
        k(    5) = (   0.0000000   0.0000000   0.0062598), wk =   0.0800000
        k(    6) = (   0.0000000   0.0000000   0.0078247), wk =   0.0800000
        k(    7) = (   0.0000000   0.0000000   0.0093897), wk =   0.0800000
        k(    8) = (   0.0000000   0.0000000   0.0109546), wk =   0.0800000
        k(    9) = (   0.0000000   0.0000000   0.0125196), wk =   0.0800000
        k(   10) = (   0.0000000   0.0000000   0.0140845), wk =   0.0800000
        k(   11) = (   0.0000000   0.0000000   0.0156495), wk =   0.0800000
        k(   12) = (   0.0000000   0.0000000   0.0172144), wk =   0.0800000
        k(   13) = (   0.0000000   0.0000000   0.0187793), wk =   0.0800000
        k(   14) = (   0.0000000   0.0000000   0.0203443), wk =   0.0800000
        k(   15) = (   0.0000000   0.0000000   0.0219092), wk =   0.0800000
        k(   16) = (   0.0000000   0.0000000   0.0234742), wk =   0.0800000
        k(   17) = (   0.0000000   0.0000000   0.0250391), wk =   0.0800000
        k(   18) = (   0.0000000   0.0000000   0.0266041), wk =   0.0800000
        k(   19) = (   0.0000000   0.0000000   0.0281690), wk =   0.0800000
        k(   20) = (   0.0000000   0.0000000   0.0297340), wk =   0.0800000
        k(   21) = (   0.0000000   0.0000000   0.0312989), wk =   0.0800000
        k(   22) = (   0.0000000   0.0000000   0.0328638), wk =   0.0800000
        k(   23) = (   0.0000000   0.0000000   0.0344288), wk =   0.0800000
        k(   24) = (   0.0000000   0.0000000   0.0359937), wk =   0.0800000
        k(   25) = (   0.0000000   0.0000000   0.0375587), wk =   0.0800000
        k(   26) = (   0.0000000   0.0000000  -0.0391236), wk =   0.0400000

     Dense  grid:  4594185 G-vectors     FFT dimensions: ( 135, 400, 180)

     Smooth grid:   884201 G-vectors     FFT dimensions: (  80, 240, 100)

     Estimated max dynamical RAM per process >       1.01 GB

     Estimated total dynamical RAM >      16.17 GB

     The potential is recalculated from file :
     /home/zfwang/scratch/GNRDATASET/AGNR/ANTI14-6-6_1/ANTI14-6-6_1.save/charge-density.dat


     negative rho (up, down):  2.208E-04 0.000E+00
     Starting wfcs are  330 randomized atomic wfcs +  170 random wfcs

     Band Structure Calculation
     Davidson diagonalization with overlap
     c_bands:  2 eigenvalues not converged
     c_bands:  1 eigenvalues not converged
     c_bands:  1 eigenvalues not converged
     c_bands:  1 eigenvalues not converged

     ethr =  3.03E-09,  avg # of iterations = 86.7

     total cpu time spent up to now is    10921.3 secs

     End of band structure calculation

          k = 0.0000 0.0000 0.0000 (110425 PWs)   bands (ev):

   -21.1396 -20.9912 -20.6218 -20.4901 -20.3580 -20.3465 -20.2223 -19.9653
   -19.8491 -19.5518 -19.3796 -19.2302 -19.0037 -18.7751 -18.5434 -18.4386
   -18.4273 -18.3620 -18.3572 -18.2086 -17.9270 -17.6661 -17.6326 -17.5657
   -17.2180 -17.1835 -16.9481 -16.9265 -16.8110 -16.5571 -16.4814 -16.1771
   -16.1570 -15.9149 -15.7791 -15.6394 -15.6006 -14.9470 -14.8754 -14.8388
   -14.7462 -14.6276 -14.5618 -14.5375 -14.4823 -14.3287 -14.0109 -13.9258
   -13.6656 -13.6566 -13.3392 -13.2940 -13.2366 -12.7050 -12.4891 -12.4796
   -12.3009 -12.2449 -12.0262 -11.8970 -11.6976 -11.6358 -11.4940 -11.4833
   -11.4624 -11.4508 -11.2646 -11.2266 -11.1939 -10.7772 -10.6858 -10.4946
   -10.4773 -10.2437 -10.2053 -10.0040  -9.9189  -9.9115  -9.8587  -9.7597
    -9.6627  -9.5115  -9.5000  -9.4734  -9.3331  -9.2123  -9.1991  -9.1254
    -9.0396  -8.9745  -8.9428  -8.9306  -8.7573  -8.6635  -8.6006  -8.5374
    -8.4869  -8.4452  -8.4008  -8.3743  -8.3440  -8.2838  -8.2762  -8.2427
    -8.1474  -8.1066  -8.0869  -7.9877  -7.9336  -7.8919  -7.8638  -7.8443
    -7.7203  -7.7180  -7.5172  -7.5157  -7.3904  -7.3902  -7.2979  -7.1869
    -7.1813  -7.1029  -7.0272  -7.0080  -7.0006  -6.8985  -6.8795  -6.7979
    -6.6965  -6.6054  -6.5722  -6.5030  -6.4673  -6.2991  -6.2789  -6.2523
    -6.2398  -6.1247  -6.0937  -6.0341  -5.9967  -5.8420  -5.6019  -5.5314
    -5.4302  -5.3439  -5.2330  -5.2239  -5.2225  -5.1759  -4.9300  -4.8393
    -4.7009  -4.5434  -4.5247  -4.3284  -4.1243  -4.0263  -3.9258  -3.8255
    -3.6995  -3.4174  -3.0874  -2.5136  -1.8821  -1.8782  -1.2690  -0.6745
    -0.6357  -0.4183  -0.3374  -0.1713  -0.0968   0.2241   0.2348   0.4497
     0.6056   0.6637   0.9991   1.1124   1.1397   1.2228   1.3380   1.5160
     1.5388   1.6355   1.6526   1.6712   1.7032   2.0148   2.0236   2.0557
     2.0988   2.1028   2.2857   2.2880   2.3853   2.4537   2.5199   2.5469
     2.5525   2.5898   2.5968   2.6489   2.6858   2.7159   2.7415   2.7700
     2.8618   2.9012   2.9451   3.0705   3.0820   3.1144   3.1727   3.1986
     3.3556   3.4370   3.4657   3.4775   3.5960   3.6162   3.6167   3.6761
     3.7072   3.7544   3.8118   3.8706   3.8778   3.9011   3.9167   3.9909
     3.9949   4.0291   4.0917   4.0920   4.1617   4.2339   4.2775   4.3042
     4.3248   4.3919   4.4011   4.4265   4.4381   4.4514   4.5677   4.5681
     4.6298   4.6349   4.6611   4.7498   4.7599   4.8125   4.8195   4.8365
     4.9172   4.9292   4.9581   4.9806   5.0255   5.1158   5.1167   5.1295
     5.1641   5.1833   5.2114   5.2199   5.2215   5.2303   5.2528   5.2713
     5.3001   5.3187   5.3490   5.3501   5.5336   5.5528   5.6280   5.6509
     5.6532   5.6598   5.7074   5.7637   5.7647   5.8021   5.8215   5.8574
     5.9412   5.9555   5.9845   6.0152   6.0614   6.0646   6.1052   6.1204
     6.1356   6.1671   6.1721   6.1912   6.1970   6.2041   6.2228   6.2352
     6.2384   6.2962   6.3214   6.3226   6.3519   6.3994   6.4126   6.4181
     6.4189   6.4245   6.4450   6.4864   6.5051   6.5228   6.5607   6.5625
     6.5643   6.6182   6.6376   6.6547   6.6843   6.7052   6.7272   6.7386
     6.7526   6.8156   6.8239   6.8256   6.8405   6.8604   6.8914   6.9402
     6.9447   6.9679   6.9921   7.0265   7.0451   7.0551   7.1196   7.1563
     7.2183   7.2232   7.2313   7.2707   7.2920   7.3194   7.3313   7.3370
     7.3499   7.3740   7.3940   7.4236   7.4716   7.4788   7.4995   7.5104
     7.5529   7.5752   7.5941   7.6009   7.6311   7.6415   7.6843   7.7051
     7.7283   7.7518   7.7550   7.7906   7.7978   7.8212   7.8331   7.8523
     7.8554   7.8954   7.9362   7.9427   7.9944   8.0135   8.1078   8.1141
     8.1156   8.1542   8.1743   8.1913   8.1941   8.2264   8.2344   8.2903
     8.3124   8.3220   8.3469   8.3725   8.3998   8.4166   8.4257   8.4290
     8.4329   8.5108   8.5295   8.5298   8.5621   8.5691   8.6805   8.6880
     8.7040   8.7183   8.7740   8.7924   8.7989   8.8115   8.8257   8.8390
     8.8492   8.8565   8.8613   8.9442   8.9472   8.9525   8.9669   8.9906
     9.0091   9.0281   9.0765   9.1222   9.1589   9.1626   9.1782   9.2015
     9.2166   9.2281   9.2405   9.2566   9.3030   9.3043   9.3162   9.3432
     9.3547   9.3650   9.4099   9.4115   9.4323   9.4440   9.4635   9.4692
     9.4884   9.5000   9.5230   9.5657   9.5776   9.5844   9.5951   9.6555
     9.6682   9.6768   9.7215   9.7432   9.7873   9.8713   9.8728   9.8873
     9.9241   9.9380   9.9650   9.9974  10.0195  10.0248  10.0297  10.0582
    10.0702  10.1229  10.1404  10.1576  10.1789  10.1955  10.1982  10.2052
    10.2314  10.2539  10.2641  10.2735  10.3074  10.3089  10.3105  10.3306
    10.3568  10.3633  10.3746  10.4387  10.4476  10.4568  10.4858  10.5063
    10.5301  10.5647  10.6120  10.6315

          k = 0.0000 0.0000 0.0016 (110415 PWs)   bands (ev):

   -21.1394 -20.9910 -20.6230 -20.4905 -20.3731 -20.3311 -20.2203 -19.9654
   -19.8491 -19.5512 -19.3813 -19.2282 -19.0033 -18.7784 -18.5452 -18.4636
   -18.4180 -18.3694 -18.3344 -18.2024 -17.9290 -17.6679 -17.6372 -17.5588
   -17.2179 -17.1839 -16.9550 -16.9197 -16.8083 -16.5560 -16.4815 -16.1906
   -16.1448 -15.9154 -15.7842 -15.6387 -15.6047 -14.9547 -14.8703 -14.8390
   -14.7444 -14.6264 -14.5654 -14.5309 -14.4772 -14.3261 -14.0118 -13.9257
   -13.6869 -13.6341 -13.3404 -13.2957 -13.2356 -12.7062 -12.5090 -12.4596
   -12.3007 -12.2445 -12.0274 -11.8949 -11.6966 -11.6434 -11.5293 -11.5254
   -11.4347 -11.4078 -11.2764 -11.2109 -11.1834 -10.7767 -10.6869 -10.5089
   -10.4647 -10.2619 -10.1913 -10.0088  -9.9294  -9.8977  -9.8686  -9.7493
    -9.6571  -9.5317  -9.4928  -9.4597  -9.3310  -9.2120  -9.2051  -9.1219
    -9.0393  -8.9760  -8.9433  -8.9262  -8.7583  -8.6614  -8.6020  -8.5455
    -8.4801  -8.4456  -8.4030  -8.3803  -8.3395  -8.3049  -8.2549  -8.2410
    -8.1448  -8.1192  -8.0754  -7.9868  -7.9390  -7.8902  -7.8638  -7.8391
    -7.7196  -7.7182  -7.5275  -7.5073  -7.3901  -7.3896  -7.3025  -7.1849
    -7.1839  -7.1017  -7.0532  -7.0243  -6.9589  -6.9354  -6.8410  -6.7973
    -6.6970  -6.6268  -6.5511  -6.5027  -6.4718  -6.3107  -6.2780  -6.2403
    -6.2383  -6.1335  -6.1080  -6.0335  -5.9780  -5.8341  -5.6043  -5.5318
    -5.4308  -5.3419  -5.2363  -5.2335  -5.2230  -5.1662  -4.9316  -4.8356
    -4.7032  -4.5439  -4.5237  -4.3244  -4.1244  -4.0280  -3.9266  -3.8242
    -3.7009  -3.4185  -3.0877  -2.5167  -1.9310  -1.8295  -1.2659  -0.6746
    -0.6352  -0.4163  -0.3354  -0.1742  -0.0930   0.2218   0.2365   0.4449
     0.6036   0.6692   0.9975   1.1127   1.1401   1.2232   1.3383   1.5007
     1.5376   1.6410   1.6529   1.6848   1.7031   1.9883   2.0374   2.0632
     2.0725   2.1352   2.2767   2.2942   2.3713   2.4576   2.5059   2.5198
     2.5676   2.5857   2.6035   2.6495   2.6921   2.7161   2.7476   2.7788
     2.8743   2.8900   2.9541   3.0720   3.0867   3.1142   3.1537   3.2208
     3.3560   3.4144   3.4772   3.4890   3.5905   3.5964   3.6330   3.6626
     3.7166   3.7648   3.8069   3.8543   3.8761   3.9062   3.9353   3.9607
     4.0252   4.0287   4.0755   4.1095   4.1621   4.2342   4.2668   4.3079
     4.3316   4.3865   4.3920   4.4240   4.4477   4.4514   4.5148   4.6044
     4.6207   4.6533   4.6771   4.7345   4.7699   4.8105   4.8161   4.8388
     4.9190   4.9191   4.9344   5.0073   5.0346   5.0955   5.1158   5.1222
     5.1620   5.1741   5.1957   5.2082   5.2343   5.2468   5.2622   5.2874
     5.3060   5.3295   5.3508   5.3599   5.5223   5.5476   5.5977   5.6520
     5.6589   5.6867   5.7081   5.7281   5.7761   5.7957   5.8478   5.8740
     5.9405   5.9457   5.9845   6.0095   6.0508   6.0624   6.0694   6.1174
     6.1453   6.1498   6.1855   6.1931   6.2052   6.2154   6.2301   6.2371
     6.2430   6.2894   6.3220   6.3325   6.3516   6.3948   6.4076   6.4129
     6.4223   6.4344   6.4574   6.4803   6.4987   6.5203   6.5351   6.5699
     6.5720   6.5932   6.6422   6.6532   6.6821   6.7134   6.7515   6.7517
     6.7675   6.8084   6.8193   6.8319   6.8360   6.8648   6.8864   6.8966
     6.9474   6.9602   7.0275   7.0429   7.0473   7.0575   7.1244   7.1356
     7.2166   7.2233   7.2446   7.2818   7.2818   7.3138   7.3315   7.3331
     7.3578   7.3752   7.3969   7.4111   7.4474   7.4915   7.4994   7.5333
     7.5633   7.5725   7.5792   7.5903   7.6345   7.6385   7.6681   7.6881
     7.7317   7.7546   7.7619   7.7888   7.7943   7.8125   7.8467   7.8568
     7.8831   7.8968   7.9247   7.9374   8.0102   8.0329   8.0937   8.1132
     8.1295   8.1489   8.1807   8.1844   8.1991   8.2092   8.2482   8.2841
     8.2909   8.3168   8.3652   8.3719   8.3861   8.4078   8.4213   8.4404
     8.4585   8.5096   8.5113   8.5276   8.5666   8.5908   8.6686   8.6855
     8.7073   8.7209   8.7695   8.7727   8.7754   8.8090   8.8148   8.8455
     8.8536   8.8632   8.8846   8.9263   8.9486   8.9600   8.9909   8.9927
     9.0193   9.0302   9.0780   9.1227   9.1533   9.1623   9.1648   9.1970
     9.2082   9.2244   9.2408   9.2462   9.2921   9.3051   9.3168   9.3487
     9.3629   9.3685   9.3716   9.4206   9.4397   9.4447   9.4512   9.4683
     9.4974   9.5153   9.5404   9.5591   9.5766   9.5831   9.6065   9.6477
     9.6781   9.6935   9.7047   9.7790   9.7808   9.8574   9.8770   9.8944
     9.9215   9.9261   9.9659   9.9990  10.0039  10.0168  10.0171  10.0543
    10.0800  10.1080  10.1337  10.1620  10.1799  10.1888  10.1914  10.2173
    10.2332  10.2427  10.2666  10.2841  10.2936  10.3183  10.3309  10.3368
    10.3491  10.3704  10.3896  10.4162  10.4285  10.4587  10.4993  10.5244
    10.5477  10.5628  10.6070  10.6387

          k = 0.0000 0.0000 0.0031 (110415 PWs)   bands (ev):

   -21.1389 -20.9903 -20.6265 -20.4918 -20.3922 -20.3109 -20.2144 -19.9657
   -19.8492 -19.5498 -19.3858 -19.2226 -19.0020 -18.7879 -18.5510 -18.5016
   -18.4148 -18.3715 -18.2975 -18.1849 -17.9347 -17.6782 -17.6405 -17.5439
   -17.2196 -17.1833 -16.9672 -16.9074 -16.8008 -16.5527 -16.4816 -16.2118
   -16.1278 -15.9169 -15.7991 -15.6376 -15.6164 -14.9756 -14.8567 -14.8413
   -14.7378 -14.6226 -14.5718 -14.5148 -14.4632 -14.3187 -14.0144 -13.9257
   -13.7104 -13.6067 -13.3436 -13.3007 -13.2329 -12.7098 -12.5328 -12.4354
   -12.3003 -12.2430 -12.0306 -11.8892 -11.6967 -11.6637 -11.5850 -11.5728
   -11.3996 -11.3598 -11.2865 -11.1938 -11.1462 -10.7753 -10.6903 -10.5306
   -10.4483 -10.2950 -10.1707 -10.0216  -9.9390  -9.9067  -9.8608  -9.7282
    -9.6458  -9.5504  -9.4970  -9.4306  -9.3254  -9.2203  -9.2113  -9.1134
    -9.0385  -8.9808  -8.9423  -8.9156  -8.7607  -8.6555  -8.6061  -8.5626
    -8.4674  -8.4470  -8.4094  -8.3922  -8.3319  -8.3289  -8.2361  -8.2305
    -8.1383  -8.1372  -8.0594  -7.9853  -7.9499  -7.8875  -7.8641  -7.8253
    -7.7186  -7.7174  -7.5407  -7.4998  -7.3899  -7.3870  -7.3147  -7.1911
    -7.1807  -7.1039  -7.0971  -7.0162  -6.9860  -6.9090  -6.7971  -6.7955
    -6.6996  -6.6559  -6.5240  -6.4981  -6.4847  -6.3317  -6.2765  -6.2368
    -6.2153  -6.1686  -6.1174  -6.0392  -5.9368  -5.8126  -5.6110  -5.5330
    -5.4326  -5.3360  -5.2613  -5.2350  -5.2246  -5.1492  -4.9358  -4.8256
    -4.7097  -4.5454  -4.5201  -4.3131  -4.1250  -4.0327  -3.9289  -3.8204
    -3.7053  -3.4215  -3.0884  -2.5261  -1.9819  -1.7790  -1.2566  -0.6749
    -0.6337  -0.4104  -0.3294  -0.1814  -0.0830   0.2168   0.2396   0.4319
     0.5978   0.6843   0.9923   1.1137   1.1411   1.2242   1.3392   1.4719
     1.5247   1.6537   1.6608   1.7028   1.7146   1.9562   2.0292   2.0437
     2.0995   2.1703   2.2640   2.2993   2.3339   2.4658   2.4689   2.4912
     2.5591   2.5729   2.6345   2.6478   2.7087   2.7228   2.7539   2.8047
     2.8683   2.9071   2.9693   3.0734   3.1013   3.1118   3.1354   3.2535
     3.3572   3.3825   3.4760   3.5229   3.5621   3.5976   3.6261   3.6460
     3.7376   3.7846   3.7962   3.8245   3.8768   3.9184   3.9278   3.9674
     4.0279   4.0565   4.0657   4.1218   4.1633   4.2351   4.2538   4.3066
     4.3349   4.3868   4.3904   4.4016   4.4327   4.4616   4.4800   4.6019
     4.6489   4.6587   4.7107   4.7318   4.7603   4.8063   4.8199   4.8411
     4.8961   4.9109   4.9255   5.0320   5.0524   5.0738   5.0780   5.1165
     5.1309   5.1793   5.1994   5.2136   5.2457   5.2494   5.2651   5.3216
     5.3349   5.3520   5.3534   5.3947   5.4978   5.5145   5.5807   5.6483
     5.6522   5.6910   5.7107   5.7250   5.7740   5.7994   5.8837   5.9147
     5.9197   5.9383   5.9837   5.9856   6.0305   6.0374   6.0451   6.1058
     6.1187   6.1406   6.1831   6.2067   6.2146   6.2393   6.2437   6.2491
     6.2507   6.3029   6.3236   6.3383   6.3513   6.3942   6.3959   6.4135
     6.4214   6.4462   6.4614   6.4784   6.4837   6.5138   6.5173   6.5522
     6.5709   6.5936   6.6173   6.6685   6.6953   6.7211   6.7730   6.7831
     6.7941   6.8083   6.8161   6.8302   6.8408   6.8441   6.8725   6.8798
     6.9463   6.9497   7.0254   7.0639   7.0690   7.0939   7.1167   7.1422
     7.1934   7.2244   7.2624   7.2710   7.2872   7.3047   7.3266   7.3325
     7.3684   7.3835   7.4041   7.4066   7.4194   7.4777   7.5186   7.5333
     7.5671   7.5735   7.5797   7.5845   7.6174   7.6367   7.6373   7.6611
     7.7141   7.7616   7.7774   7.7830   7.8001   7.8344   7.8353   7.8722
     7.8850   7.9293   7.9408   7.9586   8.0025   8.0812   8.0830   8.1111
     8.1432   8.1466   8.1528   8.1936   8.2066   8.2139   8.2456   8.2625
     8.2682   8.3018   8.3551   8.3682   8.3878   8.4155   8.4302   8.4589
     8.4678   8.4963   8.5056   8.5319   8.5755   8.6222   8.6530   8.6751
     8.6849   8.7157   8.7439   8.7639   8.7698   8.7907   8.8193   8.8414
     8.8426   8.8699   8.8937   8.9258   8.9633   8.9749   9.0148   9.0184
     9.0384   9.0408   9.0845   9.1243   9.1266   9.1532   9.1615   9.1627
     9.1811   9.2140   9.2241   9.2531   9.2796   9.2888   9.3220   9.3252
     9.3621   9.3678   9.3929   9.3990   9.4280   9.4473   9.4783   9.4865
     9.4914   9.5277   9.5597   9.5646   9.5702   9.6048   9.6222   9.6282
     9.6825   9.7067   9.7603   9.7654   9.8149   9.8430   9.8836   9.8906
     9.8957   9.9268   9.9607   9.9642   9.9890   9.9933  10.0089  10.0519
    10.0790  10.0999  10.1148  10.1634  10.1657  10.1697  10.1936  10.2286
    10.2515  10.2520  10.2592  10.2684  10.3048  10.3065  10.3429  10.3642
    10.3716  10.3720  10.3964  10.4056  10.4114  10.4556  10.5269  10.5563
    10.5565  10.5856  10.5992  10.6369

          k = 0.0000 0.0000 0.0047 (110415 PWs)   bands (ev):

   -21.1379 -20.9892 -20.6322 -20.4941 -20.4105 -20.2904 -20.2049 -19.9661
   -19.8492 -19.5475 -19.3925 -19.2144 -18.9998 -18.8031 -18.5611 -18.5425
   -18.4130 -18.3712 -18.2555 -18.1592 -17.9437 -17.6980 -17.6355 -17.5270
   -17.2266 -17.1777 -16.9802 -16.8939 -16.7895 -16.5472 -16.4819 -16.2342
   -16.1124 -15.9198 -15.8221 -15.6418 -15.6289 -15.0058 -14.8497 -14.8367
   -14.7239 -14.6154 -14.5776 -14.4925 -14.4428 -14.3069 -14.0186 -13.9256
   -13.7322 -13.5787 -13.3485 -13.3085 -13.2292 -12.7155 -12.5566 -12.4110
   -12.3009 -12.2396 -12.0351 -11.8809 -11.7233 -11.6727 -11.6434 -11.6127
   -11.3655 -11.3426 -11.2654 -11.1783 -11.0939 -10.7730 -10.6954 -10.5539
   -10.4337 -10.3327 -10.1530 -10.0381  -9.9606  -9.9192  -9.8343  -9.7083
    -9.6412  -9.5492  -9.5049  -9.3993  -9.3173  -9.2398  -9.2102  -9.1031
    -9.0371  -8.9887  -8.9392  -8.9011  -8.7633  -8.6472  -8.6128  -8.5820
    -8.4578  -8.4493  -8.4181  -8.4046  -8.3522  -8.3260  -8.2284  -8.2065
    -8.1562  -8.1248  -8.0446  -7.9877  -7.9577  -7.8852  -7.8644  -7.8065
    -7.7191  -7.7138  -7.5558  -7.4936  -7.3903  -7.3831  -7.3314  -7.2013
    -7.1801  -7.1509  -7.0931  -7.0289  -7.0043  -6.8659  -6.7923  -6.7610
    -6.7128  -6.6690  -6.5148  -6.5044  -6.4759  -6.3531  -6.2773  -6.2327
    -6.2136  -6.1881  -6.1209  -6.0463  -5.8892  -5.7822  -5.6216  -5.5350
    -5.4356  -5.3271  -5.2901  -5.2375  -5.2272  -5.1329  -4.9415  -4.8114
    -4.7192  -4.5480  -4.5131  -4.2958  -4.1260  -4.0398  -3.9327  -3.8151
    -3.7123  -3.4265  -3.0897  -2.5414  -2.0329  -1.7287  -1.2414  -0.6752
    -0.6313  -0.4006  -0.3196  -0.1903  -0.0691   0.2105   0.2426   0.4134
     0.5887   0.7059   0.9828   1.1160   1.1429   1.2260   1.3407   1.4393
     1.5050   1.6551   1.6898   1.7023   1.7507   1.9241   1.9985   2.0403
     2.1335   2.2057   2.2505   2.2822   2.3034   2.4156   2.4492   2.4926
     2.5284   2.5765   2.6477   2.6698   2.7114   2.7386   2.7663   2.8410
     2.8444   2.9501   2.9827   3.0627   3.1101   3.1266   3.1356   3.2877
     3.3510   3.3591   3.4719   3.5358   3.5577   3.5973   3.5999   3.6368
     3.7598   3.7826   3.7932   3.8085   3.8778   3.8965   3.9343   4.0007
     4.0285   4.0649   4.0859   4.1220   4.1653   4.2365   4.2500   4.2943
     4.3323   4.3693   4.3953   4.3961   4.4110   4.4118   4.5144   4.6113
     4.6462   4.6614   4.7081   4.7614   4.7694   4.7908   4.8348   4.8407
     4.8684   4.8981   4.9350   5.0246   5.0281   5.0569   5.0623   5.1240
     5.1344   5.1692   5.1856   5.2350   5.2555   5.2629   5.2820   5.3392
     5.3594   5.3621   5.3943   5.4469   5.4536   5.4872   5.5532   5.6421
     5.6430   5.6845   5.7070   5.7276   5.8009   5.8047   5.8835   5.9028
     5.9371   5.9496   5.9687   5.9854   6.0041   6.0145   6.0227   6.0838
     6.0916   6.1424   6.1746   6.1921   6.2115   6.2465   6.2494   6.2755
     6.2899   6.3260   6.3274   6.3422   6.3516   6.3828   6.3933   6.3983
     6.4201   6.4231   6.4654   6.4750   6.4999   6.5090   6.5109   6.5406
     6.5582   6.6130   6.6392   6.6457   6.7215   6.7294   6.7399   6.7854
     6.7888   6.8050   6.8241   6.8339   6.8617   6.8652   6.8784   6.8982
     6.9441   6.9463   6.9985   7.0769   7.0865   7.1163   7.1481   7.1687
     7.1742   7.2249   7.2376   7.2470   7.2943   7.3057   7.3339   7.3367
     7.3679   7.3859   7.3879   7.4320   7.4326   7.4649   7.4907   7.5211
     7.5436   7.5652   7.5771   7.5912   7.6101   7.6208   7.6442   7.6573
     7.6797   7.7429   7.7698   7.8102   7.8171   7.8369   7.8517   7.8960
     7.8968   7.9453   7.9631   7.9995   8.0087   8.0790   8.1011   8.1019
     8.1334   8.1535   8.1642   8.1900   8.2121   8.2260   8.2361   8.2462
     8.2524   8.2799   8.3463   8.3529   8.3851   8.4300   8.4435   8.4595
     8.4643   8.4962   8.5190   8.5486   8.5702   8.6310   8.6341   8.6561
     8.6764   8.6949   8.7328   8.7595   8.7649   8.7943   8.8196   8.8304
     8.8398   8.8640   8.8662   8.9636   8.9637   8.9817   9.0342   9.0544
     9.0647   9.0656   9.0870   9.0956   9.1140   9.1282   9.1420   9.1567
     9.1593   9.1999   9.2070   9.2244   9.2739   9.2764   9.2950   9.3291
     9.3632   9.3709   9.3920   9.4120   9.4506   9.4531   9.4861   9.4900
     9.5048   9.5300   9.5494   9.5692   9.5826   9.6083   9.6345   9.6562
     9.6897   9.7469   9.7499   9.7875   9.8417   9.8504   9.8530   9.8699
     9.8890   9.9121   9.9476   9.9641   9.9674   9.9751  10.0101  10.0347
    10.0570  10.0863  10.1058  10.1462  10.1539  10.1727  10.1940  10.2262
    10.2330  10.2666  10.2724  10.2761  10.3075  10.3232  10.3433  10.3433
    10.3683  10.3769  10.3924  10.4086  10.4482  10.4822  10.5434  10.5514
    10.5850  10.6019  10.6140  10.6297

          k = 0.0000 0.0000 0.0063 (110399 PWs)   bands (ev):

   -21.1366 -20.9876 -20.6399 -20.4978 -20.4272 -20.2699 -20.1922 -19.9667
   -19.8491 -19.5447 -19.4001 -19.2043 -18.9966 -18.8230 -18.5853 -18.5738
   -18.4094 -18.3698 -18.2116 -18.1280 -17.9553 -17.7214 -17.6258 -17.5108
   -17.2393 -17.1666 -16.9923 -16.8800 -16.7754 -16.5396 -16.4823 -16.2571
   -16.0999 -15.9245 -15.8512 -15.6628 -15.6292 -15.0424 -14.8657 -14.8129
   -14.7023 -14.6045 -14.5803 -14.4660 -14.4183 -14.2916 -14.0240 -13.9253
   -13.7517 -13.5508 -13.3546 -13.3186 -13.2251 -12.7231 -12.5802 -12.3867
   -12.3036 -12.2336 -12.0400 -11.8724 -11.7766 -11.7050 -11.6666 -11.6400
   -11.3521 -11.3316 -11.2199 -11.1603 -11.0362 -10.7700 -10.7016 -10.5781
   -10.4223 -10.3725 -10.1413 -10.0544  -9.9932  -9.9177  -9.8053  -9.7032
    -9.6373  -9.5301  -9.5088  -9.3686  -9.3101  -9.2580  -9.2086  -9.0926
    -9.0351  -8.9981  -8.9357  -8.8840  -8.7646  -8.6387  -8.6219  -8.6005
    -8.4596  -8.4531  -8.4239  -8.4161  -8.3738  -8.3230  -8.2186  -8.1832
    -8.1705  -8.1081  -8.0315  -7.9988  -7.9565  -7.8828  -7.8649  -7.7862
    -7.7196  -7.7088  -7.5728  -7.4883  -7.3932  -7.3783  -7.3488  -7.2128
    -7.2101  -7.1753  -7.0917  -7.0599  -6.9903  -6.8262  -6.7876  -6.7518
    -6.7302  -6.6527  -6.5293  -6.5154  -6.4454  -6.3723  -6.2849  -6.2587
    -6.2269  -6.1598  -6.1217  -6.0513  -5.8396  -5.7465  -5.6350  -5.5379
    -5.4398  -5.3208  -5.3153  -5.2409  -5.2309  -5.1190  -4.9479  -4.7964
    -4.7288  -4.5510  -4.5026  -4.2742  -4.1277  -4.0485  -3.9378  -3.8090
    -3.7219  -3.4329  -3.0914  -2.5621  -2.0838  -1.6788  -1.2209  -0.6756
    -0.6281  -0.3871  -0.3064  -0.1990  -0.0532   0.2030   0.2450   0.3922
     0.5767   0.7316   0.9686   1.1198   1.1454   1.2284   1.3427   1.4058
     1.4845   1.6569   1.7016   1.7222   1.7900   1.8926   1.9668   2.0369
     2.1678   2.2229   2.2315   2.2479   2.3071   2.3522   2.4183   2.4977
     2.5117   2.5810   2.6495   2.7065   2.7104   2.7438   2.7886   2.8207
     2.8835   2.9925   2.9960   3.0397   3.1144   3.1496   3.1633   3.3125
     3.3307   3.3617   3.4606   3.5173   3.5651   3.5893   3.6067   3.6236
     3.7492   3.7623   3.8030   3.8244   3.8629   3.8822   3.9540   4.0324
     4.0342   4.0730   4.1102   4.1107   4.1680   4.2382   4.2471   4.2825
     4.3380   4.3407   4.3494   4.3645   4.3989   4.4446   4.5496   4.6061
     4.6437   4.6572   4.6808   4.7709   4.7917   4.8086   4.8394   4.8418
     4.8451   4.8910   4.9378   4.9914   5.0079   5.0376   5.0546   5.1430
     5.1497   5.1677   5.1710   5.2591   5.2706   5.2761   5.2960   5.3475
     5.3850   5.3868   5.4091   5.4306   5.4623   5.5024   5.5237   5.6331
     5.6382   5.6760   5.7052   5.7348   5.8031   5.8240   5.8420   5.8877
     5.9332   5.9709   5.9721   5.9792   5.9811   6.0021   6.0211   6.0478
     6.0872   6.1459   6.1608   6.1662   6.2096   6.2470   6.2568   6.2920
     6.3157   6.3236   6.3367   6.3492   6.3497   6.3611   6.3758   6.3804
     6.4121   6.4438   6.4662   6.4895   6.4958   6.5028   6.5192   6.5417
     6.5883   6.6235   6.6367   6.6631   6.6927   6.7199   6.7398   6.7450
     6.7851   6.8075   6.8264   6.8452   6.8662   6.8965   6.9203   6.9236
     6.9564   6.9565   6.9855   7.0816   7.1016   7.1207   7.1454   7.1726
     7.1950   7.2180   7.2265   7.2547   7.2937   7.2961   7.3349   7.3442
     7.3604   7.3828   7.3860   7.4497   7.4501   7.4606   7.4738   7.4871
     7.5069   7.5527   7.5658   7.5813   7.5959   7.6299   7.6524   7.6617
     7.6941   7.6960   7.7579   7.8365   7.8458   7.8629   7.8704   7.9035
     7.9204   7.9511   7.9580   8.0330   8.0413   8.0770   8.0906   8.1040
     8.1386   8.1634   8.1684   8.1728   8.2020   8.2072   8.2494   8.2570
     8.2667   8.2690   8.3393   8.3437   8.3711   8.4180   8.4487   8.4603
     8.4719   8.4948   8.5374   8.5545   8.5614   8.6058   8.6074   8.6529
     8.6811   8.7046   8.7266   8.7501   8.7568   8.7973   8.8063   8.8249
     8.8392   8.8503   8.8746   8.9395   8.9841   8.9871   9.0271   9.0559
     9.0570   9.0675   9.0894   9.1119   9.1192   9.1365   9.1368   9.1534
     9.1542   9.1615   9.1909   9.2026   9.2586   9.2685   9.2964   9.3192
     9.3659   9.3698   9.4217   9.4233   9.4635   9.4644   9.4848   9.4986
     9.5036   9.5186   9.5498   9.5738   9.5958   9.6399   9.6446   9.6777
     9.6963   9.7306   9.7672   9.7875   9.8187   9.8217   9.8552   9.8834
     9.8988   9.9148   9.9250   9.9379   9.9586  10.0011  10.0152  10.0154
    10.0439  10.0507  10.0825  10.1258  10.1728  10.1808  10.1969  10.2001
    10.2224  10.2687  10.2747  10.2879  10.3146  10.3312  10.3362  10.3438
    10.3625  10.3650  10.4146  10.4279  10.4460  10.5201  10.5363  10.5442
    10.5698  10.6178  10.6231  10.6252

          k = 0.0000 0.0000 0.0078 (110397 PWs)   bands (ev):

   -21.1349 -20.9856 -20.6492 -20.5037 -20.4415 -20.2496 -20.1767 -19.9673
   -19.8486 -19.5420 -19.4077 -19.1934 -18.9924 -18.8467 -18.6274 -18.5902
   -18.4038 -18.3673 -18.1671 -18.0935 -17.9686 -17.7451 -17.6137 -17.4960
   -17.2561 -17.1520 -17.0023 -16.8662 -16.7593 -16.5300 -16.4826 -16.2798
   -16.0915 -15.9322 -15.8839 -15.6890 -15.6271 -15.0834 -14.8881 -14.7878
   -14.6764 -14.5917 -14.5743 -14.4373 -14.3909 -14.2737 -14.0304 -13.9249
   -13.7688 -13.5240 -13.3609 -13.3302 -13.2213 -12.7320 -12.6038 -12.3628
   -12.3094 -12.2244 -12.0454 -11.8706 -11.8356 -11.7614 -11.6801 -11.6386
   -11.3669 -11.2977 -11.1759 -11.1364 -10.9775 -10.7667 -10.7074 -10.6024
   -10.4230 -10.4042 -10.1418 -10.0659 -10.0222  -9.9120  -9.7770  -9.7177
    -9.6237  -9.5200  -9.4888  -9.3402  -9.3111  -9.2643  -9.2065  -9.0849
    -9.0326  -9.0056  -8.9326  -8.8661  -8.7639  -8.6364  -8.6329  -8.6112
    -8.4726  -8.4593  -8.4327  -8.4227  -8.3927  -8.3215  -8.2074  -8.1792
    -8.1605  -8.0878  -8.0198  -8.0144  -7.9509  -7.8792  -7.8654  -7.7676
    -7.7196  -7.7020  -7.5907  -7.4838  -7.4029  -7.3731  -7.3613  -7.2596
    -7.2242  -7.1951  -7.1016  -7.0634  -6.9755  -6.7957  -6.7812  -6.7782
    -6.7273  -6.6186  -6.5582  -6.5172  -6.4185  -6.3849  -6.3156  -6.2869
    -6.2190  -6.1308  -6.1189  -6.0534  -5.7895  -5.7081  -5.6504  -5.5415
    -5.4452  -5.3506  -5.3031  -5.2454  -5.2355  -5.1075  -4.9547  -4.7881
    -4.7313  -4.5541  -4.4887  -4.2498  -4.1303  -4.0575  -3.9444  -3.8032
    -3.7335  -3.4405  -3.0937  -2.5877  -2.1347  -1.6292  -1.1954  -0.6759
    -0.6243  -0.3701  -0.2903  -0.2060  -0.0361   0.1942   0.2468   0.3703
     0.5624   0.7596   0.9497   1.1247   1.1485   1.2316   1.3454   1.3727
     1.4656   1.6592   1.7007   1.7551   1.8308   1.8618   1.9355   2.0322
     2.1601   2.1954   2.2295   2.2816   2.2831   2.3112   2.3869   2.4672
     2.5324   2.5873   2.6527   2.7077   2.7431   2.7461   2.7996   2.8107
     2.9274   2.9946   3.0183   3.0427   3.1193   3.1718   3.2098   3.2878
     3.3622   3.3650   3.4394   3.5098   3.5326   3.6005   3.6075   3.6345
     3.7257   3.7324   3.8180   3.8323   3.8482   3.8848   3.9793   4.0371
     4.0665   4.0847   4.0978   4.1253   4.1713   4.2281   4.2397   4.2886
     4.3009   4.3117   4.3313   4.3509   4.4015   4.4800   4.5799   4.5849
     4.6105   4.6562   4.6947   4.7478   4.7945   4.8104   4.8283   4.8514
     4.8625   4.8844   4.9237   4.9836   5.0002   5.0320   5.0364   5.1228
     5.1588   5.1809   5.2044   5.2624   5.2870   5.2898   5.3155   5.3510
     5.3578   5.4154   5.4259   5.4408   5.4445   5.4999   5.5812   5.6207
     5.6287   5.6694   5.7080   5.7409   5.7953   5.7983   5.8106   5.9075
     5.9266   5.9288   5.9464   5.9690   5.9830   6.0127   6.0280   6.0364
     6.0995   6.1222   6.1418   6.1727   6.2076   6.2418   6.2488   6.2746
     6.2990   6.3170   6.3191   6.3534   6.3602   6.3622   6.3781   6.3784
     6.4195   6.4582   6.4671   6.5097   6.5118   6.5156   6.5281   6.5519
     6.6025   6.6110   6.6499   6.6592   6.6772   6.7067   6.7383   6.7461
     6.7795   6.7980   6.8236   6.8482   6.8712   6.8963   6.9511   6.9691
     6.9737   6.9865   7.0144   7.0837   7.0969   7.1034   7.1465   7.1658
     7.1676   7.2314   7.2574   7.2746   7.2816   7.2911   7.3332   7.3375
     7.3830   7.3847   7.3864   7.4151   7.4258   7.4431   7.4727   7.4889
     7.4933   7.5334   7.5581   7.5739   7.6069   7.6304   7.6335   7.6688
     7.6825   7.7195   7.7591   7.8509   7.8757   7.8828   7.8893   7.9137
     7.9353   7.9448   7.9711   8.0195   8.0483   8.0942   8.1070   8.1107
     8.1382   8.1526   8.1657   8.1773   8.1933   8.2038   8.2259   8.2625
     8.2853   8.3254   8.3305   8.3377   8.3624   8.4091   8.4254   8.4579
     8.4765   8.4865   8.5064   8.5455   8.5832   8.6008   8.6223   8.6231
     8.6750   8.7181   8.7399   8.7481   8.7530   8.7803   8.8009   8.8023
     8.8317   8.8633   8.8844   8.9141   8.9508   8.9941   8.9951   9.0320
     9.0522   9.0851   9.0883   9.0893   9.1039   9.1339   9.1405   9.1608
     9.1679   9.1824   9.1962   9.2128   9.2520   9.2644   9.2904   9.3176
     9.3624   9.3812   9.4314   9.4376   9.4548   9.4760   9.4763   9.4862
     9.5160   9.5410   9.5679   9.5846   9.6023   9.6370   9.6651   9.6925
     9.6954   9.7201   9.7231   9.7894   9.7981   9.8376   9.8540   9.8684
     9.9000   9.9011   9.9103   9.9136   9.9793   9.9977  10.0111  10.0204
    10.0315  10.0579  10.0600  10.1169  10.1592  10.1926  10.2048  10.2061
    10.2154  10.2628  10.2664  10.2848  10.2994  10.3221  10.3401  10.3468
    10.3672  10.3879  10.4226  10.4329  10.4755  10.4851  10.5101  10.5321
    10.5715  10.6016  10.6109  10.6495

          k = 0.0000 0.0000 0.0094 (110397 PWs)   bands (ev):

   -21.1329 -20.9831 -20.6598 -20.5126 -20.4524 -20.2296 -20.1589 -19.9680
   -19.8475 -19.5399 -19.4141 -19.1824 -18.9874 -18.8730 -18.6696 -18.6075
   -18.3974 -18.3632 -18.1233 -18.0574 -17.9826 -17.7671 -17.6002 -17.4827
   -17.2757 -17.1363 -17.0084 -16.8532 -16.7419 -16.5194 -16.4825 -16.3017
   -16.0885 -15.9463 -15.9156 -15.7155 -15.6249 -15.1275 -14.9150 -14.7647
   -14.6522 -14.5764 -14.5537 -14.4082 -14.3615 -14.2540 -14.0373 -13.9238
   -13.7831 -13.5001 -13.3669 -13.3420 -13.2184 -12.7419 -12.6272 -12.3408
   -12.3172 -12.2120 -12.0519 -11.9137 -11.8725 -11.7976 -11.7019 -11.6214
   -11.3827 -11.2640 -11.1456 -11.1003 -10.9218 -10.7641 -10.7107 -10.6259
   -10.4590 -10.4029 -10.1609 -10.0705 -10.0396  -9.9049  -9.7611  -9.7280
    -9.6156  -9.5046  -9.4599  -9.3336  -9.3024  -9.2543  -9.2040  -9.0844
    -9.0296  -9.0063  -8.9303  -8.8490  -8.7614  -8.6460  -8.6455  -8.6081
    -8.4890  -8.4692  -8.4463  -8.4324  -8.4072  -8.3184  -8.1954  -8.1818
    -8.1385  -8.0647  -8.0321  -8.0084  -7.9451  -7.8736  -7.8659  -7.7549
    -7.7190  -7.6920  -7.6084  -7.4804  -7.4212  -7.3686  -7.3658  -7.3102
    -7.2340  -7.2295  -7.1066  -7.0551  -6.9607  -6.8192  -6.7728  -6.7680
    -6.7206  -6.5903  -6.5808  -6.5172  -6.4131  -6.3731  -6.3621  -6.3043
    -6.2087  -6.1132  -6.1015  -6.0522  -5.7400  -5.6754  -5.6603  -5.5460
    -5.4517  -5.3791  -5.2899  -5.2509  -5.2412  -5.0983  -4.9618  -4.7932
    -4.7199  -4.5568  -4.4717  -4.2243  -4.1340  -4.0656  -3.9527  -3.7991
    -3.7465  -3.4486  -3.0966  -2.6176  -2.1854  -1.5800  -1.1658  -0.6761
    -0.6201  -0.3502  -0.2730  -0.2090  -0.0185   0.1839   0.2477   0.3490
     0.5462   0.7882   0.9270   1.1296   1.1524   1.2355   1.3416   1.3486
     1.4489   1.6615   1.6997   1.7867   1.8318   1.8723   1.9049   2.0260
     2.0967   2.1968   2.2109   2.2529   2.3128   2.3217   2.3563   2.4368
     2.5510   2.5965   2.6568   2.7033   2.7490   2.7671   2.7946   2.8309
     2.9684   2.9755   3.0162   3.0916   3.1241   3.1959   3.2622   3.2628
     3.3684   3.3988   3.4132   3.4982   3.5119   3.5902   3.6042   3.6678
     3.6984   3.7060   3.8017   3.8172   3.8830   3.8885   4.0088   4.0361
     4.0765   4.0950   4.1168   4.1207   4.1743   4.2031   4.2388   4.2562
     4.2862   4.2995   4.3168   4.3706   4.4048   4.5170   4.5426   4.5674
     4.6187   4.6615   4.7213   4.7238   4.7750   4.7824   4.7993   4.8541
     4.8840   4.8970   4.9294   4.9579   5.0143   5.0254   5.0456   5.0963
     5.1650   5.2074   5.2369   5.2574   5.2737   5.3040   5.3385   5.3525
     5.3534   5.3850   5.4219   5.4483   5.4869   5.5337   5.6040   5.6109
     5.6441   5.6751   5.7076   5.7219   5.7547   5.7887   5.8150   5.8843
     5.9137   5.9161   5.9395   5.9540   5.9783   5.9790   6.0360   6.0643
     6.0812   6.1153   6.1344   6.1795   6.2045   6.2211   6.2348   6.2441
     6.2772   6.2799   6.3154   6.3573   6.3759   6.3800   6.3887   6.4019
     6.4220   6.4610   6.4748   6.5185   6.5293   6.5373   6.5447   6.5711
     6.5712   6.6116   6.6210   6.6799   6.6923   6.7098   6.7437   6.7672
     6.7680   6.7887   6.8154   6.8371   6.8895   6.9017   6.9766   6.9835
     6.9964   7.0169   7.0532   7.0805   7.0840   7.0993   7.1481   7.1589
     7.1659   7.2397   7.2415   7.2656   7.2853   7.3019   7.3252   7.3679
     7.3774   7.3793   7.3983   7.3985   7.4027   7.4147   7.4480   7.4840
     7.5078   7.5179   7.5366   7.5866   7.6112   7.6320   7.6363   7.6783
     7.7038   7.7213   7.7786   7.8554   7.8707   7.9072   7.9098   7.9235
     7.9405   7.9545   7.9870   8.0076   8.0286   8.0894   8.1125   8.1274
     8.1298   8.1399   8.1732   8.1955   8.2001   8.2077   8.2409   8.2596
     8.2836   8.3243   8.3382   8.3592   8.3885   8.4058   8.4091   8.4238
     8.4573   8.4580   8.5126   8.5404   8.5725   8.5971   8.6233   8.6558
     8.6651   8.7002   8.7457   8.7493   8.7667   8.7771   8.7780   8.8014
     8.8260   8.8366   8.8765   8.8972   8.9370   8.9771   8.9949   9.0080
     9.0254   9.0431   9.0714   9.0941   9.1149   9.1273   9.1300   9.1833
     9.1838   9.1974   9.2157   9.2514   9.2650   9.2659   9.2945   9.3327
     9.3512   9.3741   9.4050   9.4402   9.4645   9.4808   9.4890   9.4895
     9.5350   9.5569   9.5880   9.5932   9.5965   9.6298   9.6452   9.6779
     9.6954   9.7204   9.7409   9.7645   9.8086   9.8245   9.8440   9.8550
     9.8775   9.8844   9.8886   9.9063   9.9492  10.0073  10.0180  10.0227
    10.0300  10.0565  10.0964  10.1174  10.1299  10.1941  10.2200  10.2280
    10.2290  10.2468  10.2612  10.2692  10.2886  10.3044  10.3319  10.3562
    10.3732  10.4039  10.4326  10.4415  10.4464  10.4659  10.5157  10.5166
    10.5633  10.5950  10.6100  10.6415

          k = 0.0000 0.0000 0.0110 (110427 PWs)   bands (ev):

   -21.1305 -20.9802 -20.6716 -20.5246 -20.4596 -20.2099 -20.1394 -19.9686
   -19.8458 -19.5392 -19.4184 -19.1722 -18.9821 -18.9002 -18.7117 -18.6253
   -18.3915 -18.3572 -18.0830 -18.0221 -17.9939 -17.7855 -17.5862 -17.4708
   -17.2971 -17.1225 -17.0082 -16.8415 -16.7235 -16.5099 -16.4803 -16.3222
   -16.0933 -15.9713 -15.9402 -15.7392 -15.6226 -15.1736 -14.9449 -14.7462
   -14.6355 -14.5494 -14.5222 -14.3805 -14.3307 -14.2334 -14.0439 -13.9216
   -13.7945 -13.4819 -13.3739 -13.3491 -13.2169 -12.7522 -12.6504 -12.3375
   -12.3105 -12.1973 -12.0621 -11.9804 -11.9172 -11.8001 -11.7208 -11.5999
   -11.3984 -11.2311 -11.1250 -11.0584 -10.8745 -10.7637 -10.7090 -10.6452
   -10.4971 -10.3994 -10.1936 -10.0779 -10.0399  -9.8974  -9.7768  -9.7098
    -9.6170  -9.4744  -9.4385  -9.3452  -9.2728  -9.2372  -9.2011  -9.0935
    -9.0260  -8.9973  -8.9292  -8.8330  -8.7591  -8.6594  -8.6552  -8.6029
    -8.5037  -8.4835  -8.4611  -8.4515  -8.4166  -8.3123  -8.1840  -8.1787
    -8.1173  -8.0499  -8.0395  -7.9984  -7.9404  -7.8662  -7.8658  -7.7525
    -7.7173  -7.6775  -7.6238  -7.4798  -7.4424  -7.3693  -7.3661  -7.3568
    -7.2711  -7.2407  -7.1050  -7.0448  -6.9470  -6.8549  -6.7648  -6.7624
    -6.7049  -6.6245  -6.5533  -6.5066  -6.4180  -6.4100  -6.3469  -6.3234
    -6.1955  -6.1064  -6.0721  -6.0480  -5.6951  -5.6856  -5.6259  -5.5514
    -5.4593  -5.4034  -5.2768  -5.2573  -5.2479  -5.0909  -4.9695  -4.8058
    -4.7001  -4.5593  -4.4516  -4.1996  -4.1385  -4.0715  -3.9627  -3.7982
    -3.7593  -3.4566  -3.1000  -2.6512  -2.2360  -1.5313  -1.1326  -0.6760
    -0.6154  -0.3286  -0.2574  -0.2038  -0.0008   0.1717   0.2478   0.3297
     0.5287   0.8154   0.9026   1.1325   1.1570   1.2400   1.3143   1.3523
     1.4346   1.6637   1.6987   1.8030   1.8141   1.8749   1.9121   2.0183
     2.0376   2.1369   2.1882   2.2879   2.3170   2.3286   2.3590   2.4070
     2.5651   2.6078   2.6618   2.6977   2.7528   2.7592   2.8276   2.8493
     2.9484   3.0052   3.0217   3.1291   3.1431   3.2047   3.2569   3.3156
     3.3683   3.3900   3.4361   3.4670   3.5158   3.5736   3.6065   3.6690
     3.6704   3.7132   3.7718   3.8118   3.8931   3.9195   4.0195   4.0391
     4.0822   4.0941   4.1130   4.1425   4.1707   4.1808   4.2224   4.2370
     4.2700   4.3093   4.3243   4.3950   4.4086   4.4935   4.5340   4.5549
     4.6447   4.6654   4.7046   4.7249   4.7517   4.7571   4.7795   4.8466
     4.8850   4.9086   4.9279   4.9702   4.9910   5.0422   5.0696   5.0894
     5.1703   5.2122   5.2342   5.2674   5.2821   5.3178   5.3187   5.3531
     5.3565   5.3917   5.4067   5.4825   5.5289   5.5654   5.5822   5.6059
     5.6505   5.6820   5.7125   5.7188   5.7292   5.7967   5.8285   5.8418
     5.8805   5.9009   5.9358   5.9460   5.9705   5.9768   6.0290   6.0405
     6.0744   6.1183   6.1389   6.1494   6.1817   6.2115   6.2185   6.2265
     6.2526   6.2815   6.3231   6.3576   6.3899   6.3969   6.4112   6.4234
     6.4252   6.4562   6.4819   6.4995   6.5247   6.5427   6.5566   6.5669
     6.5861   6.6280   6.6313   6.6712   6.7026   6.7216   6.7596   6.7654
     6.7906   6.8026   6.8132   6.8294   6.8967   6.9150   6.9758   6.9895
     6.9902   7.0471   7.0508   7.0822   7.0922   7.1315   7.1528   7.1648
     7.1831   7.2098   7.2441   7.2501   7.2699   7.3030   7.3195   7.3448
     7.3616   7.3799   7.3808   7.4076   7.4136   7.4286   7.4561   7.4613
     7.4978   7.5191   7.5460   7.5572   7.6291   7.6433   7.6680   7.6956
     7.7242   7.7249   7.7945   7.8515   7.8528   7.9180   7.9260   7.9328
     7.9482   7.9592   7.9794   8.0020   8.0449   8.0774   8.0924   8.1258
     8.1341   8.1462   8.1811   8.1830   8.2165   8.2326   8.2577   8.2676
     8.2866   8.3212   8.3420   8.3526   8.3627   8.4048   8.4137   8.4240
     8.4505   8.4664   8.5008   8.5468   8.5473   8.6003   8.6038   8.6743
     8.6853   8.6906   8.7314   8.7331   8.7498   8.7627   8.7847   8.8026
     8.8209   8.8301   8.8584   8.8885   8.9179   8.9717   8.9873   8.9882
     8.9891   9.0356   9.0592   9.0851   9.1121   9.1127   9.1392   9.1836
     9.2057   9.2100   9.2418   9.2586   9.2742   9.2940   9.3282   9.3420
     9.3510   9.3550   9.3891   9.4476   9.4613   9.4768   9.4923   9.5045
     9.5499   9.5604   9.5871   9.5906   9.6117   9.6366   9.6407   9.6585
     9.6929   9.7145   9.7381   9.7695   9.7816   9.8190   9.8302   9.8397
     9.8500   9.8848   9.8911   9.9011   9.9012   9.9935  10.0041  10.0278
    10.0648  10.0666  10.1068  10.1115  10.1184  10.1979  10.2189  10.2233
    10.2412  10.2488  10.2518  10.2712  10.2745  10.3137  10.3444  10.3456
    10.3730  10.3919  10.4064  10.4209  10.4546  10.4773  10.5259  10.5355
    10.5570  10.5705  10.5972  10.6255

          k = 0.0000 0.0000 0.0125 (110403 PWs)   bands (ev):

   -21.1278 -20.9768 -20.6841 -20.5390 -20.4639 -20.1908 -20.1184 -19.9688
   -19.8432 -19.5405 -19.4198 -19.1633 -18.9794 -18.9246 -18.7535 -18.6428
   -18.3870 -18.3493 -18.0564 -18.0048 -17.9778 -17.7975 -17.5721 -17.4600
   -17.3197 -17.1133 -16.9993 -16.8314 -16.7045 -16.5056 -16.4726 -16.3404
   -16.1092 -16.0014 -15.9610 -15.7577 -15.6204 -15.2210 -14.9770 -14.7333
   -14.6244 -14.5100 -14.4834 -14.3557 -14.2986 -14.2127 -14.0496 -13.9175
   -13.8030 -13.4728 -13.3861 -13.3439 -13.2173 -12.7625 -12.6732 -12.3525
   -12.2895 -12.1828 -12.0822 -12.0462 -11.9650 -11.7895 -11.7348 -11.5757
   -11.4135 -11.2001 -11.1071 -11.0191 -10.8418 -10.7671 -10.7092 -10.6479
   -10.5301 -10.3972 -10.2319 -10.0905 -10.0288  -9.8903  -9.7978  -9.6918
    -9.6171  -9.4400  -9.4312  -9.3445  -9.2397  -9.2177  -9.1978  -9.1087
    -9.0218  -8.9815  -8.9295  -8.8178  -8.7608  -8.6742  -8.6564  -8.6031
    -8.5128  -8.5013  -8.4782  -8.4763  -8.4217  -8.3041  -8.1762  -8.1687
    -8.0968  -8.0675  -8.0131  -7.9901  -7.9363  -7.8659  -7.8563  -7.7621
    -7.7145  -7.6606  -7.6346  -7.4886  -7.4572  -7.4120  -7.3665  -7.3616
    -7.3133  -7.2430  -7.1005  -7.0344  -6.9348  -6.8909  -6.7723  -6.7499
    -6.6874  -6.6602  -6.5475  -6.4775  -6.4580  -6.4162  -6.3440  -6.3207
    -6.1791  -6.1000  -6.0426  -6.0407  -5.7082  -5.6495  -5.5872  -5.5576
    -5.4680  -5.4193  -5.2647  -5.2644  -5.2556  -5.0851  -4.9784  -4.8192
    -4.6780  -4.5616  -4.4287  -4.1800  -4.1409  -4.0740  -3.9747  -3.8029
    -3.7698  -3.4637  -3.1040  -2.6879  -2.2863  -1.4832  -1.0965  -0.6756
    -0.6105  -0.3081  -0.2446  -0.1870   0.0163   0.1575   0.2473   0.3130
     0.5103   0.8324   0.8853   1.1310   1.1623   1.2453   1.2929   1.3566
     1.4226   1.6649   1.6980   1.7757   1.8299   1.8457   1.9386   2.0012
     2.0092   2.0623   2.1800   2.2943   2.3180   2.3356   2.3781   2.3979
     2.5751   2.6169   2.6672   2.6913   2.7546   2.7578   2.8662   2.8670
     2.9209   3.0283   3.0381   3.1345   3.1864   3.1954   3.2813   3.3455
     3.3681   3.3860   3.4368   3.4737   3.5241   3.5602   3.6050   3.6403
     3.6507   3.7395   3.7502   3.8049   3.8984   3.9550   3.9966   4.0545
     4.0593   4.1005   4.1075   4.1435   4.1621   4.1887   4.2131   4.2316
     4.2689   4.3180   4.3468   4.4113   4.4212   4.4430   4.5047   4.5933
     4.6437   4.6553   4.6825   4.7015   4.7439   4.7549   4.7854   4.8320
     4.8799   4.8999   4.9269   4.9677   5.0063   5.0270   5.1031   5.1179
     5.1671   5.1758   5.2563   5.2686   5.2769   5.3040   5.3269   5.3609
     5.3659   5.3960   5.4301   5.5172   5.5447   5.5545   5.5852   5.5993
     5.6453   5.6715   5.6917   5.7247   5.7893   5.8049   5.8055   5.8469
     5.8499   5.8806   5.9130   5.9241   5.9702   5.9970   6.0017   6.0168
     6.0555   6.0844   6.1291   6.1352   6.1717   6.1748   6.2077   6.2182
     6.2630   6.2923   6.3365   6.3705   6.4030   6.4103   6.4125   6.4205
     6.4371   6.4392   6.4815   6.4966   6.5329   6.5465   6.5559   6.5684
     6.5886   6.6512   6.6594   6.6785   6.6870   6.7421   6.7643   6.7968
     6.8024   6.8220   6.8261   6.8418   6.8917   6.9151   6.9561   6.9856
     6.9904   7.0502   7.0528   7.0886   7.0976   7.1429   7.1595   7.1939
     7.2017   7.2074   7.2260   7.2416   7.2521   7.2728   7.3283   7.3305
     7.3339   7.3749   7.3862   7.4053   7.4098   7.4344   7.4365   7.4947
     7.5176   7.5254   7.5475   7.5714   7.6308   7.6418   7.7014   7.7018
     7.7456   7.7571   7.7928   7.8376   7.8481   7.9004   7.9243   7.9411
     7.9599   7.9650   7.9727   8.0038   8.0657   8.0686   8.0774   8.1338
     8.1388   8.1607   8.1755   8.1825   8.2109   8.2259   8.2739   8.2836
     8.2913   8.3065   8.3311   8.3342   8.3719   8.3825   8.4350   8.4375
     8.4514   8.4670   8.5108   8.5330   8.5577   8.5780   8.6051   8.6465
     8.6818   8.7076   8.7077   8.7257   8.7427   8.7524   8.7573   8.8082
     8.8174   8.8556   8.8633   8.8875   8.8992   8.9291   8.9625   8.9779
     8.9839   9.0388   9.0571   9.0743   9.1058   9.1109   9.1484   9.1598
     9.2159   9.2241   9.2572   9.2657   9.2926   9.3098   9.3131   9.3449
     9.3486   9.3821   9.4240   9.4425   9.4485   9.4761   9.4902   9.5070
     9.5609   9.5743   9.5813   9.6016   9.6293   9.6334   9.6440   9.6486
     9.6803   9.6930   9.7212   9.7507   9.7847   9.7973   9.8026   9.8342
     9.8507   9.8560   9.8721   9.9137   9.9353   9.9697   9.9948  10.0285
    10.0554  10.0727  10.1023  10.1106  10.1211  10.1728  10.1986  10.2072
    10.2170  10.2541  10.2630  10.2780  10.2846  10.3290  10.3409  10.3446
    10.3640  10.3913  10.4088  10.4355  10.4552  10.4768  10.5267  10.5418
    10.5502  10.5796  10.5890  10.6017

          k = 0.0000 0.0000 0.0141 (110411 PWs)   bands (ev):

   -21.1248 -20.9731 -20.6971 -20.5546 -20.4663 -20.1726 -20.0965 -19.9683
   -19.8395 -19.5441 -19.4181 -19.1565 -18.9889 -18.9356 -18.7948 -18.6598
   -18.3837 -18.3403 -18.0573 -17.9902 -17.9391 -17.7994 -17.5584 -17.4501
   -17.3431 -17.1092 -16.9816 -16.8232 -16.6854 -16.5072 -16.4597 -16.3550
   -16.1375 -16.0307 -15.9818 -15.7701 -15.6182 -15.2694 -15.0105 -14.7253
   -14.6142 -14.4630 -14.4401 -14.3353 -14.2652 -14.1921 -14.0539 -13.9103
   -13.8085 -13.4733 -13.4019 -13.3271 -13.2199 -12.7727 -12.6952 -12.3718
   -12.2692 -12.1762 -12.1286 -12.0925 -12.0006 -11.7763 -11.7419 -11.5495
   -11.4279 -11.1729 -11.0890 -10.9862 -10.8257 -10.7741 -10.7251 -10.6220
   -10.5527 -10.3948 -10.2712 -10.1064 -10.0132  -9.8848  -9.8160  -9.6872
    -9.6055  -9.4461  -9.3994  -9.3268  -9.2096  -9.1944  -9.1941  -9.1243
    -9.0172  -8.9635  -8.9302  -8.8020  -8.7684  -8.6897  -8.6482  -8.6117
    -8.5209  -8.5194  -8.5037  -8.4920  -8.4242  -8.2955  -8.1694  -8.1569
    -8.0840  -8.0776  -7.9862  -7.9846  -7.9316  -7.8644  -7.8459  -7.7826
    -7.7101  -7.6475  -7.6373  -7.5098  -7.4615  -7.4597  -7.3706  -7.3691
    -7.3418  -7.2404  -7.0947  -7.0249  -6.9267  -6.9246  -6.7847  -6.7376
    -6.6945  -6.6745  -6.5520  -6.5057  -6.4470  -6.4004  -6.3650  -6.2967
    -6.1592  -6.0950  -6.0309  -6.0132  -5.7282  -5.6211  -5.5647  -5.5472
    -5.4777  -5.4207  -5.2730  -5.2643  -5.2530  -5.0804  -4.9891  -4.8304
    -4.6560  -4.5637  -4.4035  -4.1741  -4.1342  -4.0718  -3.9892  -3.8134
    -3.7773  -3.4692  -3.1086  -2.7270  -2.3364  -1.4357  -1.0581  -0.6747
    -0.6054  -0.2936  -0.2276  -0.1611   0.0320   0.1415   0.2464   0.2994
     0.4913   0.8197   0.8946   1.1232   1.1683   1.2513   1.2797   1.3615
     1.4127   1.6638   1.6980   1.7505   1.8158   1.8173   1.9343   1.9885
     1.9989   2.0216   2.1734   2.2660   2.3282   2.3512   2.3703   2.4377
     2.5821   2.6188   2.6712   2.6862   2.7616   2.7639   2.8819   2.8930
     2.9088   3.0352   3.0681   3.1394   3.1623   3.2449   3.3149   3.3215
     3.3882   3.3924   3.4214   3.5110   3.5307   3.5546   3.5936   3.6207
     3.6408   3.7127   3.7823   3.7981   3.9043   3.9704   3.9877   4.0107
     4.0594   4.0738   4.1239   4.1465   4.1606   4.1947   4.2217   4.2458
     4.2771   4.3266   4.3739   4.3906   4.4220   4.4462   4.4774   4.6014
     4.6226   4.6302   4.6810   4.6906   4.7359   4.7629   4.8074   4.8143
     4.8603   4.8942   4.9406   4.9453   4.9974   5.0445   5.1192   5.1390
     5.1580   5.1811   5.2190   5.2709   5.2834   5.3205   5.3269   5.3781
     5.3869   5.3915   5.4672   5.5217   5.5236   5.5511   5.5661   5.6220
     5.6313   5.6689   5.7242   5.7325   5.7760   5.8050   5.8130   5.8439
     5.8596   5.8795   5.8795   5.9218   5.9615   5.9661   5.9841   6.0144
     6.0241   6.0634   6.0834   6.1255   6.1272   6.1913   6.2078   6.2298
     6.2658   6.2996   6.3443   6.3543   6.3782   6.4134   6.4138   6.4353
     6.4383   6.4469   6.4884   6.5210   6.5452   6.5554   6.5636   6.5751
     6.5833   6.6502   6.6574   6.6967   6.7296   6.7589   6.7672   6.7988
     6.8265   6.8300   6.8441   6.8700   6.8892   6.9054   6.9654   6.9691
     6.9892   7.0365   7.0438   7.0923   7.1004   7.1489   7.1509   7.1803
     7.1917   7.2108   7.2228   7.2439   7.2558   7.2754   7.3234   7.3317
     7.3426   7.3536   7.3858   7.3914   7.3935   7.4285   7.4704   7.5021
     7.5395   7.5531   7.5815   7.5933   7.6272   7.6343   7.7014   7.7358
     7.7644   7.7693   7.7894   7.8339   7.8469   7.8734   7.9211   7.9403
     7.9520   7.9758   7.9896   8.0126   8.0598   8.0676   8.0680   8.1477
     8.1526   8.1600   8.1739   8.1956   8.1969   8.2132   8.2437   8.2602
     8.3066   8.3167   8.3231   8.3358   8.3542   8.4114   8.4277   8.4524
     8.4617   8.4727   8.4852   8.5467   8.5652   8.5712   8.6069   8.6253
     8.6423   8.6899   8.7008   8.7289   8.7378   8.7634   8.7782   8.7831
     8.8168   8.8511   8.8759   8.8868   8.9089   8.9224   8.9415   8.9617
     8.9702   9.0333   9.0473   9.0669   9.1087   9.1088   9.1392   9.1547
     9.2153   9.2262   9.2459   9.2729   9.2867   9.3000   9.3198   9.3653
     9.3730   9.3981   9.4219   9.4477   9.4787   9.4842   9.4898   9.5183
     9.5622   9.5759   9.5913   9.6066   9.6088   9.6336   9.6412   9.6509
     9.6579   9.6731   9.7251   9.7352   9.7552   9.7830   9.7832   9.8259
     9.8310   9.8506   9.9089   9.9376   9.9486   9.9629   9.9868  10.0203
    10.0329  10.0588  10.1041  10.1067  10.1081  10.1367  10.1669  10.1854
    10.1955  10.2437  10.2550  10.2892  10.3014  10.3154  10.3315  10.3484
    10.3891  10.4135  10.4318  10.4444  10.4503  10.4780  10.5219  10.5357
    10.5502  10.5789  10.5885  10.5986

          k = 0.0000 0.0000 0.0156 (110441 PWs)   bands (ev):

   -21.1214 -20.9689 -20.7105 -20.5709 -20.4674 -20.1556 -20.0741 -19.9667
   -19.8348 -19.5496 -19.4133 -19.1526 -19.0126 -18.9303 -18.8356 -18.6760
   -18.3813 -18.3315 -18.0722 -17.9771 -17.8953 -17.7883 -17.5455 -17.4408
   -17.3668 -17.1081 -16.9575 -16.8169 -16.6670 -16.5121 -16.4458 -16.3645
   -16.1756 -16.0621 -16.0005 -15.7769 -15.6162 -15.3181 -15.0450 -14.7207
   -14.6033 -14.4115 -14.3950 -14.3200 -14.2304 -14.1716 -14.0563 -13.8993
   -13.8109 -13.4809 -13.4190 -13.3033 -13.2251 -12.7831 -12.7155 -12.3943
   -12.2576 -12.2013 -12.1815 -12.1102 -12.0199 -11.7647 -11.7396 -11.5219
   -11.4410 -11.1520 -11.0686 -10.9621 -10.8224 -10.7830 -10.7503 -10.5904
   -10.5545 -10.3897 -10.3090 -10.1261  -9.9949  -9.8836  -9.8288  -9.6923
    -9.5858  -9.4610  -9.3701  -9.2969  -9.1987  -9.1900  -9.1594  -9.1313
    -9.0120  -8.9517  -8.9247  -8.7846  -8.7801  -8.7056  -8.6346  -8.6258
    -8.5501  -8.5413  -8.5082  -8.4999  -8.4252  -8.2877  -8.1633  -8.1477
    -8.0965  -8.0600  -7.9830  -7.9595  -7.9248  -7.8607  -7.8365  -7.8103
    -7.7041  -7.6477  -7.6277  -7.5358  -7.5040  -7.4639  -7.4007  -7.3777
    -7.3387  -7.2333  -7.0885  -7.0172  -6.9612  -6.9168  -6.7998  -6.7467
    -6.7058  -6.6675  -6.5604  -6.5529  -6.4242  -6.3860  -6.3687  -6.2748
    -6.1360  -6.0912  -6.0197  -5.9839  -5.7490  -5.6125  -5.5728  -5.5032
    -5.4884  -5.4041  -5.2823  -5.2738  -5.2429  -5.0765  -5.0021  -4.8375
    -4.6355  -4.5659  -4.3766  -4.1789  -4.1224  -4.0642  -4.0062  -3.8268
    -3.7835  -3.4725  -3.1140  -2.7680  -2.3860  -1.3890  -1.0181  -0.6732
    -0.6002  -0.2872  -0.2011  -0.1303   0.0453   0.1248   0.2456   0.2891
     0.4720   0.7910   0.9164   1.1099   1.1750   1.2579   1.2746   1.3669
     1.4048   1.6589   1.6985   1.7294   1.7683   1.7897   1.9021   1.9529
     1.9877   2.0613   2.1683   2.2385   2.3273   2.3351   2.4099   2.4780
     2.5854   2.6151   2.6684   2.6880   2.7709   2.7791   2.8684   2.8966
     2.9498   3.0423   3.0954   3.1312   3.1517   3.2780   3.3055   3.3512
     3.3682   3.3909   3.4447   3.5239   3.5463   3.5508   3.5746   3.6334
     3.6416   3.6846   3.7922   3.8102   3.9106   3.9449   3.9714   4.0111
     4.0112   4.0804   4.1202   4.1484   4.1845   4.1877   4.2565   4.2582
     4.2855   4.3360   4.3532   4.4113   4.4247   4.4544   4.4662   4.5410
     4.6006   4.6485   4.6847   4.6899   4.7152   4.7889   4.7969   4.8181
     4.8460   4.8940   4.9243   4.9600   4.9745   5.0623   5.0827   5.1516
     5.1855   5.1912   5.1989   5.2759   5.2906   5.3220   5.3319   5.3895
     5.3956   5.4162   5.4846   5.4856   5.5078   5.5555   5.5723   5.6024
     5.6562   5.6867   5.7369   5.7540   5.7720   5.7797   5.8132   5.8282
     5.8462   5.8783   5.8884   5.9322   5.9343   5.9473   5.9642   5.9983
     6.0121   6.0278   6.0735   6.0801   6.1323   6.1972   6.2110   6.2486
     6.2665   6.2934   6.3032   6.3529   6.3653   6.3658   6.4179   6.4474
     6.4499   6.4949   6.5079   6.5272   6.5615   6.5647   6.5764   6.5854
     6.6025   6.6493   6.6632   6.7120   6.7573   6.7695   6.7729   6.7947
     6.8178   6.8485   6.8501   6.8979   6.9013   6.9350   6.9484   6.9694
     6.9977   7.0147   7.0302   7.0836   7.1022   7.1214   7.1467   7.1596
     7.1612   7.1960   7.2354   7.2443   7.2632   7.2969   7.3135   7.3468
     7.3505   7.3550   7.3735   7.3901   7.4013   7.4453   7.5016   7.5150
     7.5455   7.5699   7.6117   7.6141   7.6386   7.6457   7.7004   7.7502
     7.7678   7.7790   7.7797   7.8120   7.8553   7.8688   7.9259   7.9310
     7.9628   7.9714   8.0110   8.0269   8.0593   8.0607   8.0628   8.1313
     8.1358   8.1669   8.1761   8.1774   8.1903   8.2192   8.2251   8.2683
     8.2893   8.3115   8.3282   8.3449   8.3632   8.3659   8.4296   8.4532
     8.4700   8.5084   8.5113   8.5269   8.5345   8.5551   8.5860   8.6445
     8.6577   8.6750   8.7134   8.7172   8.7263   8.7622   8.7701   8.8068
     8.8258   8.8274   8.8748   8.8855   8.9178   8.9254   8.9428   8.9550
     8.9748   9.0109   9.0454   9.0622   9.0716   9.1063   9.1467   9.1582
     9.1926   9.2101   9.2502   9.2673   9.2685   9.2949   9.3462   9.3739
     9.4027   9.4164   9.4239   9.4564   9.4621   9.4874   9.5250   9.5531
     9.5540   9.5769   9.5840   9.5926   9.5959   9.6021   9.6258   9.6542
     9.6740   9.6788   9.7097   9.7213   9.7265   9.7688   9.7806   9.8310
     9.8396   9.8482   9.9303   9.9372   9.9635   9.9681   9.9831  10.0090
    10.0144  10.0481  10.0660  10.0910  10.0988  10.1264  10.1394  10.1631
    10.1740  10.2154  10.2359  10.2915  10.3155  10.3363  10.3413  10.3521
    10.3816  10.3969  10.4042  10.4507  10.4748  10.4993  10.5246  10.5394
    10.5458  10.5478  10.5860  10.5871

          k = 0.0000 0.0000 0.0172 (110449 PWs)   bands (ev):

   -21.1178 -20.9643 -20.7240 -20.5874 -20.4678 -20.1402 -20.0517 -19.9630
   -19.8289 -19.5567 -19.4059 -19.1529 -19.0398 -18.9177 -18.8758 -18.6913
   -18.3795 -18.3239 -18.0906 -17.9724 -17.8483 -17.7653 -17.5336 -17.4319
   -17.3904 -17.1076 -16.9299 -16.8125 -16.6507 -16.5177 -16.4342 -16.3681
   -16.2181 -16.0983 -16.0158 -15.7795 -15.6143 -15.3669 -15.0800 -14.7178
   -14.5912 -14.3593 -14.3530 -14.3060 -14.1943 -14.1507 -14.0568 -13.8840
   -13.8100 -13.4926 -13.4367 -13.2763 -13.2329 -12.7947 -12.7326 -12.4202
   -12.2941 -12.2377 -12.2074 -12.1117 -12.0238 -11.7554 -11.7280 -11.4947
   -11.4515 -11.1394 -11.0447 -10.9494 -10.8277 -10.7958 -10.7733 -10.5800
   -10.5236 -10.3778 -10.3426 -10.1497  -9.9749  -9.8901  -9.8342  -9.6993
    -9.5679  -9.4717  -9.3487  -9.2616  -9.2038  -9.1856  -9.1236  -9.1200
    -9.0063  -8.9526  -8.9068  -8.7940  -8.7646  -8.7217  -8.6466  -8.6151
    -8.5865  -8.5618  -8.5229  -8.4876  -8.4252  -8.2812  -8.1611  -8.1455
    -8.0982  -8.0446  -7.9856  -7.9343  -7.9161  -7.8532  -7.8498  -7.8221
    -7.6964  -7.6526  -7.6213  -7.5676  -7.5386  -7.4677  -7.4290  -7.3868
    -7.3271  -7.2226  -7.0825  -7.0169  -6.9887  -6.9118  -6.8167  -6.7814
    -6.6899  -6.6655  -6.5991  -6.5710  -6.4064  -6.4040  -6.3295  -6.2546
    -6.1099  -6.0884  -6.0086  -5.9549  -5.7708  -5.6184  -5.5818  -5.5001
    -5.4565  -5.3736  -5.2924  -5.2843  -5.2340  -5.0732  -5.0174  -4.8397
    -4.6171  -4.5681  -4.3494  -4.1856  -4.1134  -4.0530  -4.0255  -3.8404
    -3.7898  -3.4734  -3.1203  -2.8103  -2.4353  -1.3432  -0.9773  -0.6708
    -0.5949  -0.2851  -0.1674  -0.0977   0.0548   0.1095   0.2446   0.2828
     0.4525   0.7590   0.9355   1.0955   1.1823   1.2653   1.2751   1.3727
     1.3988   1.6485   1.6957   1.7073   1.7174   1.7633   1.8293   1.9637
     1.9761   2.1040   2.1638   2.2129   2.3083   2.3421   2.4506   2.5189
     2.5809   2.6140   2.6605   2.6953   2.7789   2.7986   2.8498   2.9105
     2.9919   3.0489   3.1088   3.1195   3.1576   3.2629   3.3275   3.3393
     3.3857   3.3884   3.4736   3.5054   3.5466   3.5474   3.5866   3.6461
     3.6581   3.6771   3.7880   3.8188   3.9164   3.9196   3.9519   3.9624
     4.0196   4.0779   4.1255   4.1410   4.1785   4.2319   4.2502   4.2804
     4.2944   4.3481   4.3596   4.4126   4.4402   4.4554   4.4751   4.4804
     4.5855   4.6330   4.6801   4.7018   4.7235   4.7619   4.7973   4.8334
     4.8520   4.8956   4.9062   4.9550   4.9849   5.0301   5.0827   5.1186
     5.1871   5.2206   5.2333   5.2712   5.2986   5.3171   5.3417   5.3746
     5.4100   5.4398   5.4568   5.4701   5.5296   5.5428   5.5716   5.6232
     5.6768   5.7134   5.7296   5.7455   5.7537   5.7944   5.8048   5.8148
     5.8407   5.8573   5.8898   5.9059   5.9101   5.9149   5.9701   5.9879
     6.0130   6.0265   6.0395   6.0915   6.1415   6.1974   6.2151   6.2320
     6.2663   6.2688   6.3039   6.3125   6.3459   6.3626   6.4124   6.4489
     6.4581   6.5166   6.5271   6.5497   6.5812   6.5842   6.6020   6.6031
     6.6359   6.6528   6.6737   6.7114   6.7408   6.7775   6.7902   6.7939
     6.8116   6.8631   6.8664   6.8949   6.9228   6.9349   6.9725   6.9795
     6.9959   7.0129   7.0182   7.0727   7.0784   7.1017   7.1054   7.1406
     7.1735   7.1882   7.2190   7.2379   7.2608   7.3162   7.3184   7.3383
     7.3497   7.3738   7.3917   7.4101   7.4207   7.4765   7.5260   7.5285
     7.5524   7.5806   7.6067   7.6297   7.6504   7.6976   7.7072   7.7300
     7.7646   7.7765   7.7778   7.8099   7.8526   7.8754   7.9079   7.9476
     7.9744   7.9831   8.0113   8.0415   8.0552   8.0701   8.0760   8.0945
     8.1127   8.1195   8.1720   8.1730   8.2066   8.2077   8.2267   8.2636
     8.2873   8.2991   8.3202   8.3449   8.3449   8.3905   8.4204   8.4495
     8.4644   8.4734   8.4893   8.5429   8.5498   8.5799   8.5996   8.6435
     8.6682   8.6808   8.6881   8.7036   8.7358   8.7507   8.7875   8.8159
     8.8229   8.8583   8.8651   8.8795   8.9167   8.9174   8.9334   8.9714
     8.9766   9.0018   9.0314   9.0578   9.0765   9.1044   9.1186   9.1570
     9.1603   9.2048   9.2333   9.2621   9.2793   9.3144   9.3265   9.3802
     9.4107   9.4371   9.4511   9.4513   9.4724   9.4733   9.5381   9.5412
     9.5446   9.5534   9.5681   9.5910   9.5955   9.6046   9.6447   9.6601
     9.6642   9.6802   9.7053   9.7091   9.7280   9.7551   9.8035   9.8169
     9.8582   9.8641   9.9171   9.9178   9.9473   9.9737   9.9979  10.0022
    10.0117  10.0236  10.0601  10.0662  10.0747  10.1278  10.1337  10.1432
    10.1641  10.1653  10.2350  10.2930  10.3107  10.3375  10.3505  10.3552
    10.3568  10.3920  10.4079  10.4097  10.4537  10.4767  10.5149  10.5417
    10.5546  10.5589  10.5806  10.6145

          k = 0.0000 0.0000 0.0188 (110471 PWs)   bands (ev):

   -21.1140 -20.9593 -20.7375 -20.6037 -20.4676 -20.1269 -20.0302 -19.9564
   -19.8217 -19.5646 -19.3966 -19.1597 -19.0645 -18.9164 -18.9006 -18.7056
   -18.3782 -18.3185 -18.1101 -17.9727 -17.7996 -17.7349 -17.5229 -17.4242
   -17.4124 -17.1061 -16.9010 -16.8097 -16.6387 -16.5212 -16.4265 -16.3684
   -16.2588 -16.1388 -16.0287 -15.7796 -15.6129 -15.4151 -15.1152 -14.7154
   -14.5780 -14.3339 -14.3090 -14.2740 -14.1578 -14.1288 -14.0543 -13.8654
   -13.8048 -13.5065 -13.4544 -13.2518 -13.2398 -12.8092 -12.7446 -12.4509
   -12.3615 -12.2913 -12.1965 -12.1163 -12.0123 -11.7447 -11.7118 -11.4777
   -11.4496 -11.1352 -11.0183 -10.9499 -10.8365 -10.8240 -10.7791 -10.5730
   -10.4916 -10.3764 -10.3460 -10.1766  -9.9547  -9.9035  -9.8332  -9.7053
    -9.5583  -9.4731  -9.3311  -9.2451  -9.1969  -9.1809  -9.1025  -9.0863
    -9.0002  -8.9563  -8.8844  -8.8084  -8.7422  -8.7377  -8.6658  -8.6279
    -8.5936  -8.5821  -8.5360  -8.4720  -8.4246  -8.2763  -8.1700  -8.1450
    -8.0883  -8.0320  -7.9919  -7.9125  -7.9071  -7.8872  -7.8401  -7.8146
    -7.6871  -7.6646  -7.6243  -7.6014  -7.5631  -7.4704  -7.4471  -7.3969
    -7.3119  -7.2094  -7.0779  -7.0390  -6.9936  -6.9107  -6.8348  -6.8181
    -6.6731  -6.6675  -6.6403  -6.5830  -6.4259  -6.3835  -6.2885  -6.2354
    -6.0862  -6.0818  -5.9986  -5.9261  -5.7936  -5.6296  -5.5918  -5.5127
    -5.4100  -5.3356  -5.3034  -5.2957  -5.2257  -5.0704  -5.0344  -4.8369
    -4.6011  -4.5705  -4.3240  -4.1901  -4.1074  -4.0515  -4.0376  -3.8531
    -3.7948  -3.4718  -3.1278  -2.8531  -2.4839  -1.2983  -0.9365  -0.6670
    -0.5895  -0.2843  -0.1294  -0.0673   0.0600   0.0989   0.2424   0.2819
     0.4327   0.7271   0.9447   1.0874   1.1904   1.2734   1.2784   1.3790
     1.3943   1.6325   1.6429   1.6863   1.7170   1.7388   1.7538   1.9644
     1.9744   2.1464   2.1572   2.1918   2.2964   2.3495   2.4916   2.5587
     2.5703   2.6188   2.6512   2.7044   2.7877   2.7978   2.8567   2.9240
     3.0338   3.0513   3.0913   3.1383   3.1657   3.2422   3.3101   3.3440
     3.3750   3.4246   3.4726   3.5167   3.5258   3.5533   3.6177   3.6289
     3.6566   3.7304   3.7875   3.7957   3.8956   3.9165   3.9237   3.9635
     4.0104   4.0827   4.0995   4.1586   4.1740   4.2323   4.2773   4.2842
     4.3246   4.3678   4.3758   4.4046   4.4183   4.4478   4.4680   4.4912
     4.5805   4.6148   4.6579   4.7039   4.7313   4.7641   4.7723   4.8531
     4.8637   4.8976   4.8977   4.9425   4.9866   5.0144   5.0662   5.1028
     5.1822   5.2443   5.2624   5.2698   5.3060   5.3116   5.3403   5.3521
     5.4021   5.4321   5.4700   5.4875   5.5096   5.5523   5.6043   5.6463
     5.6880   5.6947   5.7392   5.7402   5.7581   5.7783   5.7902   5.8003
     5.8204   5.8391   5.8800   5.8825   5.8962   5.9118   5.9271   5.9919
     6.0052   6.0243   6.0775   6.1206   6.1528   6.1708   6.1952   6.2211
     6.2580   6.2671   6.2874   6.2998   6.3249   6.3647   6.4017   6.4505
     6.4680   6.5175   6.5438   6.5639   6.5931   6.6239   6.6315   6.6350
     6.6615   6.6712   6.6804   6.7014   6.7420   6.7768   6.7869   6.7956
     6.8217   6.8689   6.8693   6.8827   6.9206   6.9304   6.9893   6.9944
     6.9993   7.0178   7.0312   7.0385   7.0543   7.0902   7.0949   7.1247
     7.1817   7.1891   7.1950   7.2300   7.2518   7.3033   7.3331   7.3490
     7.3710   7.3814   7.4188   7.4297   7.4410   7.5034   7.5429   7.5517
     7.5607   7.5846   7.6110   7.6498   7.6636   7.6928   7.7171   7.7448
     7.7503   7.7608   7.7893   7.8325   7.8424   7.8882   7.9025   7.9413
     7.9837   7.9920   8.0031   8.0417   8.0524   8.0623   8.0781   8.0882
     8.1067   8.1081   8.1506   8.1690   8.1864   8.2161   8.2213   8.2381
     8.2666   8.2727   8.3174   8.3577   8.3722   8.3916   8.4117   8.4286
     8.4365   8.4642   8.4840   8.5640   8.5788   8.6023   8.6164   8.6420
     8.6550   8.6644   8.7007   8.7032   8.7197   8.7429   8.8095   8.8221
     8.8372   8.8551   8.8893   8.8930   8.9020   8.9136   8.9254   8.9449
     8.9764   9.0085   9.0510   9.0515   9.0845   9.1036   9.1037   9.1366
     9.1488   9.2031   9.2308   9.2551   9.2633   9.2843   9.3602   9.3681
     9.3982   9.4207   9.4478   9.4693   9.4813   9.4930   9.5025   9.5333
     9.5342   9.5605   9.5662   9.5693   9.5927   9.6154   9.6264   9.6646
     9.6789   9.6957   9.7097   9.7327   9.7379   9.7536   9.7934   9.8291
     9.8569   9.8791   9.8905   9.9121   9.9293   9.9490   9.9891  10.0043
    10.0109  10.0251  10.0392  10.0668  10.0694  10.1104  10.1234  10.1347
    10.1395  10.1804  10.2326  10.2688  10.2788  10.3295  10.3324  10.3389
    10.3731  10.3767  10.3883  10.4156  10.4297  10.4525  10.4799  10.5501
    10.5534  10.5783  10.5928  10.6359

          k = 0.0000 0.0000 0.0203 (110491 PWs)   bands (ev):

   -21.1100 -20.9540 -20.7508 -20.6197 -20.4671 -20.1160 -20.0109 -19.9453
   -19.8133 -19.5728 -19.3860 -19.1753 -19.0829 -18.9547 -18.8827 -18.7187
   -18.3773 -18.3162 -18.1296 -17.9739 -17.7505 -17.7011 -17.5134 -17.4364
   -17.4130 -17.1026 -16.8732 -16.8083 -16.6331 -16.5199 -16.4218 -16.3774
   -16.2860 -16.1814 -16.0404 -15.7785 -15.6127 -15.4620 -15.1503 -14.7127
   -14.5640 -14.3356 -14.2669 -14.2213 -14.1251 -14.1058 -14.0441 -13.8459
   -13.7937 -13.5214 -13.4719 -13.2600 -13.2173 -12.8268 -12.7507 -12.4891
   -12.4321 -12.3434 -12.1905 -12.1199 -11.9900 -11.7308 -11.6943 -11.4811
   -11.4252 -11.1380 -10.9915 -10.9641 -10.8588 -10.8414 -10.7781 -10.5655
   -10.4719 -10.3937 -10.3059 -10.2055  -9.9454  -9.9110  -9.8289  -9.7110
    -9.5551  -9.4678  -9.3151  -9.2568  -9.1759  -9.1663  -9.0761  -9.0594
    -8.9935  -8.9547  -8.8615  -8.8225  -8.7536  -8.7189  -8.6850  -8.6622
    -8.6020  -8.5809  -8.5431  -8.4545  -8.4236  -8.2730  -8.1873  -8.1435
    -8.0740  -8.0225  -8.0011  -7.9311  -7.8962  -7.8948  -7.8200  -7.8074
    -7.6859  -7.6761  -7.6550  -7.6089  -7.5858  -7.4669  -7.4580  -7.4070
    -7.2941  -7.1945  -7.0841  -7.0595  -6.9904  -6.9169  -6.8533  -6.8501
    -6.6972  -6.6724  -6.6379  -6.5955  -6.4444  -6.3632  -6.2474  -6.2163
    -6.0843  -6.0523  -5.9910  -5.8978  -5.8175  -5.6405  -5.6028  -5.5260
    -5.3670  -5.3152  -5.3079  -5.2941  -5.2162  -5.0683  -5.0518  -4.8295
    -4.5880  -4.5732  -4.3033  -4.1904  -4.1043  -4.0714  -4.0324  -3.8650
    -3.7957  -3.4679  -3.1368  -2.8957  -2.5320  -1.2546  -0.8968  -0.6612
    -0.5840  -0.2832  -0.0891  -0.0464   0.0667   0.0945   0.2378   0.2878
     0.4125   0.6968   0.9386   1.0917   1.1992   1.2821   1.2821   1.3858
     1.3901   1.5797   1.6125   1.6751   1.6782   1.7107   1.7273   1.9532
     1.9787   2.1427   2.1806   2.1864   2.2947   2.3574   2.5289   2.5565
     2.6028   2.6269   2.6415   2.7146   2.7782   2.7973   2.8856   2.9370
     3.0408   3.0703   3.0942   3.1469   3.1747   3.2285   3.2816   3.3403
     3.3673   3.4513   3.4525   3.5135   3.5406   3.5797   3.6028   3.6422
     3.6664   3.7536   3.7714   3.8027   3.8758   3.8778   3.9327   3.9929
     3.9933   4.0713   4.0932   4.1207   4.2118   4.2281   4.2914   4.3221
     4.3447   4.3577   4.3601   4.3992   4.4321   4.4496   4.4561   4.5298
     4.5733   4.6083   4.6293   4.6967   4.7105   4.7496   4.8060   4.8451
     4.8641   4.8961   4.9220   4.9382   4.9443   5.0278   5.0581   5.0967
     5.1666   5.2477   5.2581   5.2899   5.3023   5.3067   5.3330   5.3565
     5.3638   5.4585   5.4788   5.4810   5.5265   5.5791   5.6392   5.6476
     5.6615   5.6969   5.7292   5.7426   5.7499   5.7611   5.7819   5.7823
     5.8110   5.8243   5.8522   5.8574   5.8757   5.9095   5.9338   5.9791
     6.0095   6.0517   6.0963   6.1103   6.1615   6.1750   6.1942   6.2035
     6.2297   6.2702   6.2790   6.3038   6.3130   6.3545   6.4077   6.4556
     6.4774   6.5228   6.5583   6.5608   6.5719   6.6421   6.6611   6.6634
     6.6904   6.6985   6.7005   6.7292   6.7497   6.7681   6.7719   6.8039
     6.8384   6.8539   6.8541   6.8764   6.9159   6.9174   6.9802   6.9820
     7.0021   7.0143   7.0220   7.0493   7.0594   7.0749   7.1039   7.1332
     7.1726   7.1793   7.2135   7.2248   7.2488   7.2839   7.3265   7.3850
     7.3860   7.4011   7.4286   7.4307   7.4816   7.5033   7.5495   7.5591
     7.5833   7.6123   7.6207   7.6613   7.6712   7.6916   7.7139   7.7368
     7.7495   7.7615   7.8164   7.8382   7.8671   7.8689   7.9316   7.9338
     7.9723   7.9779   7.9955   7.9971   8.0381   8.0545   8.0800   8.1014
     8.1116   8.1355   8.1404   8.1636   8.1709   8.1835   8.2111   8.2430
[...]
    -5.4352  -5.4292  -5.4039  -5.1616  -5.0751  -4.8995  -4.8596  -4.7119
    -4.6272  -4.5616  -4.4332  -4.2556  -4.2075  -4.1177  -4.0118  -3.7654
    -3.6261  -3.4511  -3.3513  -3.0832  -2.8964  -0.9561  -0.7533  -0.5485
    -0.4088  -0.2224  -0.1942  -0.0482   0.0862   0.2084   0.3992   0.4357
     0.5821   0.6024   0.6708   0.9091   0.9949   1.2788   1.3093   1.3256
     1.3902   1.4116   1.4600   1.5037   1.5421   1.6081   1.7838   1.8280
     1.8908   1.9498   2.2076   2.3917   2.3988   2.4820   2.5034   2.5830
     2.6756   2.7326   2.8426   2.8441   2.8964   2.9402   2.9587   2.9933
     2.9945   3.0263   3.0761   3.1584   3.2273   3.2539   3.2837   3.2868
     3.3164   3.3260   3.3605   3.3951   3.5225   3.5250   3.6212   3.6277
     3.6500   3.7635   3.7637   3.8338   3.8415   3.8657   3.9145   4.0469
     4.1062   4.1319   4.1489   4.1511   4.2047   4.2229   4.3120   4.3549
     4.3838   4.3913   4.4017   4.4509   4.4586   4.4788   4.5351   4.5517
     4.5813   4.6110   4.6702   4.6811   4.7065   4.7939   4.8098   4.8366
     4.8389   4.8767   4.8928   4.9314   4.9525   4.9705   5.0241   5.0291
     5.1119   5.1646   5.2056   5.2246   5.2490   5.2510   5.2759   5.3603
     5.3795   5.4285   5.4467   5.4581   5.4785   5.4791   5.5339   5.5721
     5.5770   5.5854   5.6563   5.6913   5.7183   5.7243   5.7773   5.7831
     5.8231   5.8421   5.8471   5.8618   5.9157   5.9506   6.0035   6.0283
     6.0417   6.0579   6.0908   6.1611   6.1632   6.1988   6.2041   6.2233
     6.2523   6.2665   6.2783   6.2867   6.3756   6.3816   6.4348   6.4471
     6.4586   6.5029   6.5323   6.5606   6.5940   6.5951   6.6390   6.6826
     6.7009   6.7055   6.7361   6.7427   6.7759   6.7819   6.8037   6.8156
     6.8348   6.8579   6.8934   6.9173   6.9405   6.9761   6.9840   7.0081
     7.0272   7.0348   7.0792   7.0958   7.1393   7.1410   7.1842   7.2221
     7.2451   7.2514   7.2988   7.3383   7.3455   7.3874   7.3894   7.4013
     7.4208   7.4346   7.4539   7.4640   7.4658   7.4754   7.5034   7.5098
     7.5308   7.5546   7.5852   7.6352   7.6575   7.6631   7.6633   7.7187
     7.7458   7.7650   7.8099   7.8304   7.8344   7.8442   7.8897   7.9086
     7.9302   7.9611   7.9817   8.0167   8.0240   8.0497   8.0650   8.0814
     8.1165   8.1427   8.1483   8.1898   8.2048   8.2208   8.2426   8.2805
     8.3121   8.3225   8.3632   8.3753   8.3782   8.4246   8.4329   8.4519
     8.4654   8.4770   8.4868   8.5125   8.5753   8.5832   8.5978   8.6209
     8.6373   8.6545   8.6593   8.6643   8.7059   8.7197   8.7482   8.7797
     8.8063   8.8302   8.8472   8.8537   8.8646   8.9217   8.9477   8.9591
     8.9688   9.0040   9.0585   9.0590   9.0841   9.0881   9.1241   9.1384
     9.2024   9.2276   9.2425   9.2708   9.2737   9.3122   9.3186   9.3302
     9.3498   9.3617   9.4143   9.4423   9.4734   9.4782   9.4796   9.4811
     9.5303   9.5431   9.5563   9.5688   9.6098   9.6317   9.6322   9.6412
     9.6518   9.6689   9.6797   9.7145   9.7270   9.7423   9.7520   9.7858
     9.7924   9.8165   9.8406   9.8440   9.8694   9.8749   9.8809   9.9578
     9.9704   9.9735  10.0032  10.0307  10.0569  10.0760  10.0813  10.1023
    10.1304  10.1360  10.1864  10.2020  10.2499  10.2533  10.2723  10.3221
    10.3430  10.3602  10.3697  10.3933  10.4072  10.4270  10.4426  10.4554
    10.4963  10.4989  10.5187  10.5694

          k = 0.0000 0.0000 0.0360 (110524 PWs)   bands (ev):

   -21.0733 -20.8873 -20.8582 -20.7342 -20.4587 -20.0981 -19.9209 -19.7365
   -19.6705 -19.5779 -19.5180 -19.2640 -19.2507 -19.1521 -18.7953 -18.6307
   -18.5143 -18.3513 -18.2415 -17.8480 -17.7525 -17.4669 -17.4581 -17.2066
   -17.1502 -17.0105 -16.9723 -16.9214 -16.7833 -16.6099 -16.4741 -16.3937
   -16.3045 -16.1876 -16.0627 -15.8996 -15.7974 -15.5496 -15.4263 -14.6215
   -14.5192 -14.4196 -14.1655 -14.0989 -13.8696 -13.7641 -13.6805 -13.6468
   -13.5117 -13.4924 -13.4259 -13.3696 -13.2540 -13.2019 -13.1296 -12.8157
   -12.6137 -12.5763 -12.4867 -11.9338 -11.7306 -11.5687 -11.5173 -11.4024
   -11.3543 -11.3208 -11.2373 -11.0551 -10.9328 -10.8367 -10.7288 -10.5737
   -10.4496 -10.3647 -10.3073 -10.1053  -9.9612  -9.8110  -9.7086  -9.6373
    -9.5188  -9.4493  -9.3599  -9.3114  -9.1678  -9.1300  -9.1254  -8.9628
    -8.9115  -8.8780  -8.8446  -8.7540  -8.7485  -8.6978  -8.5814  -8.5595
    -8.4917  -8.4559  -8.4413  -8.4105  -8.3949  -8.3822  -8.3333  -8.3009
    -8.2750  -8.2408  -8.0816  -8.0210  -7.9094  -7.8990  -7.8943  -7.8004
    -7.7424  -7.6021  -7.5855  -7.5739  -7.4958  -7.4802  -7.4400  -7.3651
    -7.2926  -7.2367  -7.1642  -7.0809  -7.0673  -7.0377  -7.0097  -6.9183
    -6.9120  -6.8006  -6.6709  -6.5685  -6.3237  -6.2596  -6.1856  -6.0590
    -6.0392  -5.9749  -5.8924  -5.7884  -5.7631  -5.6961  -5.6569  -5.5297
    -5.4455  -5.4369  -5.4276  -5.1644  -5.0737  -4.8688  -4.8269  -4.7149
    -4.6288  -4.5647  -4.4592  -4.2566  -4.2232  -4.1165  -4.0170  -3.7268
    -3.6115  -3.4836  -3.3552  -3.0824  -2.9197  -0.9410  -0.7533  -0.5447
    -0.3841  -0.2172  -0.1968  -0.0672   0.0659   0.2070   0.4409   0.4584
     0.5925   0.6249   0.6830   0.8500   0.9276   1.2800   1.3248   1.3319
     1.3916   1.4083   1.4596   1.4890   1.5584   1.6022   1.7613   1.8418
     1.8870   1.9342   2.2108   2.3869   2.4138   2.4932   2.4984   2.5661
     2.7144   2.7466   2.8267   2.8573   2.8870   2.9397   2.9778   2.9829
     3.0184   3.0298   3.0706   3.1751   3.2177   3.2441   3.2541   3.2882
     3.3023   3.3277   3.3684   3.3784   3.5415   3.5668   3.5800   3.6152
     3.6566   3.7518   3.7760   3.7842   3.8456   3.8527   3.9534   4.0620
     4.1184   4.1288   4.1576   4.1716   4.1825   4.2221   4.3190   4.3498
     4.3670   4.4046   4.4066   4.4525   4.4716   4.4948   4.5325   4.5497
     4.5880   4.6215   4.6448   4.6737   4.6944   4.7700   4.8182   4.8418
     4.8622   4.8843   4.8868   4.9526   4.9641   4.9960   5.0283   5.0371
     5.0904   5.1511   5.1681   5.2051   5.2083   5.2376   5.2813   5.3810
     5.3878   5.4443   5.4595   5.4616   5.4670   5.5086   5.5152   5.5285
     5.5798   5.5891   5.6346   5.6464   5.7197   5.7357   5.7614   5.7961
     5.8283   5.8479   5.8494   5.8605   5.9154   5.9780   5.9887   6.0538
     6.0627   6.0780   6.0888   6.1605   6.1969   6.2015   6.2118   6.2193
     6.2441   6.2551   6.2727   6.3031   6.3549   6.3801   6.4016   6.4150
     6.4603   6.4949   6.5086   6.5584   6.5854   6.5963   6.6463   6.6964
     6.7195   6.7299   6.7328   6.7428   6.7713   6.7931   6.7965   6.8141
     6.8184   6.8845   6.9101   6.9272   6.9517   6.9754   6.9894   7.0183
     7.0368   7.0506   7.0655   7.0887   7.1658   7.1857   7.1895   7.2011
     7.2296   7.2567   7.2785   7.3340   7.3500   7.3572   7.3781   7.3870
     7.4189   7.4291   7.4438   7.4594   7.4665   7.4945   7.5008   7.5197
     7.5539   7.5548   7.5921   7.6477   7.6482   7.6499   7.6641   7.7139
     7.7326   7.7589   7.8004   7.8180   7.8441   7.8541   7.8660   7.9107
     7.9369   7.9600   7.9900   8.0018   8.0255   8.0373   8.0655   8.0829
     8.1417   8.1419   8.1709   8.1730   8.2000   8.2364   8.2494   8.2781
     8.2792   8.3256   8.3730   8.3848   8.3866   8.4242   8.4469   8.4627
     8.4925   8.4989   8.5023   8.5403   8.5810   8.5885   8.6007   8.6320
     8.6379   8.6459   8.6495   8.6831   8.6913   8.7144   8.7208   8.7636
     8.7765   8.7995   8.8276   8.8383   8.8647   8.9077   8.9141   8.9232
     8.9316   9.0043   9.0324   9.0904   9.0999   9.1244   9.1371   9.1655
     9.2190   9.2437   9.2527   9.2667   9.2848   9.3130   9.3268   9.3313
     9.3639   9.3720   9.4173   9.4325   9.4497   9.4790   9.4896   9.5032
     9.5348   9.5511   9.5663   9.5794   9.5896   9.5966   9.6247   9.6305
     9.6497   9.6705   9.6944   9.7038   9.7315   9.7478   9.7553   9.7868
     9.7883   9.8083   9.8269   9.8443   9.8616   9.8638   9.8918   9.9322
     9.9513   9.9805  10.0068  10.0173  10.0343  10.0780  10.0832  10.1116
    10.1224  10.1451  10.1978  10.2198  10.2203  10.2372  10.2595  10.3139
    10.3386  10.3551  10.3738  10.3902  10.3946  10.4363  10.4386  10.4458
    10.5213  10.5288  10.5450  10.5509

          k = 0.0000 0.0000 0.0376 (110516 PWs)   bands (ev):

   -21.0721 -20.8802 -20.8658 -20.7376 -20.4584 -20.0985 -19.9188 -19.7357
   -19.6412 -19.5755 -19.5460 -19.2723 -19.2475 -19.1563 -18.7966 -18.6048
   -18.5401 -18.3511 -18.2440 -17.8264 -17.7753 -17.4649 -17.4588 -17.1559
   -17.1140 -17.0471 -17.0106 -16.9057 -16.8042 -16.6177 -16.4703 -16.3735
   -16.3255 -16.1561 -16.0812 -15.9074 -15.8023 -15.5469 -15.4357 -14.6110
   -14.5321 -14.4144 -14.1692 -14.0978 -13.8477 -13.7812 -13.6776 -13.6310
   -13.5171 -13.4349 -13.3775 -13.3276 -13.2953 -13.2639 -13.1912 -12.8101
   -12.5918 -12.5784 -12.5177 -11.9257 -11.7262 -11.5483 -11.5137 -11.3995
   -11.3578 -11.3361 -11.2468 -11.0657 -10.9211 -10.8273 -10.7508 -10.5681
   -10.4287 -10.3656 -10.3323 -10.0910  -9.9701  -9.8089  -9.6938  -9.6282
    -9.5166  -9.4390  -9.3753  -9.3131  -9.1841  -9.1340  -9.1285  -8.9576
    -8.9037  -8.8859  -8.8391  -8.7553  -8.7531  -8.6786  -8.5611  -8.5358
    -8.4907  -8.4483  -8.4377  -8.4100  -8.4029  -8.3853  -8.3588  -8.3018
    -8.2856  -8.2530  -8.0942  -8.0218  -7.9150  -7.9004  -7.8949  -7.7978
    -7.7382  -7.6025  -7.5823  -7.5680  -7.4932  -7.4544  -7.4472  -7.3624
    -7.3180  -7.2250  -7.1739  -7.0981  -7.0683  -7.0308  -7.0052  -6.9221
    -6.9113  -6.8084  -6.6724  -6.5710  -6.2912  -6.2578  -6.2178  -6.0590
    -6.0330  -5.9777  -5.8667  -5.8018  -5.7533  -5.7070  -5.6518  -5.5073
    -5.4524  -5.4507  -5.4418  -5.1660  -5.0729  -4.8418  -4.8131  -4.7115
    -4.6355  -4.5680  -4.4742  -4.2610  -4.2301  -4.1156  -4.0203  -3.6963
    -3.5993  -3.5156  -3.3554  -3.0807  -2.9350  -0.9317  -0.7536  -0.5422
    -0.3683  -0.2185  -0.1899  -0.0831   0.0524   0.2061   0.4703   0.4801
     0.5653   0.6632   0.7270   0.7982   0.8634   1.2803   1.3363   1.3407
     1.3754   1.4223   1.4528   1.4814   1.5706   1.5984   1.7452   1.8544
     1.8823   1.9231   2.2128   2.3836   2.4246   2.4929   2.5044   2.5518
     2.7519   2.7593   2.8121   2.8493   2.8856   2.9220   2.9793   3.0055
     3.0207   3.0517   3.0701   3.1895   3.2115   3.2233   3.2395   3.2545
     3.3187   3.3286   3.3558   3.4021   3.5342   3.5578   3.5988   3.6229
     3.6655   3.7270   3.7418   3.7952   3.8371   3.8494   3.9970   4.0752
     4.0990   4.1173   4.1276   4.1965   4.2229   4.2283   4.3231   4.3243
     4.3461   4.4018   4.4160   4.4455   4.4963   4.5130   4.5364   4.5743
     4.5962   4.6081   4.6185   4.6533   4.6994   4.7508   4.8167   4.8254
     4.8734   4.8854   4.9159   4.9695   4.9995   5.0118   5.0329   5.0591
     5.0618   5.1153   5.1402   5.1682   5.2011   5.2104   5.3175   5.3865
     5.4027   5.4474   5.4602   5.4632   5.4687   5.4971   5.5138   5.5327
     5.5941   5.5956   5.5986   5.6239   5.6812   5.7313   5.7802   5.8162
     5.8313   5.8488   5.8559   5.8625   5.9167   5.9559   5.9931   6.0566
     6.0869   6.1104   6.1184   6.1546   6.1865   6.1883   6.2014   6.2159
     6.2553   6.2580   6.2879   6.3285   6.3416   6.3562   6.3826   6.3962
     6.4569   6.4715   6.5006   6.5614   6.5808   6.5983   6.6488   6.7118
     6.7225   6.7300   6.7352   6.7549   6.7861   6.7920   6.7951   6.8046
     6.8230   6.8832   6.8963   6.9179   6.9695   6.9899   7.0213   7.0400
     7.0527   7.0644   7.0672   7.0826   7.1387   7.1556   7.1946   7.2304
     7.2398   7.2626   7.2923   7.3166   7.3290   7.3427   7.3449   7.3564
     7.3937   7.4405   7.4547   7.4652   7.4794   7.5001   7.5184   7.5244
     7.5528   7.5913   7.6066   7.6351   7.6430   7.6441   7.6758   7.7015
     7.7199   7.7555   7.7860   7.7964   7.8290   7.8562   7.8937   7.8943
     7.9439   7.9637   7.9928   7.9931   8.0216   8.0463   8.0687   8.0858
     8.1298   8.1565   8.1685   8.1888   8.1970   8.2280   8.2439   8.2767
     8.2882   8.3172   8.3729   8.3874   8.3986   8.4255   8.4525   8.4529
     8.5019   8.5260   8.5482   8.5497   8.5900   8.5963   8.6016   8.6230
     8.6400   8.6516   8.6602   8.6716   8.6897   8.7144   8.7290   8.7523
     8.7524   8.7708   8.7748   8.8396   8.8514   8.8807   8.8892   8.9234
     8.9269   8.9879   9.0064   9.1103   9.1281   9.1480   9.1819   9.1835
     9.2120   9.2396   9.2552   9.2783   9.2942   9.3010   9.3243   9.3360
     9.3645   9.3790   9.3998   9.4260   9.4647   9.4884   9.5132   9.5187
     9.5296   9.5420   9.5469   9.5598   9.5764   9.6035   9.6054   9.6213
     9.6633   9.6708   9.6937   9.7253   9.7272   9.7513   9.7697   9.7861
     9.7990   9.8174   9.8260   9.8471   9.8581   9.8597   9.8745   9.9081
     9.9212   9.9745   9.9862  10.0007  10.0532  10.0627  10.1115  10.1160
    10.1491  10.1586  10.1678  10.1884  10.2184  10.2343  10.2595  10.3093
    10.3335  10.3466  10.3829  10.3961  10.3974  10.4308  10.4420  10.4479
    10.5221  10.5339  10.5515  10.5679

          k = 0.0000 0.0000-0.0391 (110500 PWs)   bands (ev):

   -21.0717 -20.8732 -20.8729 -20.7387 -20.4583 -20.0987 -19.9180 -19.7355
   -19.6250 -19.5793 -19.5570 -19.2757 -19.2457 -19.1579 -18.7970 -18.5886
   -18.5563 -18.3510 -18.2448 -17.8111 -17.7910 -17.4640 -17.4593 -17.1185
   -17.1040 -17.0680 -17.0335 -16.8980 -16.8132 -16.6204 -16.4691 -16.3574
   -16.3417 -16.1375 -16.0959 -15.9093 -15.8042 -15.5459 -15.4390 -14.6065
   -14.5373 -14.4126 -14.1704 -14.0974 -13.8367 -13.7909 -13.6769 -13.6241
   -13.5243 -13.3836 -13.3390 -13.3350 -13.3320 -13.2685 -13.2338 -12.8081
   -12.5880 -12.5664 -12.5373 -11.9228 -11.7250 -11.5353 -11.5183 -11.3985
   -11.3593 -11.3407 -11.2504 -11.0695 -10.9166 -10.8222 -10.7606 -10.5666
   -10.4146 -10.3732 -10.3402 -10.0857  -9.9737  -9.8082  -9.6913  -9.6199
    -9.5223  -9.4153  -9.4005  -9.3092  -9.1904  -9.1372  -9.1279  -8.9556
    -8.8985  -8.8911  -8.8376  -8.7557  -8.7547  -8.6696  -8.5470  -8.5431
    -8.4864  -8.4324  -8.4302  -8.4213  -8.4099  -8.3830  -8.3740  -8.3000
    -8.2902  -8.2568  -8.0987  -8.0221  -7.9169  -7.9014  -7.8945  -7.7969
    -7.7367  -7.6027  -7.5839  -7.5622  -7.4928  -7.4600  -7.4299  -7.3695
    -7.3244  -7.2192  -7.1791  -7.1043  -7.0685  -7.0284  -7.0034  -6.9236
    -6.9110  -6.8111  -6.6729  -6.5718  -6.2685  -6.2572  -6.2404  -6.0590
    -6.0309  -5.9786  -5.8526  -5.8134  -5.7453  -5.7141  -5.6495  -5.4928
    -5.4654  -5.4548  -5.4435  -5.1665  -5.0727  -4.8221  -4.8200  -4.7062
    -4.6411  -4.5692  -4.4788  -4.2635  -4.2316  -4.1154  -4.0215  -3.6838
    -3.5925  -3.5314  -3.3551  -3.0800  -2.9404  -0.9286  -0.7537  -0.5413
    -0.3630  -0.2195  -0.1856  -0.0898   0.0478   0.2058   0.4746   0.5033
     0.5447   0.6864   0.7549   0.7810   0.8194   1.2804   1.3379   1.3538
     1.3620   1.4333   1.4436   1.4798   1.5753   1.5971   1.7392   1.8611
     1.8787   1.9189   2.2135   2.3824   2.4288   2.4905   2.5101   2.5450
     2.7655   2.7734   2.8052   2.8321   2.8982   2.9075   2.9873   2.9946
     3.0435   3.0520   3.0704   3.1968   3.2093   3.2209   3.2288   3.2378
     3.3289   3.3325   3.3416   3.4191   3.5146   3.5683   3.5881   3.6694
     3.6717   3.6774   3.7376   3.8041   3.8278   3.8508   4.0281   4.0647
     4.0896   4.1152   4.1160   4.2074   4.2223   4.2750   4.2775   4.3254
     4.3453   4.3982   4.4230   4.4384   4.5070   4.5151   4.5589   4.5717
     4.6022   4.6056   4.6077   4.6460   4.6822   4.7663   4.7937   4.8284
     4.8735   4.8882   4.9344   4.9718   5.0176   5.0313   5.0343   5.0483
     5.0721   5.0851   5.1317   5.1472   5.2007   5.2013   5.3337   5.3863
     5.4215   5.4317   5.4486   5.4686   5.4760   5.4829   5.5331   5.5394
     5.5652   5.6073   5.6112   5.6196   5.6487   5.7321   5.7846   5.8282
     5.8298   5.8482   5.8590   5.8689   5.9268   5.9275   5.9976   6.0546
     6.1113   6.1312   6.1383   6.1459   6.1602   6.1727   6.1960   6.2161
     6.2554   6.2882   6.3052   6.3108   6.3239   6.3627   6.3813   6.3896
     6.4377   6.4727   6.4982   6.5639   6.5785   6.5991   6.6495   6.7215
     6.7238   6.7253   6.7403   6.7466   6.7908   6.7946   6.7983   6.8172
     6.8225   6.8678   6.8848   6.9199   6.9679   7.0250   7.0298   7.0396
     7.0530   7.0733   7.0789   7.0894   7.1135   7.1496   7.1617   7.2626
     7.2644   7.2855   7.2883   7.2883   7.3078   7.3295   7.3389   7.3560
     7.3714   7.4380   7.4701   7.4759   7.4789   7.5056   7.5145   7.5371
     7.5480   7.5929   7.6235   7.6401   7.6417   7.6448   7.6805   7.6981
     7.7026   7.7459   7.7782   7.7931   7.8243   7.8634   7.8845   7.9219
     7.9233   7.9556   7.9903   7.9940   8.0494   8.0575   8.0578   8.0942
     8.0990   8.1609   8.1791   8.1956   8.1962   8.2126   8.2444   8.2827
     8.2961   8.3103   8.3715   8.3864   8.4021   8.4350   8.4420   8.4548
     8.5010   8.5455   8.5464   8.5641   8.5958   8.5959   8.6174   8.6203
     8.6207   8.6668   8.6672   8.6843   8.6936   8.7055   8.7229   8.7344
     8.7388   8.7430   8.7974   8.8152   8.8508   8.8646   8.8854   8.9286
     8.9300   8.9803   8.9937   9.1135   9.1294   9.1778   9.2059   9.2083
     9.2148   9.2273   9.2407   9.2450   9.2974   9.3240   9.3275   9.3376
     9.3536   9.3775   9.3856   9.4580   9.4618   9.5096   9.5115   9.5135
     9.5137   9.5250   9.5562   9.5636   9.5643   9.5827   9.6157   9.6353
     9.6387   9.6811   9.6911   9.7222   9.7463   9.7812   9.7813   9.7854
     9.7925   9.8067   9.8244   9.8312   9.8501   9.8542   9.8901   9.9057
     9.9233   9.9431   9.9742  10.0101  10.0321  10.1021  10.1050  10.1296
    10.1423  10.1619  10.1627  10.1931  10.1997  10.2219  10.2713  10.2980
    10.3411  10.3472  10.3772  10.3922  10.4044  10.4409  10.4481  10.4483
    10.4974  10.5365  10.5702  10.5733

     the Fermi energy is    -1.8803 ev

     Writing output data file ANTI14-6-6_1.save/

     init_run     :     16.13s CPU     16.73s WALL (       1 calls)
     electrons    :  10759.01s CPU  10903.13s WALL (       1 calls)

     Called by init_run:
     wfcinit      :      0.00s CPU      0.00s WALL (       1 calls)
     potinit      :      1.12s CPU      1.26s WALL (       1 calls)
     hinit0       :     12.67s CPU     12.77s WALL (       1 calls)

     Called by electrons:
     c_bands      :  10758.99s CPU  10903.09s WALL (       1 calls)
     v_of_rho     :      0.84s CPU      0.91s WALL (       1 calls)
     newd         :      0.69s CPU      1.01s WALL (       1 calls)

     Called by c_bands:
     init_us_2    :      0.54s CPU      0.61s WALL (      26 calls)
     cegterg      :  10568.19s CPU  10703.71s WALL (     127 calls)

     Called by sum_band:

     Called by *egterg:
     h_psi        :   3012.37s CPU   3074.61s WALL (    2406 calls)
     s_psi        :    344.09s CPU    344.67s WALL (    2406 calls)
     g_psi        :     14.08s CPU     14.11s WALL (    2253 calls)
     cdiaghg      :   4297.53s CPU   4306.06s WALL (    2279 calls)

     Called by h_psi:
     h_psi:pot    :   3005.56s CPU   3058.98s WALL (    2406 calls)
     h_psi:calbec :    382.63s CPU    387.87s WALL (    2406 calls)
     vloc_psi     :   2278.78s CPU   2326.17s WALL (    2406 calls)
     add_vuspsi   :    344.12s CPU    344.89s WALL (    2406 calls)

     General routines
     calbec       :    382.62s CPU    387.84s WALL (    2406 calls)
     fft          :      0.95s CPU      1.02s WALL (      14 calls)
     ffts         :      0.01s CPU      0.01s WALL (       1 calls)
     fftw         :   2148.47s CPU   2195.20s WALL (  649972 calls)
     interpolate  :      0.09s CPU      0.10s WALL (       1 calls)
     davcio       :      0.00s CPU      4.04s WALL (      52 calls)

     Parallel routines
     fft_scatt_xy :    180.84s CPU    181.57s WALL (  649987 calls)
     fft_scatt_yz :   1387.58s CPU   1431.04s WALL (  649987 calls)

     PWSCF        :     2h59m CPU       59h 3m WALL

       7h

   This run was terminated on:  17:30:10  22Apr2021            

=------------------------------------------------------------------------------=
   JOB DONE.
=------------------------------------------------------------------------------=
