
     Program PWSCF v.6.3 starts on 22Apr2021 at 14:36:50 

     This program is part of the open-source Quantum ESPRESSO suite
     for quantum simulation of materials; please cite
         "P. Giannozzi et al., J. Phys.:Condens. Matter 21 395502 (2009);
         "P. Giannozzi et al., J. Phys.:Condens. Matter 29 465901 (2017);
          URL http://www.quantum-espresso.org", 
     in publications or presentations arising from this work. More details at
     http://www.quantum-espresso.org/quote

     Parallel version (MPI), running on    16 processors
     R & G space division:  proc/nbgrp/npool/nimage =      16
     Waiting for input...
     Reading input from standard input
     Message from routine read_cards :
     DEPRECATED: no units specified in CELL_PARAMETERS card

     Current dimensions of program PWSCF are:
     Max number of different atomic species (ntypx) = 10
     Max number of k-points (npk) =  40000
     Max angular momentum in pseudopotentials (lmaxx) =  3

     Atomic positions and unit cell read from directory:
     /home/zfwang/scratch/GNRDATASET/AGNR/ANTI14-6-6_2/ANTI14-6-6_2.save/


     Subspace diagonalization in iterative solution of the eigenvalue problem:
     a serial algorithm will be used


     Parallelization info
     --------------------
     sticks:   dense  smooth     PW     G-vecs:    dense   smooth      PW
     Min        2556     852    221               287136    55262    7339
     Max        2558     854    222               287139    55263    7342
     Sum       40909   13645   3551              4594185   884201  117443



     bravais-lattice index     =            0
     lattice parameter (alat)  =       1.8897  a.u.
     unit-cell volume          =   25873.1145 (a.u.)^3
     number of atoms/cell      =           96
     number of atomic types    =            2
     number of electrons       =       330.00
     number of Kohn-Sham states=          500
     kinetic-energy cutoff     =      40.0000  Ry
     charge density cutoff     =     480.0000  Ry
     Exchange-correlation      = PBE ( 1  4  3  4 0 0)

     celldm(1)=  18.897261  celldm(2)=   3.000000  celldm(3)=   1.278000
     celldm(4)=   0.000000  celldm(5)=   0.000000  celldm(6)=   0.000000

     crystal axes: (cart. coord. in units of alat)
               a(1) = (  10.000000   0.000000   0.000000 )  
               a(2) = (   0.000000  30.000000   0.000000 )  
               a(3) = (   0.000000   0.000000  12.780000 )  

     reciprocal axes: (cart. coord. in units 2 pi/alat)
               b(1) = (  0.100000  0.000000  0.000000 )  
               b(2) = (  0.000000  0.033333  0.000000 )  
               b(3) = (  0.000000  0.000000  0.078247 )  


     PseudoPot. # 1 for C  read from file:
     /home/zfwang/hp_home/MySoftware/qe-6.3/pseudo/C.pbe-n-rrkjus_psl.0.1.UPF
     MD5 check sum: fff530ed632a789b3b184014e67dd7f1
     Pseudo is Ultrasoft + core correction, Zval =  4.0
     Generated using "atomic" code by A. Dal Corso v.5.0.2 svn rev. 9415
     Using radial grid of 1073 points,  4 beta functions with: 
                l(1) =   0
                l(2) =   0
                l(3) =   1
                l(4) =   1
     Q(r) pseudized with 0 coefficients 


     PseudoPot. # 2 for H  read from file:
     /home/zfwang/hp_home/MySoftware/qe-6.3/pseudo/H.pbe-rrkjus_psl.0.1.UPF
     MD5 check sum: e164a6907b691c6980f16942be34de84
     Pseudo is Ultrasoft, Zval =  1.0
     Generated using "atomic" code by A. Dal Corso v.5.0.2 svn rev. 9415
     Using radial grid of  929 points,  2 beta functions with: 
                l(1) =   0
                l(2) =   0
     Q(r) pseudized with 0 coefficients 


     atomic species   valence    mass     pseudopotential
        C              4.00    12.01070     C ( 1.00)
        H              1.00     1.00794     H ( 1.00)

     No symmetry found



   Cartesian axes

     site n.     atom                  positions (alat units)
         1           C   tau(   1) = (   5.0000003   6.9746095   2.8046761  )
         2           C   tau(   2) = (   5.0000007   6.9601033   7.0715329  )
         3           C   tau(   3) = (   4.9999999   6.9825273  11.3360728  )
         4           C   tau(   4) = (   5.0000006   8.1842142   3.5424532  )
         5           C   tau(   5) = (   5.0000006   8.1720345   7.8107703  )
         6           C   tau(   6) = (   5.0000005   8.1967990  12.0668814  )
         7           C   tau(   7) = (   5.0000002   6.9825272   1.4439262  )
         8           C   tau(   8) = (   5.0000005   6.9601033   5.7084662  )
         9           C   tau(   9) = (   5.0000001   6.9746094   9.9753236  )
        10           C   tau(  10) = (   5.0000006   9.4174547   2.8368930  )
        11           C   tau(  11) = (   5.0000007   9.4052502   7.1122274  )
        12           C   tau(  12) = (   5.0000005   9.4252414  11.3653808  )
        13           C   tau(  13) = (   5.0000007  10.6513266   3.5576594  )
        14           C   tau(  14) = (   5.0000007  10.6037836   7.8412612  )
        15           C   tau(  15) = (   5.0000002  10.6690477  12.0766069  )
        16           C   tau(  16) = (   5.0000004   8.1967994   0.7131181  )
        17           C   tau(  17) = (   5.0000005   8.1720347   4.9692292  )
        18           C   tau(  18) = (   5.0000007   8.1842143   9.2375462  )
        19           C   tau(  19) = (   5.0000005   9.4252412   1.4146187  )
        20           C   tau(  20) = (   5.0000007   9.4052501   5.6677722  )
        21           C   tau(  21) = (   5.0000006   9.4174544   9.9431064  )
        22           C   tau(  22) = (   5.0000005  11.9184854   2.8345822  )
        23           C   tau(  23) = (   5.0000000  11.9106942  11.3640624  )
        24           C   tau(  24) = (   5.0000004  13.1465469   3.4934571  )
        25           C   tau(  25) = (   4.9999998  13.1470257  12.0667464  )
        26           C   tau(  26) = (   5.0000004  10.6690478   0.7033927  )
        27           C   tau(  27) = (   5.0000008  10.6037837   4.9387382  )
        28           C   tau(  28) = (   5.0000004  10.6513264   9.2223405  )
        29           C   tau(  29) = (   5.0000002  11.9106943   1.4159371  )
        30           C   tau(  30) = (   5.0000001  11.9184852   9.9454176  )
        31           C   tau(  31) = (   4.9999998  14.3758558   2.8320880  )
        32           C   tau(  32) = (   4.9999998  14.3849917  11.3650676  )
        33           C   tau(  33) = (   4.9999995  15.6399858   3.5542052  )
        34           C   tau(  34) = (   4.9999997  15.6839323   7.8402299  )
        35           C   tau(  35) = (   4.9999999  15.6283120  12.0750865  )
        36           C   tau(  36) = (   4.9999999  13.1470255   0.7132532  )
        37           C   tau(  37) = (   5.0000000  13.1465465   9.2865422  )
        38           C   tau(  38) = (   4.9999997  14.3849916   1.4149317  )
        39           C   tau(  39) = (   4.9999999  14.3758557   9.9479115  )
        40           C   tau(  40) = (   4.9999993  16.8712485   2.8364697  )
        41           C   tau(  41) = (   4.9999997  16.8760595   7.1124772  )
        42           C   tau(  42) = (   4.9999998  16.8673759  11.3651604  )
        43           C   tau(  43) = (   4.9999995  18.1023203   3.5465482  )
        44           C   tau(  44) = (   4.9999995  18.1094649   7.8127068  )
        45           C   tau(  45) = (   4.9999998  18.0978137  12.0694313  )
        46           C   tau(  46) = (   4.9999995  15.6283121   0.7049129  )
        47           C   tau(  47) = (   4.9999999  15.6839325   4.9397692  )
        48           C   tau(  48) = (   4.9999998  15.6399858   9.2257940  )
        49           C   tau(  49) = (   4.9999994  16.8673758   1.4148388  )
        50           C   tau(  50) = (   4.9999999  16.8760595   5.6675222  )
        51           C   tau(  51) = (   4.9999996  16.8712485   9.9435295  )
        52           C   tau(  52) = (   4.9999997  19.3381836   2.8344820  )
        53           C   tau(  53) = (   4.9999996  19.3432603   7.0970645  )
        54           C   tau(  54) = (   4.9999998  19.3349386  11.3572335  )
        55           C   tau(  55) = (   4.9999996  20.5753749   3.5470443  )
        56           C   tau(  56) = (   4.9999995  20.5780006   7.8082121  )
        57           C   tau(  57) = (   5.0000002  20.5724399  12.0684231  )
        58           C   tau(  58) = (   4.9999998  18.0978138   0.7105679  )
        59           C   tau(  59) = (   4.9999998  18.1094649   4.9672926  )
        60           C   tau(  60) = (   4.9999994  18.1023204   9.2334511  )
        61           C   tau(  61) = (   5.0000000  19.3349385   1.4227656  )
        62           C   tau(  62) = (   4.9999997  19.3432602   5.6829345  )
        63           C   tau(  63) = (   4.9999994  19.3381834   9.9455172  )
        64           C   tau(  64) = (   4.9999999  21.8047337   2.8435802  )
        65           C   tau(  65) = (   4.9999996  21.8089814   7.1042916  )
        66           C   tau(  66) = (   5.0000000  21.8028670  11.3651143  )
        67           C   tau(  67) = (   5.0000000  23.0145827   3.5763033  )
        68           C   tau(  68) = (   4.9999994  23.0168940   7.8392155  )
        69           C   tau(  69) = (   5.0000002  23.0119047  12.0979324  )
        70           C   tau(  70) = (   5.0000003  20.5724399   0.7115758  )
        71           C   tau(  71) = (   4.9999996  20.5780004   4.9717868  )
        72           C   tau(  72) = (   4.9999995  20.5753749   9.2329548  )
        73           C   tau(  73) = (   5.0000003  21.8028670   1.4148846  )
        74           C   tau(  74) = (   4.9999996  21.8089817   5.6757076  )
        75           C   tau(  75) = (   4.9999997  21.8047340   9.9364186  )
        76           C   tau(  76) = (   5.0000005  23.0119045   0.6820668  )
        77           C   tau(  77) = (   4.9999998  23.0168940   4.9407831  )
        78           C   tau(  78) = (   4.9999995  23.0145829   9.2036958  )
        79           H   tau(  79) = (   5.0000006   6.0177098   3.3204414  )
        80           H   tau(  80) = (   5.0000009   6.0030946   7.5872481  )
        81           H   tau(  81) = (   4.9999989   6.0294838  11.8570501  )
        82           H   tau(  82) = (   5.0000000   6.0294840   0.9229492  )
        83           H   tau(  83) = (   5.0000006   6.0030946   5.1927511  )
        84           H   tau(  84) = (   4.9999989   6.0177098   9.4595580  )
        85           H   tau(  85) = (   5.0000005  23.9692822   3.0575648  )
        86           H   tau(  86) = (   4.9999990  23.9727183   7.3221002  )
        87           H   tau(  87) = (   4.9999998  23.9669358  11.5795701  )
        88           H   tau(  88) = (   5.0000010  23.9669358   1.2004290  )
        89           H   tau(  89) = (   4.9999999  23.9727184   5.4578987  )
        90           H   tau(  90) = (   4.9999991  23.9692825   9.7224339  )
        91           H   tau(  91) = (   5.0000011  11.5399188   7.2949568  )
        92           H   tau(  92) = (   5.0000008  13.1497867   4.5785080  )
        93           H   tau(  93) = (   5.0000006  11.5399190   5.4850427  )
        94           H   tau(  94) = (   4.9999991  14.7464123   7.2964622  )
        95           H   tau(  95) = (   5.0000002  13.1497859   8.2014916  )
        96           H   tau(  96) = (   5.0000002  14.7464127   5.4835372  )

     number of k points=    26  Marzari-Vanderbilt smearing, width (Ry)=  0.0100
                       cart. coord. in units 2pi/alat
        k(    1) = (   0.0000000   0.0000000   0.0000000), wk =   0.0400000
        k(    2) = (   0.0000000   0.0000000   0.0015649), wk =   0.0800000
        k(    3) = (   0.0000000   0.0000000   0.0031299), wk =   0.0800000
        k(    4) = (   0.0000000   0.0000000   0.0046948), wk =   0.0800000
        k(    5) = (   0.0000000   0.0000000   0.0062598), wk =   0.0800000
        k(    6) = (   0.0000000   0.0000000   0.0078247), wk =   0.0800000
        k(    7) = (   0.0000000   0.0000000   0.0093897), wk =   0.0800000
        k(    8) = (   0.0000000   0.0000000   0.0109546), wk =   0.0800000
        k(    9) = (   0.0000000   0.0000000   0.0125196), wk =   0.0800000
        k(   10) = (   0.0000000   0.0000000   0.0140845), wk =   0.0800000
        k(   11) = (   0.0000000   0.0000000   0.0156495), wk =   0.0800000
        k(   12) = (   0.0000000   0.0000000   0.0172144), wk =   0.0800000
        k(   13) = (   0.0000000   0.0000000   0.0187793), wk =   0.0800000
        k(   14) = (   0.0000000   0.0000000   0.0203443), wk =   0.0800000
        k(   15) = (   0.0000000   0.0000000   0.0219092), wk =   0.0800000
        k(   16) = (   0.0000000   0.0000000   0.0234742), wk =   0.0800000
        k(   17) = (   0.0000000   0.0000000   0.0250391), wk =   0.0800000
        k(   18) = (   0.0000000   0.0000000   0.0266041), wk =   0.0800000
        k(   19) = (   0.0000000   0.0000000   0.0281690), wk =   0.0800000
        k(   20) = (   0.0000000   0.0000000   0.0297340), wk =   0.0800000
        k(   21) = (   0.0000000   0.0000000   0.0312989), wk =   0.0800000
        k(   22) = (   0.0000000   0.0000000   0.0328638), wk =   0.0800000
        k(   23) = (   0.0000000   0.0000000   0.0344288), wk =   0.0800000
        k(   24) = (   0.0000000   0.0000000   0.0359937), wk =   0.0800000
        k(   25) = (   0.0000000   0.0000000   0.0375587), wk =   0.0800000
        k(   26) = (   0.0000000   0.0000000  -0.0391236), wk =   0.0400000

     Dense  grid:  4594185 G-vectors     FFT dimensions: ( 135, 400, 180)

     Smooth grid:   884201 G-vectors     FFT dimensions: (  80, 240, 100)

     Estimated max dynamical RAM per process >       1.01 GB

     Estimated total dynamical RAM >      16.17 GB

     The potential is recalculated from file :
     /home/zfwang/scratch/GNRDATASET/AGNR/ANTI14-6-6_2/ANTI14-6-6_2.save/charge-density.dat


     negative rho (up, down):  2.164E-04 0.000E+00
     Starting wfcs are  330 randomized atomic wfcs +  170 random wfcs

     Band Structure Calculation
     Davidson diagonalization with overlap
     c_bands:  1 eigenvalues not converged
     c_bands:  1 eigenvalues not converged
     c_bands:  2 eigenvalues not converged
     c_bands:  1 eigenvalues not converged

     ethr =  3.03E-09,  avg # of iterations = 83.5

     total cpu time spent up to now is    10917.2 secs

     End of band structure calculation

          k = 0.0000 0.0000 0.0000 (110425 PWs)   bands (ev):

   -21.1732 -20.9414 -20.6001 -20.5262 -20.4151 -20.2730 -20.1911 -19.9360
   -19.9109 -19.6446 -19.3750 -19.2284 -18.8721 -18.6609 -18.5785 -18.5641
   -18.5190 -18.2809 -18.2687 -18.0091 -17.9002 -17.8343 -17.8134 -17.5516
   -17.4344 -17.0098 -16.9289 -16.9288 -16.6747 -16.6302 -16.4490 -16.2122
   -16.2083 -15.9287 -15.7958 -15.5260 -15.4491 -15.1325 -15.0502 -14.8806
   -14.7550 -14.6131 -14.5058 -14.4855 -14.4007 -14.3519 -13.9778 -13.8966
   -13.6940 -13.5306 -13.5055 -13.4379 -13.1474 -12.6227 -12.5307 -12.4029
   -12.1837 -12.1564 -12.0814 -12.0388 -11.7114 -11.6156 -11.5169 -11.5146
   -11.4697 -11.4164 -11.4082 -11.2910 -11.2817 -10.6853 -10.6488 -10.4256
   -10.3481 -10.3176 -10.1806 -10.0209 -10.0142  -9.8709  -9.8040  -9.6859
    -9.6596  -9.5744  -9.5169  -9.4212  -9.3087  -9.2638  -9.2483  -9.1162
    -9.0921  -8.9869  -8.9640  -8.8438  -8.7897  -8.6661  -8.6159  -8.5838
    -8.5542  -8.5101  -8.4797  -8.3587  -8.3501  -8.2983  -8.2078  -8.1889
    -8.1153  -8.0924  -8.0214  -7.9931  -7.8972  -7.8943  -7.8364  -7.8221
    -7.7823  -7.7187  -7.6309  -7.5159  -7.4890  -7.4563  -7.2322  -7.2268
    -7.1592  -7.0803  -7.0463  -7.0320  -6.9981  -6.8905  -6.8679  -6.8194
    -6.6521  -6.6186  -6.5847  -6.4180  -6.3986  -6.2926  -6.2629  -6.2576
    -6.2175  -6.2062  -6.1869  -5.9975  -5.8696  -5.6329  -5.6170  -5.5958
    -5.5712  -5.4511  -5.4127  -5.2379  -5.1881  -5.1539  -5.0855  -4.7706
    -4.6412  -4.6313  -4.3489  -4.3367  -4.1370  -4.0990  -3.9657  -3.8770
    -3.6516  -3.2395  -2.8788  -2.8036  -2.3137  -1.4483  -1.0039  -0.9047
    -0.6963  -0.5858  -0.3056  -0.1331  -0.0894   0.1307   0.3267   0.4484
     0.5436   0.5947   0.7898   1.1424   1.2251   1.3298   1.3954   1.4427
     1.5970   1.6136   1.7784   1.8252   1.8548   2.0102   2.0251   2.0372
     2.1004   2.1014   2.1437   2.2748   2.2807   2.2939   2.3940   2.5254
     2.5437   2.5542   2.6461   2.6909   2.7112   2.7477   2.7969   2.8532
     2.8647   2.8943   2.9488   2.9497   2.9983   3.1324   3.1783   3.1809
     3.3072   3.4425   3.4787   3.5146   3.5153   3.5892   3.5961   3.6556
     3.6957   3.7571   3.7969   3.8765   3.8796   3.8895   3.8960   3.9918
     4.0094   4.0573   4.1238   4.1979   4.2135   4.2244   4.2413   4.2740
     4.3321   4.4029   4.4148   4.4205   4.4476   4.4495   4.5671   4.5700
     4.6298   4.6316   4.6731   4.7503   4.7762   4.8028   4.8043   4.8257
     4.8651   4.9576   4.9717   4.9841   5.0330   5.0367   5.0793   5.1149
     5.1443   5.1643   5.2100   5.2382   5.2432   5.2448   5.2499   5.2768
     5.2966   5.3615   5.4394   5.4428   5.4756   5.5315   5.5345   5.5946
     5.6304   5.6470   5.7036   5.7159   5.7588   5.7793   5.8371   5.8591
     5.9785   5.9816   5.9914   6.0379   6.0392   6.0495   6.0888   6.0931
     6.1245   6.1326   6.1431   6.1710   6.1991   6.1996   6.2018   6.2150
     6.2231   6.2666   6.2765   6.3086   6.3359   6.3785   6.3809   6.4000
     6.4025   6.4149   6.4460   6.4664   6.5162   6.5402   6.5740   6.5994
     6.5999   6.6059   6.6172   6.6415   6.6646   6.6695   6.7069   6.7346
     6.7592   6.7747   6.8180   6.8290   6.8513   6.8650   6.9044   6.9170
     6.9691   6.9723   7.0434   7.0540   7.0597   7.0627   7.1240   7.1316
     7.1432   7.1443   7.2202   7.2351   7.2577   7.2726   7.3035   7.3259
     7.3416   7.3819   7.4307   7.4518   7.4700   7.4828   7.5070   7.5123
     7.5368   7.5411   7.6041   7.6360   7.6453   7.6575   7.6709   7.6988
     7.7192   7.7459   7.7662   7.7671   7.7823   7.8292   7.8670   7.8727
     7.8803   7.9415   7.9519   7.9874   7.9909   8.0673   8.0915   8.0926
     8.1107   8.1325   8.1781   8.1864   8.1988   8.2119   8.2544   8.2676
     8.3019   8.3288   8.3672   8.3927   8.4079   8.4174   8.4179   8.4242
     8.4322   8.4652   8.4849   8.5185   8.5261   8.5410   8.5759   8.6379
     8.6721   8.6977   8.7504   8.7629   8.7647   8.7921   8.8086   8.8196
     8.8226   8.8323   8.8401   8.9177   8.9241   8.9583   8.9636   8.9710
     8.9887   9.0261   9.0693   9.0710   9.1001   9.1410   9.1763   9.1841
     9.2189   9.2391   9.2479   9.2564   9.2697   9.2937   9.3247   9.3334
     9.3434   9.3478   9.3478   9.3935   9.4132   9.4285   9.4637   9.5012
     9.5125   9.5185   9.5439   9.5611   9.5807   9.6151   9.6434   9.6536
     9.6758   9.7083   9.7558   9.7954   9.7975   9.8490   9.8615   9.8716
     9.9145   9.9330   9.9387   9.9884  10.0128  10.0273  10.0333  10.0411
    10.0649  10.0765  10.1088  10.1145  10.1554  10.1669  10.1867  10.2312
    10.2441  10.2635  10.2646  10.2706  10.2788  10.2955  10.3521  10.3757
    10.3946  10.4035  10.4257  10.4287  10.4362  10.4729  10.4847  10.5198
    10.5406  10.5709  10.5837  10.6005

          k = 0.0000 0.0000 0.0016 (110415 PWs)   bands (ev):

   -21.1730 -20.9412 -20.6020 -20.5275 -20.4118 -20.2759 -20.1876 -19.9442
   -19.9027 -19.6442 -19.3748 -19.2283 -18.8727 -18.6632 -18.6063 -18.5501
   -18.5058 -18.2788 -18.2690 -18.0199 -17.8898 -17.8346 -17.8123 -17.5487
   -17.4341 -17.0148 -16.9311 -16.9229 -16.6857 -16.6168 -16.4489 -16.2288
   -16.1934 -15.9307 -15.7984 -15.5258 -15.4543 -15.1384 -15.0492 -14.8769
   -14.7505 -14.6115 -14.5124 -14.4757 -14.3996 -14.3490 -13.9843 -13.8910
   -13.6946 -13.5427 -13.4949 -13.4358 -13.1477 -12.6323 -12.5216 -12.4045
   -12.2021 -12.1390 -12.0806 -12.0373 -11.7153 -11.6142 -11.5413 -11.5158
   -11.4779 -11.4511 -11.3572 -11.2997 -11.2508 -10.6868 -10.6491 -10.4299
   -10.3532 -10.3127 -10.1868 -10.0231 -10.0060  -9.8653  -9.8113  -9.6893
    -9.6590  -9.5728  -9.5188  -9.4143  -9.3083  -9.2648  -9.2480  -9.1312
    -9.0726  -8.9867  -8.9626  -8.8480  -8.7873  -8.6650  -8.6164  -8.5854
    -8.5549  -8.5093  -8.4824  -8.3545  -8.3511  -8.2983  -8.2115  -8.1872
    -8.1106  -8.0911  -8.0261  -7.9950  -7.8970  -7.8946  -7.8361  -7.8299
    -7.7746  -7.7156  -7.6315  -7.5154  -7.4883  -7.4560  -7.2584  -7.2029
    -7.1591  -7.0810  -7.0625  -7.0461  -6.9753  -6.9193  -6.8333  -6.8173
    -6.6519  -6.6401  -6.5630  -6.4206  -6.4049  -6.2898  -6.2695  -6.2627
    -6.2409  -6.1832  -6.1734  -5.9933  -5.8733  -5.6507  -5.6172  -5.5907
    -5.5554  -5.4517  -5.4134  -5.2384  -5.1887  -5.1509  -5.0855  -4.7709
    -4.6414  -4.6316  -4.3734  -4.3099  -4.1369  -4.1004  -3.9665  -3.8775
    -3.6512  -3.2414  -2.8795  -2.8057  -2.3160  -1.4462  -1.0018  -0.9045
    -0.6948  -0.5847  -0.3035  -0.1369  -0.0848   0.1298   0.3239   0.4497
     0.5328   0.6063   0.7915   1.1427   1.2254   1.3301   1.3890   1.4406
     1.5972   1.6216   1.7783   1.7869   1.8897   1.9899   2.0196   2.0637
     2.0666   2.1268   2.1358   2.2739   2.2926   2.2949   2.4002   2.5167
     2.5247   2.5712   2.6466   2.6942   2.7114   2.7310   2.7882   2.8301
     2.8827   2.9104   2.9587   2.9625   3.0027   3.1315   3.1468   3.2143
     3.3074   3.4301   3.4784   3.5127   3.5285   3.5852   3.5895   3.6516
     3.6977   3.7627   3.7978   3.8463   3.8863   3.8976   3.9199   3.9687
     4.0325   4.0583   4.1244   4.1841   4.2165   4.2229   4.2416   4.2845
     4.3340   4.3786   4.4147   4.4277   4.4469   4.4543   4.5153   4.6070
     4.6184   4.6645   4.6761   4.7443   4.7754   4.7820   4.8240   4.8266
     4.8673   4.9369   4.9571   4.9996   5.0328   5.0479   5.0720   5.1091
     5.1342   5.1922   5.2037   5.2048   5.2486   5.2532   5.2786   5.2811
     5.2993   5.3552   5.4262   5.4541   5.4938   5.5129   5.5357   5.5722
     5.6263   5.6837   5.6995   5.7173   5.7213   5.8002   5.8567   5.8690
     5.9644   5.9755   5.9954   6.0099   6.0357   6.0638   6.0809   6.0962
     6.1157   6.1296   6.1685   6.1712   6.1781   6.1852   6.2046   6.2055
     6.2365   6.2796   6.2804   6.3276   6.3339   6.3530   6.3803   6.3962
     6.4056   6.4423   6.4542   6.4666   6.5191   6.5282   6.5463   6.5706
     6.5817   6.6180   6.6307   6.6531   6.6819   6.6922   6.7117   6.7208
     6.7508   6.7806   6.8195   6.8407   6.8514   6.8644   6.9074   6.9187
     6.9577   6.9733   7.0088   7.0524   7.0624   7.1082   7.1129   7.1248
     7.1377   7.1556   7.2102   7.2406   7.2594   7.2909   7.3119   7.3297
     7.3431   7.3822   7.3922   7.4468   7.4695   7.4840   7.5111   7.5259
     7.5327   7.5526   7.5907   7.6198   7.6272   7.6344   7.6985   7.6987
     7.7286   7.7416   7.7548   7.7957   7.7962   7.8408   7.8682   7.8704
     7.8872   7.9110   7.9520   7.9755   8.0325   8.0557   8.0829   8.1049
     8.1187   8.1352   8.1729   8.1863   8.1932   8.2146   8.2430   8.2613
     8.3153   8.3257   8.3548   8.3849   8.3876   8.4103   8.4187   8.4445
     8.4503   8.4773   8.4843   8.5078   8.5314   8.5598   8.5681   8.6363
     8.6660   8.6891   8.7332   8.7424   8.7643   8.7904   8.8110   8.8258
     8.8327   8.8390   8.8524   8.9025   8.9295   8.9542   8.9762   8.9801
     8.9976   9.0330   9.0452   9.0948   9.1006   9.1389   9.1755   9.1779
     9.2030   9.2310   9.2437   9.2575   9.2708   9.2801   9.3275   9.3282
     9.3414   9.3490   9.3589   9.3903   9.4220   9.4335   9.4674   9.4981
     9.5088   9.5245   9.5362   9.5681   9.5746   9.6098   9.6452   9.6625
     9.6907   9.7093   9.7731   9.7911   9.7923   9.8385   9.8464   9.8806
     9.8966   9.9290   9.9444   9.9939  10.0051  10.0237  10.0289  10.0477
    10.0655  10.0769  10.1076  10.1169  10.1464  10.1651  10.1730  10.2327
    10.2481  10.2626  10.2684  10.2759  10.2890  10.3086  10.3435  10.3814
    10.3920  10.4079  10.4244  10.4297  10.4354  10.4580  10.5076  10.5108
    10.5530  10.5693  10.5695  10.6072

          k = 0.0000 0.0000 0.0031 (110415 PWs)   bands (ev):

   -21.1723 -20.9409 -20.6077 -20.5305 -20.4028 -20.2831 -20.1785 -19.9586
   -19.8883 -19.6430 -19.3740 -19.2278 -18.8746 -18.6698 -18.6436 -18.5449
   -18.4762 -18.2734 -18.2683 -18.0446 -17.8680 -17.8371 -17.8056 -17.5402
   -17.4334 -17.0276 -16.9323 -16.9128 -16.7042 -16.5914 -16.4483 -16.2486
   -16.1787 -15.9373 -15.8054 -15.5252 -15.4694 -15.1554 -15.0471 -14.8655
   -14.7380 -14.6079 -14.5188 -14.4590 -14.3955 -14.3407 -13.9997 -13.8784
   -13.6963 -13.5629 -13.4792 -13.4296 -13.1483 -12.6544 -12.5021 -12.4088
   -12.2302 -12.1140 -12.0783 -12.0326 -11.7262 -11.6167 -11.5843 -11.5339
   -11.5183 -11.4370 -11.3089 -11.2967 -11.1949 -10.6917 -10.6492 -10.4443
   -10.3610 -10.3036 -10.2020 -10.0343  -9.9791  -9.8514  -9.8320  -9.6978
    -9.6568  -9.5770  -9.5136  -9.3999  -9.3061  -9.2685  -9.2472  -9.1469
    -9.0428  -8.9863  -8.9585  -8.8583  -8.7820  -8.6620  -8.6181  -8.5903
    -8.5557  -8.5077  -8.4890  -8.3538  -8.3438  -8.2982  -8.2201  -8.1825
    -8.0986  -8.0875  -8.0386  -8.0021  -7.8988  -7.8926  -7.8457  -7.8355
    -7.7594  -7.7072  -7.6333  -7.5143  -7.4862  -7.4547  -7.2889  -7.1802
    -7.1588  -7.1070  -7.0834  -7.0455  -6.9832  -6.9139  -6.8176  -6.7843
    -6.6713  -6.6515  -6.5305  -6.4280  -6.4211  -6.3086  -6.2837  -6.2624
    -6.2437  -6.1724  -6.1398  -5.9806  -5.8826  -5.6847  -5.6179  -5.5752
    -5.5312  -5.4535  -5.4133  -5.2401  -5.1903  -5.1426  -5.0854  -4.7720
    -4.6421  -4.6320  -4.3997  -4.2765  -4.1367  -4.1042  -3.9687  -3.8792
    -3.6499  -3.2469  -2.8818  -2.8116  -2.3230  -1.4397  -0.9956  -0.9038
    -0.6902  -0.5812  -0.2971  -0.1453  -0.0738   0.1269   0.3159   0.4530
     0.5123   0.6289   0.7965   1.1438   1.2265   1.3309   1.3710   1.4360
     1.5979   1.6422   1.7364   1.7779   1.9270   1.9578   2.0188   2.0330
     2.0956   2.0983   2.1714   2.2580   2.2965   2.3301   2.4148   2.4911
     2.5019   2.5892   2.6474   2.6904   2.7038   2.7119   2.7619   2.8523
     2.8608   2.9350   2.9709   3.0156   3.0181   3.1100   3.1362   3.2498
     3.3083   3.4051   3.4771   3.5073   3.5559   3.5626   3.5906   3.6314
     3.7092   3.7625   3.8123   3.8155   3.8867   3.9171   3.9373   3.9570
     4.0612   4.0613   4.1262   4.1574   4.2198   4.2207   4.2427   4.3019
     4.3340   4.3590   4.3995   4.4163   4.4352   4.4621   4.4813   4.6073
     4.6519   4.6735   4.7037   4.7409   4.7540   4.7824   4.8188   4.8447
     4.8723   4.9170   4.9292   4.9944   5.0230   5.0749   5.0769   5.0849
     5.1273   5.1945   5.1972   5.2320   5.2452   5.2662   5.2849   5.2878
     5.3305   5.3536   5.4018   5.4737   5.4942   5.5041   5.5232   5.5660
     5.6173   5.6771   5.6927   5.7218   5.7385   5.8081   5.8867   5.9102
     5.9290   5.9612   5.9826   5.9967   6.0185   6.0402   6.0993   6.1009
     6.1050   6.1291   6.1330   6.1572   6.1770   6.1924   6.1941   6.2341
     6.2489   6.2815   6.2924   6.3254   6.3263   6.3808   6.3826   6.3878
     6.4157   6.4531   6.4605   6.4828   6.4917   6.5129   6.5274   6.5528
     6.5628   6.6268   6.6378   6.6485   6.6722   6.7201   6.7371   6.7394
     6.7560   6.7855   6.8239   6.8410   6.8520   6.8643   6.9069   6.9230
     6.9369   6.9749   7.0176   7.0240   7.0656   7.0936   7.1228   7.1248
     7.1666   7.1708   7.2147   7.2206   7.2843   7.3147   7.3157   7.3300
     7.3494   7.3637   7.3833   7.4460   7.4582   7.4635   7.4955   7.5151
     7.5456   7.5644   7.5708   7.5981   7.6077   7.6259   7.6780   7.7161
     7.7224   7.7675   7.7817   7.8170   7.8351   7.8360   7.8562   7.8767
     7.8900   7.9065   7.9527   7.9787   8.0402   8.0686   8.0704   8.1229
     8.1230   8.1471   8.1701   8.1721   8.1861   8.2212   8.2236   8.2664
     8.2980   8.3226   8.3430   8.3527   8.3867   8.4134   8.4230   8.4519
     8.4774   8.4861   8.4877   8.5122   8.5471   8.5602   8.5775   8.6355
     8.6484   8.6516   8.7184   8.7318   8.7374   8.7930   8.7962   8.8319
     8.8404   8.8653   8.8860   8.8901   8.9332   8.9505   8.9849   8.9881
     9.0078   9.0521   9.0578   9.0956   9.1024   9.1498   9.1575   9.1705
     9.1730   9.1978   9.2323   9.2352   9.2697   9.2930   9.3200   9.3283
     9.3382   9.3623   9.3723   9.3833   9.4433   9.4491   9.4710   9.4836
     9.4897   9.5163   9.5371   9.5801   9.5848   9.6109   9.6493   9.6713
     9.7120   9.7284   9.7744   9.7775   9.7887   9.8221   9.8478   9.8685
     9.8821   9.9294   9.9338   9.9862   9.9881  10.0176  10.0279  10.0353
    10.0753  10.0879  10.1056  10.1150  10.1453  10.1521  10.1749  10.2309
    10.2362  10.2485  10.2748  10.2801  10.3195  10.3271  10.3478  10.3882
    10.3947  10.4115  10.4157  10.4253  10.4348  10.4689  10.5061  10.5335
    10.5512  10.5640  10.5909  10.6119

          k = 0.0000 0.0000 0.0047 (110415 PWs)   bands (ev):

   -21.1712 -20.9404 -20.6171 -20.5337 -20.3907 -20.2917 -20.1660 -19.9740
   -19.8729 -19.6409 -19.3727 -19.2270 -18.8785 -18.6815 -18.6794 -18.5441
   -18.4450 -18.2722 -18.2584 -18.0740 -17.8600 -17.8271 -17.7911 -17.5274
   -17.4321 -17.0450 -16.9336 -16.9012 -16.7209 -16.5629 -16.4471 -16.2696
   -16.1662 -15.9499 -15.8144 -15.5248 -15.4927 -15.1811 -15.0457 -14.8466
   -14.7190 -14.6059 -14.5173 -14.4416 -14.3869 -14.3272 -14.0188 -13.8645
   -13.6978 -13.5846 -13.4656 -13.4195 -13.1489 -12.6810 -12.4826 -12.4130
   -12.2595 -12.0918 -12.0731 -12.0247 -11.7435 -11.6636 -11.5985 -11.5799
   -11.5212 -11.4244 -11.2886 -11.2591 -11.1270 -10.7006 -10.6480 -10.4699
   -10.3652 -10.2944 -10.2204 -10.0491  -9.9423  -9.8628  -9.8338  -9.7078
    -9.6574  -9.5855  -9.4970  -9.3879  -9.3001  -9.2748  -9.2459  -9.1535
    -9.0133  -8.9855  -8.9507  -8.8703  -8.7756  -8.6587  -8.6215  -8.5988
    -8.5548  -8.5068  -8.4965  -8.3575  -8.3305  -8.2975  -8.2292  -8.1754
    -8.0825  -8.0823  -8.0559  -8.0150  -7.9031  -7.8867  -7.8635  -7.8348
    -7.7425  -7.6958  -7.6365  -7.5134  -7.4828  -7.4515  -7.3203  -7.1722
    -7.1582  -7.1430  -7.0922  -7.0445  -7.0131  -6.8824  -6.8116  -6.7438
    -6.6962  -6.6511  -6.4985  -6.4422  -6.4395  -6.3529  -6.2771  -6.2622
    -6.2416  -6.1552  -6.1132  -5.9611  -5.8924  -5.7222  -5.6190  -5.5528
    -5.5150  -5.4564  -5.4059  -5.2429  -5.1930  -5.1300  -5.0853  -4.7741
    -4.6447  -4.6313  -4.4218  -4.2424  -4.1362  -4.1103  -3.9721  -3.8826
    -3.6475  -3.2561  -2.8859  -2.8209  -2.3344  -1.4292  -0.9859  -0.9021
    -0.6830  -0.5752  -0.2867  -0.1548  -0.0598   0.1219   0.3041   0.4568
     0.4911   0.6540   0.8048   1.1456   1.2283   1.3324   1.3450   1.4306
     1.5990   1.6590   1.6967   1.7771   1.9255   1.9398   2.0000   2.0182
     2.0799   2.1339   2.2076   2.2383   2.2984   2.3714   2.4275   2.4509
     2.4854   2.6034   2.6323   2.6562   2.7116   2.7177   2.7531   2.8394
     2.8781   2.9533   2.9781   3.0428   3.0782   3.0857   3.1381   3.2858
     3.3098   3.3772   3.4733   3.4995   3.5379   3.5874   3.5927   3.6034
     3.7079   3.7712   3.7786   3.8462   3.8839   3.9118   3.9416   3.9924
     4.0659   4.0874   4.1274   4.1298   4.2160   4.2250   4.2444   4.3035
     4.3209   4.3700   4.3756   4.3967   4.4111   4.4171   4.5165   4.6265
     4.6496   4.6742   4.7012   4.7522   4.7675   4.7901   4.8106   4.8544
     4.8675   4.8987   4.9216   4.9690   5.0079   5.0479   5.0969   5.1029
     5.1175   5.1926   5.2052   5.2421   5.2631   5.2727   5.2954   5.3090
     5.3392   5.3797   5.3826   5.4349   5.4772   5.5293   5.5479   5.5542
     5.6049   5.6542   5.6903   5.7261   5.7894   5.8127   5.8855   5.9191
     5.9299   5.9537   5.9616   5.9819   6.0166   6.0313   6.0726   6.0854
     6.1029   6.1039   6.1228   6.1524   6.1708   6.1973   6.2105   6.2531
     6.2542   6.2721   6.3064   6.3116   6.3519   6.3694   6.3920   6.4090
     6.4158   6.4337   6.4714   6.4852   6.4896   6.4999   6.5162   6.5576
     6.5649   6.6134   6.6239   6.6469   6.6922   6.7273   6.7397   6.7430
     6.7857   6.8136   6.8313   6.8452   6.8538   6.8545   6.8686   6.9260
     6.9621   6.9794   7.0013   7.0410   7.0676   7.0835   7.1138   7.1224
     7.1752   7.1916   7.2254   7.2416   7.2684   7.3014   7.3223   7.3389
     7.3565   7.3862   7.4007   7.4366   7.4456   7.4490   7.4562   7.5074
     7.5159   7.5330   7.5716   7.5775   7.6050   7.6426   7.6700   7.7300
     7.7357   7.7754   7.8045   7.8047   7.8425   7.8497   7.8684   7.8984
     7.9082   7.9144   7.9576   7.9962   8.0303   8.0552   8.0857   8.1193
     8.1376   8.1393   8.1424   8.1857   8.2032   8.2097   8.2393   8.2632
     8.2715   8.3164   8.3221   8.3347   8.3864   8.4161   8.4237   8.4644
     8.4737   8.4886   8.5065   8.5218   8.5481   8.5748   8.5931   8.5997
     8.6279   8.6474   8.6968   8.7194   8.7263   8.7775   8.8160   8.8303
     8.8432   8.8599   8.8996   8.9296   8.9417   8.9453   8.9653   8.9944
     9.0169   9.0757   9.0795   9.0923   9.1083   9.1110   9.1444   9.1615
     9.1690   9.1912   9.2071   9.2173   9.2689   9.3083   9.3137   9.3249
     9.3374   9.3588   9.3870   9.3905   9.4535   9.4603   9.4682   9.4790
     9.4858   9.5184   9.5407   9.5810   9.5911   9.6151   9.6518   9.6830
     9.7161   9.7403   9.7523   9.7708   9.7976   9.8048   9.8321   9.8672
     9.8872   9.9266   9.9402   9.9601   9.9810  10.0037  10.0140  10.0205
    10.0640  10.0792  10.1008  10.1280  10.1633  10.1700  10.1792  10.2089
    10.2348  10.2420  10.2744  10.2842  10.3065  10.3508  10.3518  10.3918
    10.4028  10.4095  10.4180  10.4244  10.4534  10.4927  10.5102  10.5414
    10.5506  10.5755  10.5922  10.6029

          k = 0.0000 0.0000 0.0063 (110399 PWs)   bands (ev):

   -21.1696 -20.9396 -20.6294 -20.5361 -20.3787 -20.2984 -20.1518 -19.9893
   -19.8575 -19.6381 -19.3708 -19.2259 -18.8855 -18.7160 -18.6929 -18.5453
   -18.4177 -18.2718 -18.2419 -18.1030 -17.8730 -17.7995 -17.7699 -17.5113
   -17.4301 -17.0649 -16.9349 -16.8907 -16.7330 -16.5342 -16.4447 -16.2915
   -16.1561 -15.9701 -15.8226 -15.5304 -15.5168 -15.2133 -15.0466 -14.8204
   -14.6966 -14.6068 -14.5067 -14.4250 -14.3729 -14.3089 -14.0387 -13.8531
   -13.6976 -13.6066 -13.4548 -13.4066 -13.1490 -12.7091 -12.4736 -12.4102
   -12.2885 -12.0803 -12.0591 -12.0133 -11.7681 -11.7302 -11.6314 -11.5859
   -11.5222 -11.4128 -11.2731 -11.2117 -11.0541 -10.7136 -10.6450 -10.5042
   -10.3671 -10.2867 -10.2375 -10.0646  -9.9110  -9.8899  -9.8182  -9.7174
    -9.6680  -9.5823  -9.4788  -9.3836  -9.2924  -9.2785  -9.2440  -9.1494
    -8.9911  -8.9844  -8.9360  -8.8800  -8.7691  -8.6575  -8.6252  -8.6108
    -8.5516  -8.5076  -8.5029  -8.3613  -8.3203  -8.2959  -8.2334  -8.1670
    -8.0834  -8.0691  -8.0642  -8.0312  -7.9089  -7.8816  -7.8787  -7.8343
    -7.7256  -7.6837  -7.6410  -7.5142  -7.4781  -7.4456  -7.3516  -7.2108
    -7.1572  -7.1452  -7.1074  -7.0431  -7.0301  -6.8570  -6.8016  -6.7426
    -6.6771  -6.6514  -6.4800  -6.4542  -6.4533  -6.3969  -6.2711  -6.2620
    -6.2403  -6.1333  -6.0934  -5.9464  -5.8896  -5.7601  -5.6206  -5.5337
    -5.5056  -5.4605  -5.3865  -5.2467  -5.1967  -5.1147  -5.0849  -4.7779
    -4.6499  -4.6287  -4.4385  -4.2096  -4.1348  -4.1180  -3.9762  -3.8881
    -3.6441  -3.2687  -2.8927  -2.8328  -2.3499  -1.4150  -0.9736  -0.8988
    -0.6737  -0.5662  -0.2722  -0.1641  -0.0443   0.1146   0.2901   0.4556
     0.4757   0.6792   0.8164   1.1480   1.2307   1.3149   1.3344   1.4239
     1.6005   1.6212   1.7163   1.7759   1.8939   1.9144   1.9677   2.0175
     2.0970   2.1692   2.2186   2.2445   2.3010   2.3919   2.4168   2.4222
     2.4891   2.5850   2.6143   2.6571   2.7115   2.7310   2.7565   2.8252
     2.8971   2.9801   2.9828   3.0437   3.0746   3.1420   3.1586   3.3117
     3.3217   3.3500   3.4637   3.4913   3.5157   3.5743   3.5947   3.6215
     3.6887   3.7455   3.7970   3.8671   3.8806   3.9005   3.9677   4.0287
     4.0717   4.0979   4.1069   4.1360   4.2110   4.2286   4.2467   4.2804
     4.3245   4.3394   4.3500   4.3655   4.4065   4.4184   4.5521   4.6260
     4.6489   4.6571   4.6871   4.7582   4.8000   4.8024   4.8131   4.8495
     4.8654   4.8678   4.9261   4.9611   4.9891   5.0267   5.0666   5.1273
     5.1524   5.1902   5.1918   5.2594   5.2720   5.2780   5.3293   5.3339
     5.3476   5.3641   5.3701   5.4390   5.4571   5.5023   5.5754   5.5849
     5.5938   5.6514   5.6933   5.7307   5.8142   5.8375   5.8401   5.8844
     5.9208   5.9553   5.9698   6.0050   6.0236   6.0254   6.0309   6.0690
     6.0699   6.0989   6.1194   6.1501   6.1574   6.1992   6.2231   6.2514
     6.2632   6.2780   6.3032   6.3261   6.3526   6.3644   6.3743   6.3983
     6.4233   6.4511   6.4708   6.4903   6.5037   6.5047   6.5228   6.5418
     6.5577   6.6141   6.6400   6.6605   6.7026   6.7179   6.7274   6.7485
     6.7877   6.7921   6.8314   6.8488   6.8652   6.8910   6.8919   6.9057
     6.9468   7.0102   7.0131   7.0666   7.0702   7.0731   7.1155   7.1247
     7.1764   7.1807   7.1954   7.2579   7.2995   7.3077   7.3304   7.3514
     7.3613   7.3873   7.3925   7.4054   7.4388   7.4479   7.4489   7.4655
     7.5037   7.5455   7.5547   7.5568   7.5896   7.6340   7.7082   7.7242
     7.7485   7.7596   7.8164   7.8351   7.8397   7.8489   7.9042   7.9072
     7.9159   7.9328   7.9829   8.0143   8.0305   8.0487   8.0750   8.0967
     8.1295   8.1444   8.1475   8.1858   8.1895   8.2264   8.2553   8.2585
     8.2766   8.2959   8.3001   8.3491   8.3737   8.4030   8.4296   8.4591
     8.4789   8.4812   8.5082   8.5303   8.5475   8.5532   8.5934   8.6020
     8.6214   8.6568   8.6979   8.7087   8.7232   8.7635   8.8177   8.8343
     8.8463   8.8787   8.8978   8.9183   8.9368   8.9639   8.9659   8.9947
     9.0090   9.0364   9.0768   9.0906   9.1097   9.1273   9.1483   9.1635
     9.1705   9.1833   9.2035   9.2210   9.2567   9.3011   9.3092   9.3278
     9.3389   9.3579   9.4023   9.4132   9.4394   9.4433   9.4611   9.4957
     9.5057   9.5319   9.5626   9.5783   9.6005   9.6159   9.6479   9.6537
     9.7021   9.7194   9.7282   9.7739   9.7870   9.8255   9.8465   9.8530
     9.8937   9.9217   9.9480   9.9514   9.9673   9.9848  10.0086  10.0132
    10.0325  10.0624  10.0996  10.1333  10.1785  10.1887  10.1899  10.2039
    10.2289  10.2542  10.2677  10.2831  10.2978  10.3390  10.3724  10.3725
    10.4007  10.4183  10.4215  10.4395  10.4722  10.4980  10.5106  10.5244
    10.5492  10.5726  10.5847  10.5960

          k = 0.0000 0.0000 0.0078 (110397 PWs)   bands (ev):

   -21.1677 -20.9387 -20.6438 -20.5375 -20.3714 -20.2988 -20.1370 -20.0041
   -19.8425 -19.6343 -19.3682 -19.2245 -18.8974 -18.7466 -18.7081 -18.5482
   -18.3962 -18.2697 -18.2247 -18.1257 -17.8914 -17.7699 -17.7434 -17.4934
   -17.4273 -17.0863 -16.9363 -16.8830 -16.7391 -16.5077 -16.4393 -16.3138
   -16.1486 -15.9983 -15.8283 -15.5620 -15.5202 -15.2498 -15.0508 -14.7882
   -14.6743 -14.6083 -14.4888 -14.4088 -14.3537 -14.2855 -14.0582 -13.8465
   -13.6940 -13.6283 -13.4464 -13.3928 -13.1478 -12.7375 -12.4808 -12.3981
   -12.3149 -12.0775 -12.0405 -11.9985 -11.8137 -11.7853 -11.6649 -11.5860
   -11.5179 -11.4004 -11.2547 -11.1643 -10.9793 -10.7296 -10.6402 -10.5436
   -10.3708 -10.2826 -10.2478 -10.0800  -9.9455  -9.8548  -9.8094  -9.7256
    -9.6830  -9.5653  -9.4666  -9.3847  -9.2957  -9.2656  -9.2416  -9.1363
    -8.9832  -8.9831  -8.9119  -8.8821  -8.7624  -8.6616  -8.6264  -8.6258
    -8.5476  -8.5099  -8.5075  -8.3645  -8.3186  -8.2932  -8.2274  -8.1593
    -8.1047  -8.0630  -8.0479  -8.0452  -7.9157  -7.8994  -7.8708  -7.8336
    -7.7091  -7.6723  -7.6469  -7.5179  -7.4720  -7.4386  -7.3794  -7.2597
    -7.1700  -7.1557  -7.1065  -7.0413  -7.0335  -6.8474  -6.7942  -6.7491
    -6.6535  -6.6325  -6.5001  -6.4719  -6.4381  -6.4287  -6.2670  -6.2597
    -6.2415  -6.1080  -6.0784  -5.9489  -5.8646  -5.7948  -5.6226  -5.5386
    -5.4807  -5.4658  -5.3584  -5.2517  -5.2015  -5.0984  -5.0837  -4.7842
    -4.6570  -4.6240  -4.4494  -4.1823  -4.1308  -4.1251  -3.9805  -3.8961
    -3.6395  -3.2845  -2.9032  -2.8455  -2.3691  -1.3975  -0.9606  -0.8921
    -0.6629  -0.5538  -0.2541  -0.1724  -0.0278   0.1049   0.2751   0.4401
     0.4755   0.7030   0.8312   1.1512   1.2339   1.2833   1.3370   1.4150
     1.5703   1.6023   1.7528   1.7741   1.8633   1.8676   1.9360   2.0163
     2.1305   2.1884   2.2160   2.2820   2.3043   2.3350   2.4020   2.4426
     2.5084   2.5455   2.6226   2.6612   2.7126   2.7353   2.7676   2.8265
     2.9096   2.9868   3.0132   3.0152   3.1025   3.1490   3.2304   3.3141
     3.3212   3.3609   3.4469   3.4810   3.5003   3.5472   3.5978   3.6558
     3.6640   3.7133   3.8283   3.8397   3.9008   3.9158   3.9935   4.0614
     4.0643   4.0876   4.1167   4.1424   4.2049   4.2240   4.2492   4.2650
     4.3007   4.3091   4.3292   4.3311   4.4196   4.4416   4.5875   4.5885
     4.6156   4.6786   4.6946   4.7535   4.7876   4.8037   4.8249   4.8372
     4.8627   4.8749   4.9170   4.9678   4.9831   5.0165   5.0457   5.1436
     5.1533   5.1947   5.1971   5.2629   5.2863   5.2869   5.3152   5.3406
     5.3617   5.3747   5.3927   5.4298   5.4361   5.5005   5.5665   5.6134
     5.6228   5.6647   5.6997   5.7336   5.7950   5.8192   5.8382   5.8779
     5.8839   5.9622   5.9780   5.9815   6.0218   6.0269   6.0345   6.0431
     6.0560   6.1030   6.1114   6.1339   6.1627   6.1939   6.2278   6.2412
     6.2475   6.2924   6.3037   6.3218   6.3496   6.3511   6.3791   6.4049
     6.4435   6.4608   6.4675   6.4767   6.4928   6.5224   6.5242   6.5669
     6.5864   6.6055   6.6473   6.6734   6.7033   6.7070   6.7335   6.7423
     6.7447   6.8045   6.8313   6.8342   6.8695   6.8947   6.9362   6.9393
     6.9498   7.0296   7.0345   7.0587   7.0710   7.0829   7.1235   7.1390
     7.1422   7.1757   7.1890   7.2714   7.3064   7.3280   7.3308   7.3481
     7.3549   7.3708   7.3784   7.4063   7.4161   7.4252   7.4506   7.4634
     7.5012   7.5252   7.5543   7.5837   7.5984   7.6170   7.6608   7.7484
     7.7697   7.7823   7.8100   7.8366   7.8451   7.8698   7.9043   7.9217
     7.9406   7.9434   8.0044   8.0178   8.0485   8.0508   8.0606   8.0779
     8.1207   8.1530   8.1532   8.1793   8.1878   8.2296   8.2526   8.2556
     8.2635   8.2985   8.3234   8.3483   8.3826   8.3894   8.4330   8.4331
     8.4466   8.4888   8.4977   8.5187   8.5352   8.5392   8.5933   8.6238
     8.6375   8.6731   8.7001   8.7177   8.7190   8.7629   8.7946   8.8415
     8.8764   8.8797   8.8880   8.8970   8.8992   8.9639   8.9758   8.9762
     8.9950   9.0277   9.0718   9.0955   9.0978   9.1369   9.1539   9.1610
     9.1749   9.1947   9.1970   9.2399   9.2671   9.2935   9.3056   9.3345
     9.3416   9.3815   9.3946   9.4175   9.4259   9.4299   9.4608   9.5252
     9.5312   9.5356   9.5691   9.6017   9.6081   9.6150   9.6266   9.6358
     9.6662   9.7018   9.7222   9.7293   9.7668   9.8486   9.8501   9.8827
     9.8949   9.9038   9.9273   9.9415   9.9496   9.9866   9.9870   9.9937
    10.0564  10.0582  10.0989  10.1329  10.1552  10.1992  10.2019  10.2211
    10.2345  10.2541  10.2690  10.2752  10.3136  10.3289  10.3561  10.3712
    10.4128  10.4148  10.4202  10.4284  10.4666  10.4928  10.4954  10.5324
    10.5325  10.5404  10.5938  10.6166

          k = 0.0000 0.0000 0.0094 (110397 PWs)   bands (ev):

   -21.1652 -20.9376 -20.6597 -20.5380 -20.3721 -20.2899 -20.1225 -20.0178
   -19.8280 -19.6297 -19.3648 -19.2228 -18.9160 -18.7710 -18.7249 -18.5526
   -18.3811 -18.2657 -18.2191 -18.1291 -17.9123 -17.7402 -17.7135 -17.4749
   -17.4233 -17.1088 -16.9373 -16.8790 -16.7385 -16.4881 -16.4271 -16.3360
   -16.1439 -16.0335 -15.8317 -15.6005 -15.5206 -15.2887 -15.0585 -14.7524
   -14.6560 -14.6059 -14.4654 -14.3927 -14.3307 -14.2572 -14.0760 -13.8456
   -13.6868 -13.6488 -13.4402 -13.3798 -13.1446 -12.7654 -12.4982 -12.3924
   -12.3294 -12.0788 -12.0245 -11.9808 -11.8818 -11.8219 -11.6895 -11.5915
   -11.5069 -11.3866 -11.2343 -11.1179 -10.9043 -10.7475 -10.6344 -10.5853
   -10.3810 -10.2818 -10.2480 -10.0954  -9.9886  -9.8278  -9.8031  -9.7306
    -9.6888  -9.5402  -9.4665  -9.3846  -9.2993  -9.2477  -9.2387  -9.1166
    -8.9861  -8.9814  -8.8910  -8.8669  -8.7551  -8.6711  -8.6431  -8.6241
    -8.5465  -8.5115  -8.5104  -8.3665  -8.3259  -8.2903  -8.2110  -8.1596
    -8.1217  -8.0657  -8.0520  -8.0263  -7.9230  -7.9161  -7.8654  -7.8320
    -7.6933  -7.6626  -7.6540  -7.5253  -7.4647  -7.4423  -7.3914  -7.3100
    -7.2110  -7.1535  -7.0971  -7.0391  -7.0299  -6.8570  -6.7979  -6.7290
    -6.6592  -6.5865  -6.5255  -6.4938  -6.4727  -6.4008  -6.2661  -6.2526
    -6.2460  -6.0808  -6.0668  -5.9566  -5.8551  -5.8003  -5.6251  -5.5567
    -5.4721  -5.4472  -5.3266  -5.2577  -5.2073  -5.0883  -5.0754  -4.7939
    -4.6648  -4.6170  -4.4545  -4.1703  -4.1336  -4.1136  -3.9841  -3.9067
    -3.6338  -3.3030  -2.9190  -2.8575  -2.3916  -1.3771  -0.9496  -0.8800
    -0.6514  -0.5375  -0.2331  -0.1788  -0.0108   0.0927   0.2603   0.4202
     0.4801   0.7245   0.8491   1.1551   1.2378   1.2520   1.3402   1.4024
     1.5205   1.6045   1.7711   1.7920   1.8137   1.8342   1.9051   2.0144
     2.1634   2.1729   2.2496   2.2730   2.3079   2.3203   2.3781   2.4420
     2.5312   2.5351   2.6277   2.6665   2.7155   2.7306   2.7845   2.8447
     2.9189   2.9806   2.9931   3.0546   3.1242   3.1634   3.2953   3.2974
     3.3184   3.3981   3.4261   3.4679   3.4898   3.5271   3.6015   3.6381
     3.6792   3.6930   3.8110   3.8608   3.9038   3.9498   4.0182   4.0331
     4.0965   4.1000   4.1157   4.1418   4.1968   4.2059   4.2497   4.2553
     4.2670   4.2792   4.3169   4.3334   4.4203   4.4785   4.5404   4.5847
     4.6216   4.6848   4.7155   4.7445   4.7750   4.7876   4.8032   4.8075
     4.8770   4.9032   4.9269   4.9452   4.9829   5.0329   5.0471   5.1228
     5.1493   5.1991   5.2264   5.2443   5.2867   5.3033   5.3122   5.3352
     5.3714   5.3913   5.4050   5.4129   5.4482   5.5291   5.5538   5.6352
     5.6422   5.6934   5.7071   5.7326   5.7521   5.8082   5.8279   5.8457
     5.9055   5.9424   5.9577   5.9777   5.9808   6.0252   6.0293   6.0480
     6.0707   6.0747   6.1161   6.1514   6.1666   6.1759   6.2134   6.2147
     6.2485   6.2825   6.3117   6.3262   6.3451   6.3501   6.4063   6.4111
     6.4181   6.4647   6.4750   6.4986   6.4991   6.5297   6.5354   6.5772
     6.6062   6.6129   6.6442   6.6639   6.6811   6.7118   6.7277   6.7435
     6.7735   6.7843   6.8144   6.8334   6.8828   6.9200   6.9506   6.9584
     6.9859   7.0432   7.0483   7.0547   7.0631   7.0761   7.1118   7.1391
     7.1519   7.1913   7.2166   7.2648   7.2893   7.2993   7.3112   7.3260
     7.3673   7.3676   7.3698   7.3855   7.4220   7.4494   7.4501   7.4687
     7.4936   7.5051   7.5691   7.5904   7.6169   7.6247   7.6399   7.7432
     7.7828   7.7931   7.8104   7.8224   7.8487   7.8942   7.9260   7.9374
     7.9472   7.9499   7.9919   8.0123   8.0394   8.0508   8.0910   8.0977
     8.1201   8.1305   8.1571   8.1927   8.1960   8.2270   8.2344   8.2494
     8.2705   8.3078   8.3240   8.3391   8.3983   8.4012   8.4108   8.4145
     8.4323   8.4573   8.4747   8.5096   8.5374   8.5467   8.6050   8.6279
     8.6666   8.6756   8.7106   8.7112   8.7397   8.7779   8.7801   8.8065
     8.8366   8.8736   8.8767   8.9012   8.9099   8.9398   8.9676   8.9819
     8.9888   9.0372   9.0382   9.1082   9.1085   9.1183   9.1528   9.1660
     9.1860   9.1916   9.1974   9.2586   9.2958   9.3020   9.3088   9.3437
     9.3576   9.3650   9.3949   9.4099   9.4127   9.4337   9.4784   9.5257
     9.5567   9.5571   9.5645   9.5830   9.6089   9.6215   9.6260   9.6267
     9.6728   9.6764   9.6998   9.7238   9.7429   9.8374   9.8460   9.8603
     9.8735   9.8843   9.9199   9.9232   9.9447   9.9579   9.9810  10.0274
    10.0710  10.0820  10.1020  10.1292  10.1442  10.1962  10.2124  10.2183
    10.2405  10.2470  10.2668  10.2740  10.3048  10.3410  10.3589  10.3625
    10.3760  10.4064  10.4075  10.4368  10.4665  10.4711  10.5073  10.5134
    10.5258  10.5671  10.5926  10.6073

          k = 0.0000 0.0000 0.0110 (110427 PWs)   bands (ev):

   -21.1624 -20.9363 -20.6763 -20.5377 -20.3793 -20.2735 -20.1093 -20.0295
   -19.8142 -19.6242 -19.3606 -19.2208 -18.9417 -18.7894 -18.7427 -18.5579
   -18.3721 -18.2636 -18.2282 -18.1060 -17.9345 -17.7103 -17.6821 -17.4571
   -17.4171 -17.1318 -16.9376 -16.8784 -16.7317 -16.4787 -16.4059 -16.3574
   -16.1423 -16.0737 -15.8342 -15.6406 -15.5223 -15.3278 -15.0694 -14.7176
   -14.6434 -14.5953 -14.4379 -14.3764 -14.3048 -14.2241 -14.0913 -13.8500
   -13.6824 -13.6616 -13.4364 -13.3684 -13.1387 -12.7925 -12.5208 -12.4091
   -12.3218 -12.0853 -12.0189 -11.9620 -11.9429 -11.8570 -11.7050 -11.6014
   -11.4904 -11.3711 -11.2128 -11.0735 -10.8326 -10.7639 -10.6354 -10.6190
   -10.3992 -10.2789 -10.2428 -10.1124 -10.0310  -9.8468  -9.7759  -9.7322
    -9.6761  -9.5119  -9.4785  -9.3806  -9.2983  -9.2353  -9.2305  -9.0941
    -8.9915  -8.9796  -8.8788  -8.8352  -8.7470  -8.6833  -8.6617  -8.6201
    -8.5519  -8.5118  -8.5098  -8.3669  -8.3380  -8.2893  -8.1886  -8.1762
    -8.1214  -8.0804  -8.0424  -8.0091  -7.9303  -7.9300  -7.8644  -7.8288
    -7.6784  -7.6630  -7.6540  -7.5367  -7.4638  -7.4562  -7.3802  -7.3609
    -7.2552  -7.1505  -7.0889  -7.0365  -7.0228  -6.8814  -6.7979  -6.7004
    -6.6714  -6.5604  -6.5311  -6.5196  -6.4980  -6.3762  -6.2657  -6.2538
    -6.2416  -6.0591  -6.0523  -5.9611  -5.8843  -5.7607  -5.6281  -5.5792
    -5.4795  -5.4115  -5.2940  -5.2648  -5.2142  -5.0867  -5.0581  -4.8075
    -4.6717  -4.6077  -4.4545  -4.1745  -4.1367  -4.0908  -3.9853  -3.9194
    -3.6275  -3.3239  -2.9406  -2.8677  -2.4169  -1.3542  -0.9422  -0.8612
    -0.6396  -0.5173  -0.2124  -0.1801   0.0066   0.0781   0.2466   0.4002
     0.4854   0.7427   0.8697   1.1597   1.2223   1.2424   1.3439   1.3830
     1.4756   1.6069   1.7565   1.7654   1.8083   1.8332   1.8748   2.0118
     2.1554   2.1628   2.2393   2.2872   2.3124   2.3540   2.3592   2.4097
     2.5531   2.5558   2.6273   2.6725   2.7200   2.7274   2.8063   2.8725
     2.9273   2.9514   2.9973   3.0952   3.1356   3.1848   3.2794   3.3156
     3.3503   3.4054   3.4360   3.4536   3.4861   3.5188   3.6054   3.6127
     3.6504   3.7248   3.7836   3.8921   3.9081   3.9795   4.0054   4.0426
     4.0940   4.1158   4.1174   4.1416   4.1783   4.1942   4.2194   4.2463
     4.2577   4.2775   4.3242   4.3371   4.4182   4.4912   4.5163   4.5562
     4.6521   4.6869   4.6931   4.7588   4.7647   4.7690   4.7792   4.7951
     4.8756   4.9112   4.9220   4.9560   4.9728   5.0618   5.0658   5.0976
     5.1461   5.1980   5.2027   5.2616   5.2943   5.3158   5.3268   5.3273
     5.3344   5.3949   5.4202   5.4383   5.4983   5.5168   5.5815   5.6407
     5.6476   5.6930   5.7127   5.7147   5.7529   5.8099   5.8135   5.8380
     5.9075   5.9163   5.9332   5.9526   5.9797   6.0107   6.0297   6.0319
     6.0464   6.0930   6.1055   6.1365   6.1645   6.1793   6.1922   6.2144
     6.2627   6.2827   6.2938   6.3181   6.3512   6.3645   6.3965   6.4133
     6.4513   6.4689   6.4869   6.5060   6.5274   6.5382   6.5403   6.5733
     6.5806   6.6088   6.6386   6.6793   6.7004   6.7033   6.7145   6.7497
     6.7658   6.8123   6.8212   6.8394   6.9015   6.9412   6.9481   6.9671
     7.0040   7.0181   7.0480   7.0537   7.0720   7.0763   7.1369   7.1437
     7.1783   7.1910   7.2315   7.2375   7.2665   7.2966   7.2999   7.3102
     7.3307   7.3521   7.3818   7.3953   7.4225   7.4262   7.4710   7.4974
     7.5029   7.5303   7.5314   7.5920   7.6093   7.6533   7.6931   7.7310
     7.7626   7.7870   7.7932   7.8244   7.8636   7.9159   7.9216   7.9392
     7.9558   7.9677   7.9876   7.9960   8.0383   8.0589   8.0917   8.1196
     8.1212   8.1453   8.1635   8.1995   8.2037   8.2157   8.2252   8.2450
     8.2858   8.3019   8.3268   8.3370   8.3660   8.3899   8.3962   8.4016
     8.4330   8.4388   8.4835   8.5190   8.5413   8.5517   8.6116   8.6375
     8.6643   8.6890   8.7041   8.7067   8.7419   8.7703   8.7718   8.7870
     8.8367   8.8575   8.8628   8.8837   8.9195   8.9278   8.9664   8.9842
     8.9905   9.0372   9.0382   9.0905   9.0971   9.1205   9.1579   9.1724
     9.1805   9.1873   9.2285   9.2649   9.2941   9.2980   9.3312   9.3443
     9.3507   9.3691   9.4009   9.4076   9.4361   9.4493   9.4900   9.5093
     9.5470   9.5586   9.5633   9.5889   9.6110   9.6229   9.6293   9.6383
     9.6537   9.6777   9.7166   9.7193   9.7270   9.7966   9.8291   9.8375
     9.8551   9.8575   9.8881   9.9139   9.9168   9.9254  10.0123  10.0754
    10.0895  10.0972  10.1038  10.1047  10.1710  10.1815  10.1946  10.2167
    10.2223  10.2490  10.2570  10.2714  10.2751  10.3409  10.3462  10.3565
    10.3785  10.3913  10.4258  10.4333  10.4674  10.4814  10.4922  10.5067
    10.5467  10.5613  10.5840  10.6036

          k = 0.0000 0.0000 0.0125 (110403 PWs)   bands (ev):

   -21.1592 -20.9349 -20.6932 -20.5370 -20.3895 -20.2532 -20.0996 -20.0369
   -19.8012 -19.6177 -19.3555 -19.2186 -18.9733 -18.8037 -18.7605 -18.5634
   -18.3688 -18.2761 -18.2277 -18.0690 -17.9576 -17.6803 -17.6508 -17.4420
   -17.4073 -17.1550 -16.9368 -16.8799 -16.7203 -16.4772 -16.3846 -16.3717
   -16.1455 -16.1150 -15.8381 -15.6796 -15.5274 -15.3645 -15.0831 -14.6916
   -14.6324 -14.5743 -14.4100 -14.3574 -14.2770 -14.1869 -14.1032 -13.8580
   -13.6965 -13.6520 -13.4354 -13.3589 -13.1299 -12.8183 -12.5467 -12.4380
   -12.3056 -12.1004 -12.0528 -11.9628 -11.9434 -11.8880 -11.7120 -11.6137
   -11.4704 -11.3540 -11.1908 -11.0322 -10.7994 -10.7469 -10.6680 -10.6153
   -10.4231 -10.2727 -10.2362 -10.1340 -10.0679  -9.8815  -9.7564  -9.7310
    -9.6457  -9.5039  -9.4781  -9.3732  -9.2921  -9.2314  -9.2160  -9.0743
    -8.9908  -8.9776  -8.8663  -8.8018  -8.7371  -8.6958  -8.6811  -8.6157
    -8.5630  -8.5124  -8.5059  -8.3659  -8.3520  -8.2942  -8.1941  -8.1633
    -8.1156  -8.0919  -8.0333  -7.9973  -7.9384  -7.9359  -7.8682  -7.8246
    -7.6728  -7.6645  -7.6484  -7.5520  -7.4882  -7.4465  -7.4118  -7.3618
    -7.2975  -7.1465  -7.0831  -7.0335  -7.0142  -6.9116  -6.7950  -6.6926
    -6.6724  -6.5811  -6.5415  -6.5191  -6.4884  -6.3571  -6.2641  -6.2641
    -6.2262  -6.0573  -6.0232  -5.9600  -5.9163  -5.7129  -5.6315  -5.6035
    -5.4880  -5.3753  -5.2730  -5.2622  -5.2221  -5.0862  -5.0395  -4.8247
    -4.6771  -4.5961  -4.4500  -4.1860  -4.1380  -4.0723  -3.9814  -3.9322
    -3.6210  -3.3466  -2.9670  -2.8764  -2.4445  -1.3293  -0.9381  -0.8366
    -0.6277  -0.4932  -0.2029  -0.1656   0.0238   0.0616   0.2346   0.3809
     0.4904   0.7568   0.8922   1.1651   1.1956   1.2477   1.3482   1.3528
     1.4399   1.6096   1.6994   1.7529   1.7896   1.8452   1.8748   2.0079
     2.1033   2.1396   2.2588   2.3158   2.3201   2.3381   2.3683   2.3984
     2.5718   2.5852   2.6196   2.6794   2.7258   2.7337   2.8320   2.9032
     2.9237   2.9358   3.0028   3.1346   3.1413   3.1989   3.2771   3.3171
     3.3638   3.3898   3.4318   3.4742   3.5065   3.5271   3.5899   3.6063
     3.6245   3.7421   3.7717   3.9130   3.9172   3.9823   4.0019   4.0567
     4.0698   4.1013   4.1300   4.1431   4.1640   4.1881   4.2167   4.2237
     4.2600   4.2918   4.3400   4.3427   4.4049   4.4542   4.5295   4.5544
     4.6449   4.6727   4.6907   4.7394   4.7524   4.7633   4.7784   4.8099
     4.8725   4.8989   4.9033   4.9468   5.0059   5.0405   5.1014   5.1164
     5.1368   5.1614   5.2060   5.2613   5.2776   5.3157   5.3342   5.3358
     5.3607   5.3847   5.4531   5.4726   5.4934   5.5475   5.6012   5.6204
     5.6382   5.6804   5.6968   5.7215   5.7711   5.7986   5.8307   5.8589
     5.8698   5.8930   5.9136   5.9464   5.9787   5.9950   6.0034   6.0257
     6.0488   6.0593   6.0802   6.1349   6.1463   6.1747   6.2000   6.2334
     6.2459   6.2751   6.3066   6.3184   6.3520   6.3871   6.4049   6.4163
     6.4648   6.4883   6.4953   6.5131   6.5328   6.5400   6.5454   6.5562
     6.5903   6.5967   6.6371   6.6632   6.6924   6.7153   6.7407   6.7577
     6.7903   6.8044   6.8511   6.8674   6.9120   6.9239   6.9541   6.9686
     6.9920   7.0112   7.0481   7.0688   7.0754   7.0835   7.1400   7.1480
     7.1846   7.1903   7.2206   7.2332   7.2470   7.2829   7.3027   7.3131
     7.3406   7.3423   7.3826   7.3985   7.4043   7.4358   7.4571   7.4964
     7.5236   7.5506   7.5768   7.5870   7.6046   7.6913   7.7133   7.7178
     7.7568   7.7695   7.7743   7.8263   7.8798   7.8845   7.9216   7.9356
     7.9701   7.9839   7.9944   7.9999   8.0261   8.0731   8.0906   8.1281
     8.1294   8.1592   8.1592   8.1940   8.2043   8.2190   8.2385   8.2481
     8.2802   8.2975   8.3123   8.3342   8.3466   8.3656   8.3782   8.4142
     8.4375   8.4391   8.4805   8.5477   8.5488   8.5536   8.6170   8.6332
     8.6517   8.6666   8.6718   8.7180   8.7372   8.7604   8.7723   8.8145
     8.8337   8.8470   8.8592   8.8703   8.8972   8.9257   8.9805   8.9831
     8.9980   9.0338   9.0546   9.0620   9.0891   9.1267   9.1541   9.1703
     9.1849   9.1870   9.2510   9.2575   9.2724   9.2960   9.3284   9.3442
     9.3453   9.3961   9.4085   9.4337   9.4653   9.4699   9.4806   9.5127
     9.5127   9.5603   9.5715   9.5917   9.6036   9.6290   9.6365   9.6380
     9.6540   9.6875   9.6907   9.7317   9.7495   9.7649   9.7998   9.8120
     9.8229   9.8392   9.8528   9.8874   9.9068   9.9366  10.0260  10.0804
    10.0814  10.0925  10.1065  10.1323  10.1528  10.1685  10.1889  10.2085
    10.2118  10.2251  10.2465  10.2556  10.2628  10.3293  10.3454  10.3513
    10.3853  10.4114  10.4236  10.4415  10.4719  10.4888  10.5060  10.5154
    10.5204  10.5352  10.6014  10.6031

          k = 0.0000 0.0000 0.0141 (110411 PWs)   bands (ev):

   -21.1555 -20.9335 -20.7102 -20.5360 -20.4008 -20.2311 -20.0963 -20.0370
   -19.7894 -19.6101 -19.3495 -19.2161 -19.0085 -18.8176 -18.7767 -18.5681
   -18.3717 -18.2977 -18.2148 -18.0259 -17.9810 -17.6507 -17.6205 -17.4304
   -17.3930 -17.1778 -16.9346 -16.8821 -16.7060 -16.4811 -16.3972 -16.3486
   -16.1702 -16.1383 -15.8469 -15.7140 -15.5385 -15.3956 -15.0992 -14.6791
   -14.6208 -14.5409 -14.3884 -14.3307 -14.2482 -14.1470 -14.1100 -13.8678
   -13.7149 -13.6351 -13.4376 -13.3512 -13.1185 -12.8422 -12.5750 -12.4710
   -12.2936 -12.1368 -12.0992 -11.9519 -11.9367 -11.9028 -11.7108 -11.6273
   -11.4479 -11.3355 -11.1690 -10.9962 -10.8142 -10.7294 -10.6560 -10.6058
   -10.4494 -10.2670 -10.2301 -10.1624 -10.0942  -9.9222  -9.7472  -9.7259
    -9.6085  -9.5231  -9.4568  -9.3602  -9.2819  -9.2270  -9.2054  -9.0626
    -8.9768  -8.9754  -8.8528  -8.7737  -8.7246  -8.7047  -8.7008  -8.6120
    -8.5770  -8.5124  -8.5016  -8.3665  -8.3655  -8.3074  -8.2029  -8.1369
    -8.1178  -8.0926  -8.0264  -7.9959  -7.9395  -7.9348  -7.8759  -7.8209
    -7.6839  -7.6517  -7.6473  -7.5692  -7.5099  -7.4621  -7.4357  -7.3619
    -7.3169  -7.1415  -7.0797  -7.0302  -7.0058  -6.9424  -6.7925  -6.7230
    -6.6503  -6.5995  -6.5574  -6.5383  -6.4428  -6.3442  -6.2757  -6.2609
    -6.2059  -6.0632  -5.9938  -5.9618  -5.9350  -5.6677  -5.6355  -5.6239
    -5.4974  -5.3396  -5.2822  -5.2323  -5.2311  -5.0859  -5.0208  -4.8439
    -4.6808  -4.5825  -4.4418  -4.2000  -4.1387  -4.0659  -3.9758  -3.9369
    -3.6151  -3.3702  -2.9974  -2.8843  -2.4742  -1.3027  -0.9362  -0.8082
    -0.6153  -0.4656  -0.2028  -0.1378   0.0375   0.0473   0.2246   0.3624
     0.4951   0.7660   0.9155   1.1711   1.1736   1.2537   1.3117   1.3529
     1.4127   1.6122   1.6435   1.7317   1.7800   1.8163   1.9167   2.0027
     2.0306   2.1262   2.2850   2.3020   2.3251   2.3258   2.3695   2.4383
     2.5831   2.6096   2.6169   2.6872   2.7327   2.7505   2.8599   2.8915
     2.9413   2.9448   3.0091   3.1429   3.1691   3.1968   3.2977   3.3166
     3.3524   3.3797   3.4072   3.5078   3.5124   3.5649   3.5863   3.5878
     3.6209   3.7204   3.7967   3.9181   3.9203   3.9775   4.0157   4.0169
     4.0598   4.1009   4.1164   4.1476   4.1806   4.1841   4.1894   4.2482
     4.2663   4.3088   4.3422   4.3446   4.3911   4.4403   4.5055   4.5917
     4.5929   4.6752   4.6888   4.7229   4.7296   4.7701   4.7766   4.8432
     4.8677   4.8771   4.8860   4.9398   5.0066   5.0372   5.1179   5.1245
     5.1408   5.1575   5.2098   5.2098   5.2870   5.3295   5.3386   5.3595
     5.3809   5.3962   5.4686   5.4913   5.5058   5.5609   5.5857   5.6058
     5.6391   5.6489   5.7185   5.7355   5.7810   5.7949   5.8223   5.8447
     5.8742   5.8747   5.9229   5.9441   5.9559   5.9597   5.9991   6.0106
     6.0214   6.0561   6.0802   6.0864   6.1563   6.1850   6.1886   6.2037
     6.2405   6.2941   6.3091   6.3453   6.3627   6.3903   6.4096   6.4249
     6.4709   6.4795   6.5094   6.5239   6.5353   6.5435   6.5442   6.5700
     6.5890   6.6057   6.6316   6.6628   6.6978   6.7258   6.7397   6.7896
     6.8084   6.8127   6.8661   6.8731   6.9051   6.9251   6.9552   6.9755
     6.9927   7.0100   7.0552   7.0608   7.0688   7.0956   7.1072   7.1479
     7.1720   7.1785   7.2149   7.2357   7.2631   7.2838   7.2941   7.3131
     7.3440   7.3641   7.3896   7.3992   7.4162   7.4283   7.4478   7.5083
     7.5443   7.5806   7.5890   7.6062   7.6261   7.6860   7.6982   7.7214
     7.7250   7.7674   7.8012   7.8287   7.8453   7.8935   7.9024   7.9492
     7.9743   7.9932   7.9953   8.0016   8.0290   8.0737   8.0999   8.1329
     8.1428   8.1428   8.1553   8.1821   8.2123   8.2259   8.2364   8.2526
     8.2675   8.2995   8.3116   8.3140   8.3376   8.3396   8.4064   8.4355
     8.4407   8.4472   8.4759   8.5220   8.5565   8.5566   8.5832   8.6345
     8.6506   8.6612   8.6731   8.6992   8.7557   8.7568   8.7928   8.8064
     8.8162   8.8298   8.8458   8.8926   8.9182   8.9291   8.9704   8.9773
     8.9978   9.0347   9.0449   9.0536   9.1085   9.1249   9.1295   9.1779
     9.1797   9.1864   9.2266   9.2618   9.2700   9.3065   9.3234   9.3487
     9.3523   9.4098   9.4126   9.4538   9.4701   9.4740   9.4835   9.5172
     9.5330   9.5571   9.5835   9.5888   9.5911   9.6137   9.6307   9.6420
     9.6600   9.6657   9.7025   9.7378   9.7549   9.7574   9.7860   9.7861
     9.7910   9.8124   9.8609   9.8637   9.9060   9.9646  10.0159  10.0594
    10.0656  10.0765  10.0986  10.1079  10.1356  10.1450  10.1889  10.1990
    10.2051  10.2096  10.2407  10.2463  10.2876  10.3207  10.3313  10.3592
    10.3899  10.4119  10.4125  10.4618  10.4701  10.4809  10.4939  10.5269
    10.5307  10.5594  10.5647  10.6120

          k = 0.0000 0.0000 0.0156 (110441 PWs)   bands (ev):

   -21.1515 -20.9320 -20.7270 -20.5349 -20.4123 -20.2088 -20.0993 -20.0294
   -19.7786 -19.6014 -19.3426 -19.2134 -19.0458 -18.8344 -18.7898 -18.5715
   -18.3832 -18.3157 -18.1974 -18.0056 -17.9785 -17.6222 -17.5923 -17.4211
   -17.3749 -17.1997 -16.9312 -16.8835 -16.6902 -16.4897 -16.4106 -16.3258
   -16.2098 -16.1456 -15.8648 -15.7398 -15.5585 -15.4174 -15.1172 -14.6748
   -14.6115 -14.4982 -14.3748 -14.2961 -14.2191 -14.1179 -14.0980 -13.8780
   -13.7326 -13.6164 -13.4432 -13.3447 -13.1053 -12.8635 -12.6051 -12.5060
   -12.2969 -12.1944 -12.1256 -11.9525 -11.9329 -11.8909 -11.7023 -11.6412
   -11.4239 -11.3156 -11.1479 -10.9693 -10.8337 -10.7548 -10.6087 -10.5780
   -10.4751 -10.2695 -10.2254 -10.1897 -10.1103  -9.9659  -9.7429  -9.7186
    -9.5907  -9.5222  -9.4450  -9.3385  -9.2685  -9.2221  -9.1994  -9.0559
    -8.9731  -8.9517  -8.8389  -8.7596  -8.7205  -8.7155  -8.6962  -8.6108
    -8.5898  -8.5123  -8.4975  -8.3805  -8.3726  -8.3204  -8.2034  -8.1268
    -8.1113  -8.0847  -8.0228  -8.0025  -7.9396  -7.9211  -7.8870  -7.8186
    -7.6963  -7.6551  -7.6400  -7.5835  -7.5308  -7.5082  -7.4238  -7.3975
    -7.2974  -7.1353  -7.0783  -7.0266  -7.0037  -6.9666  -6.7923  -6.7598
    -6.6467  -6.5995  -6.5724  -6.5534  -6.3977  -6.3367  -6.2871  -6.2560
    -6.1811  -6.0780  -5.9802  -5.9642  -5.9251  -5.6666  -5.6401  -5.5998
    -5.5078  -5.3053  -5.2924  -5.2409  -5.2051  -5.0856  -5.0033  -4.8623
    -4.6833  -4.5678  -4.4301  -4.2149  -4.1394  -4.0717  -3.9830  -3.9198
    -3.6108  -3.3937  -3.0305  -2.8919  -2.5056  -1.2749  -0.9354  -0.7780
    -0.6019  -0.4353  -0.2034  -0.1068   0.0260   0.0586   0.2167   0.3452
     0.4992   0.7696   0.9381   1.1581   1.1778   1.2605   1.2647   1.3582
     1.3885   1.5905   1.6146   1.7069   1.7746   1.7882   1.9477   1.9662
     1.9961   2.1154   2.2775   2.2807   2.3137   2.3315   2.4096   2.4789
     2.5749   2.6126   2.6494   2.6967   2.7406   2.7748   2.8639   2.8883
     2.9550   2.9765   3.0162   3.1386   3.1914   3.1927   3.3145   3.3309
     3.3385   3.3711   3.3872   3.4994   3.5499   3.5582   3.5587   3.6265
     3.6517   3.6937   3.8196   3.9008   3.9211   3.9825   3.9840   4.0117
     4.0330   4.0935   4.1348   4.1523   4.1620   4.1825   4.2100   4.2558
     4.2889   4.3131   4.3270   4.3457   4.4137   4.4319   4.4853   4.5416
     4.6256   4.6634   4.6768   4.7121   4.7165   4.7574   4.7986   4.8484
     4.8602   4.8651   4.8843   4.9394   4.9795   5.0507   5.1002   5.1118
     5.1328   5.1882   5.2021   5.2142   5.2957   5.3370   5.3448   5.3812
     5.3919   5.4339   5.4468   5.5227   5.5228   5.5365   5.5625   5.5919
     5.6344   5.6705   5.7315   5.7594   5.7650   5.7906   5.7924   5.8488
     5.8764   5.8790   5.9089   5.9156   5.9252   5.9548   5.9876   6.0095
     6.0235   6.0366   6.0583   6.0972   6.1299   6.1679   6.1928   6.2063
     6.2446   6.2824   6.3183   6.3404   6.3559   6.4063   6.4128   6.4576
     6.4621   6.4842   6.4965   6.5326   6.5450   6.5544   6.5618   6.5757
     6.5955   6.6235   6.6572   6.6716   6.7063   6.7258   6.7569   6.7646
     6.8147   6.8461   6.8510   6.8742   6.9220   6.9222   6.9771   6.9835
     6.9874   7.0051   7.0282   7.0512   7.0715   7.0902   7.1072   7.1319
     7.1521   7.1652   7.2257   7.2423   7.2505   7.2810   7.3063   7.3163
     7.3499   7.3710   7.3904   7.4232   7.4278   7.4530   7.4653   7.5309
     7.5542   7.5902   7.6061   7.6214   7.6518   7.6684   7.6800   7.6872
     7.7350   7.7765   7.7901   7.8128   7.8579   7.8912   7.9063   7.9543
     7.9590   7.9888   7.9964   8.0284   8.0461   8.0619   8.0929   8.1205
     8.1256   8.1388   8.1638   8.1767   8.2151   8.2203   8.2307   8.2319
     8.2671   8.2866   8.3177   8.3238   8.3485   8.3664   8.3925   8.4276
     8.4377   8.4755   8.4825   8.4918   8.5289   8.5675   8.5879   8.6117
     8.6317   8.6428   8.6990   8.7303   8.7553   8.7624   8.7673   8.8121
     8.8144   8.8292   8.8506   8.9053   8.9278   8.9370   8.9601   8.9818
     8.9885   9.0156   9.0391   9.0561   9.0902   9.1248   9.1310   9.1719
     9.1806   9.1847   9.2283   9.2550   9.2683   9.3228   9.3264   9.3498
     9.3509   9.4181   9.4197   9.4353   9.4756   9.4830   9.4949   9.5224
     9.5486   9.5599   9.5813   9.5817   9.5886   9.5997   9.6122   9.6425
     9.6527   9.6633   9.7220   9.7326   9.7385   9.7422   9.7681   9.7803
     9.7939   9.8320   9.8518   9.8725   9.9252   9.9888   9.9933  10.0026
    10.0428  10.0605  10.0823  10.0839  10.0975  10.1238  10.1809  10.1817
    10.2034  10.2202  10.2268  10.2494  10.3095  10.3182  10.3400  10.3573
    10.3870  10.3920  10.3941  10.4318  10.4705  10.4875  10.4995  10.5111
    10.5373  10.5548  10.5829  10.6091

          k = 0.0000 0.0000 0.0172 (110449 PWs)   bands (ev):

   -21.1470 -20.9306 -20.7433 -20.5338 -20.4233 -20.1881 -20.1042 -20.0172
   -19.7692 -19.5914 -19.3349 -19.2105 -19.0840 -18.8549 -18.7997 -18.5730
   -18.4042 -18.3261 -18.1777 -18.0289 -17.9303 -17.5960 -17.5674 -17.4122
   -17.3544 -17.2197 -16.9278 -16.8824 -16.6741 -16.5023 -16.4200 -16.3226
   -16.2338 -16.1525 -15.8930 -15.7562 -15.5865 -15.4296 -15.1369 -14.6737
   -14.6047 -14.4549 -14.3619 -14.2596 -14.1904 -14.1109 -14.0553 -13.8869
   -13.7484 -13.5975 -13.4520 -13.3392 -13.0919 -12.8812 -12.6365 -12.5422
   -12.3307 -12.2433 -12.1433 -11.9673 -11.9133 -11.8719 -11.6882 -11.6538
   -11.3992 -11.2944 -11.1280 -10.9561 -10.8593 -10.7671 -10.6012 -10.5114
   -10.4945 -10.2918 -10.2225 -10.2020 -10.1188 -10.0109  -9.7395  -9.7113
    -9.6092  -9.4854  -9.4426  -9.3134  -9.2508  -9.2168  -9.1961  -9.0486
    -8.9707  -8.9227  -8.8248  -8.7610  -8.7398  -8.7073  -8.6754  -8.6145
    -8.5942  -8.5123  -8.4931  -8.3941  -8.3937  -8.3218  -8.2014  -8.1348
    -8.0894  -8.0765  -8.0224  -8.0087  -7.9370  -7.9030  -7.9005  -7.8178
    -7.7101  -7.6735  -7.6296  -7.5937  -7.5688  -7.5306  -7.4363  -7.4110
    -7.2708  -7.1280  -7.0791  -7.0226  -7.0217  -6.9698  -6.8002  -6.7963
    -6.6577  -6.5916  -6.5839  -6.5627  -6.3540  -6.3320  -6.2967  -6.2497
    -6.1530  -6.1013  -5.9965  -5.9349  -5.9056  -5.6919  -5.6452  -5.5491
    -5.5191  -5.3035  -5.2737  -5.2518  -5.1809  -5.0850  -4.9897  -4.8752
    -4.6847  -4.5531  -4.4150  -4.2295  -4.1402  -4.0860  -3.9969  -3.8906
    -3.6095  -3.4157  -3.0656  -2.8994  -2.5382  -1.2461  -0.9352  -0.7479
    -0.5863  -0.4036  -0.2022  -0.0795   0.0168   0.0728   0.2115   0.3295
     0.5026   0.7667   0.9584   1.1508   1.1853   1.2157   1.2679   1.3622
     1.3640   1.5425   1.6164   1.6817   1.7599   1.7714   1.8766   1.9881
     2.0030   2.1069   2.2348   2.2602   2.3326   2.3388   2.4508   2.5200
     2.5556   2.6232   2.6805   2.7102   2.7496   2.8029   2.8380   2.9147
     2.9667   3.0109   3.0246   3.1284   3.1917   3.1995   3.3044   3.3286
     3.3674   3.3688   3.3809   3.4855   3.5305   3.5568   3.5867   3.6336
     3.6671   3.7213   3.8223   3.8757   3.9210   3.9628   3.9735   3.9817
     4.0516   4.0753   4.1327   4.1584   4.1649   4.1851   4.2284   4.2441
     4.2884   4.3356   4.3371   4.3605   4.4175   4.4411   4.4612   4.5068
     4.6365   4.6571   4.6576   4.7050   4.7168   4.7404   4.8073   4.8190
     4.8557   4.8635   4.9097   4.9400   4.9706   5.0388   5.0792   5.1010
     5.1012   5.2175   5.2187   5.2361   5.3050   5.3413   5.3523   5.3961
     5.4078   5.4267   5.4676   5.4963   5.5161   5.5424   5.5642   5.5865
     5.6516   5.7001   5.7134   5.7406   5.7713   5.7713   5.8056   5.8424
     5.8546   5.8827   5.8903   5.8972   5.8997   5.9510   5.9733   5.9869
     6.0242   6.0611   6.0666   6.0736   6.1160   6.1787   6.2002   6.2115
     6.2516   6.2724   6.2734   6.3135   6.3587   6.3949   6.4537   6.4559
     6.4635   6.4872   6.5205   6.5319   6.5470   6.5669   6.5885   6.6071
     6.6258   6.6403   6.6634   6.7037   6.7119   6.7251   6.7302   6.7763
     6.8040   6.8464   6.8650   6.8719   6.9216   6.9277   6.9658   6.9695
     6.9872   7.0075   7.0138   7.0505   7.0755   7.0895   7.1059   7.1323
     7.1424   7.1464   7.2312   7.2435   7.2532   7.2640   7.3066   7.3242
     7.3431   7.3849   7.4222   7.4369   7.4551   7.4696   7.5267   7.5388
     7.5645   7.5997   7.6116   7.6230   7.6465   7.6472   7.6765   7.6902
     7.7381   7.7450   7.7928   7.8280   7.8444   7.8938   7.9207   7.9430
     7.9688   7.9754   7.9969   8.0424   8.0602   8.0669   8.0869   8.0991
     8.1134   8.1367   8.1371   8.1547   8.1930   8.2258   8.2374   8.2386
     8.2430   8.3083   8.3310   8.3345   8.3504   8.3639   8.3971   8.4094
     8.4241   8.4604   8.4888   8.5152   8.5333   8.5727   8.5794   8.6117
     8.6221   8.6367   8.6876   8.7283   8.7629   8.7635   8.7837   8.7960
     8.8285   8.8603   8.8689   8.8813   8.9179   8.9443   8.9515   8.9584
     8.9943   9.0187   9.0445   9.0567   9.0741   9.1130   9.1308   9.1739
     9.1791   9.1819   9.2433   9.2601   9.2640   9.3218   9.3366   9.3409
     9.3455   9.4058   9.4311   9.4388   9.4857   9.4874   9.4992   9.5059
     9.5319   9.5536   9.5579   9.5669   9.5835   9.6119   9.6180   9.6436
     9.6573   9.6737   9.6794   9.7245   9.7378   9.7605   9.7780   9.7971
     9.8075   9.8411   9.8556   9.9003   9.9172   9.9576   9.9829  10.0035
    10.0313  10.0389  10.0498  10.0535  10.0697  10.1085  10.1456  10.1650
    10.1981  10.2304  10.2374  10.2671  10.3041  10.3239  10.3284  10.3503
    10.3552  10.3615  10.4121  10.4233  10.4314  10.4566  10.5034  10.5069
    10.5360  10.5377  10.6160  10.6333

          k = 0.0000 0.0000 0.0188 (110471 PWs)   bands (ev):

   -21.1423 -20.9292 -20.7591 -20.5328 -20.4337 -20.1726 -20.1052 -20.0028
   -19.7612 -19.5802 -19.3266 -19.2075 -19.1221 -18.8782 -18.8079 -18.5722
   -18.4313 -18.3310 -18.1571 -18.0517 -17.8802 -17.5736 -17.5464 -17.4026
   -17.3318 -17.2365 -16.9260 -16.8768 -16.6593 -16.5168 -16.4264 -16.3522
   -16.2294 -16.1586 -15.9274 -15.7679 -15.6181 -15.4348 -15.1577 -14.6735
   -14.5993 -14.4246 -14.3370 -14.2276 -14.1630 -14.0970 -14.0094 -13.8926
   -13.7616 -13.5792 -13.4631 -13.3345 -13.0803 -12.8941 -12.6688 -12.5792
   -12.3916 -12.2839 -12.1542 -11.9770 -11.8919 -11.8511 -11.6794 -11.6550
   -11.3746 -11.2719 -11.1099 -10.9572 -10.8931 -10.7576 -10.6056 -10.5126
   -10.4350 -10.3288 -10.2192 -10.2056 -10.1205 -10.0557  -9.7363  -9.7049
    -9.6383  -9.4464  -9.4386  -9.2952  -9.2258  -9.2111  -9.1913  -9.0387
    -8.9684  -8.8955  -8.8099  -8.7677  -8.7585  -8.6947  -8.6713  -8.6085
    -8.5904  -8.5128  -8.4879  -8.4224  -8.4054  -8.3156  -8.2014  -8.1392
    -8.0775  -8.0716  -8.0228  -8.0060  -7.9365  -7.9123  -7.8833  -7.8183
    -7.7259  -7.6972  -7.6204  -7.6166  -7.6063  -7.5346  -7.4715  -7.3972
    -7.2433  -7.1199  -7.0832  -7.0478  -7.0183  -6.9618  -6.8421  -6.8060
    -6.6678  -6.6136  -6.5697  -6.5676  -6.3320  -6.3082  -6.3034  -6.2423
    -6.1310  -6.1229  -6.0073  -5.9058  -5.8824  -5.7196  -5.6509  -5.5311
    -5.4957  -5.3157  -5.2636  -5.2463  -5.1600  -5.0839  -4.9844  -4.8763
    -4.6856  -4.5398  -4.3965  -4.2432  -4.1417  -4.1065  -4.0110  -3.8585
    -3.6125  -3.4346  -3.1019  -2.9070  -2.5719  -1.2167  -0.9353  -0.7197
    -0.5674  -0.3719  -0.1983  -0.0677   0.0265   0.0846   0.2091   0.3157
     0.5049   0.7570   0.9753   1.1501   1.1689   1.1934   1.2760   1.3309
     1.3702   1.5015   1.6164   1.6582   1.7333   1.7678   1.7999   1.9790
     2.0445   2.1004   2.1916   2.2413   2.3468   2.3483   2.4925   2.5341
     2.5618   2.6343   2.7021   2.7342   2.7611   2.8058   2.8410   2.9371
     2.9802   3.0302   3.0442   3.1190   3.1910   3.1971   3.2875   3.3116
     3.3757   3.3899   3.4086   3.4724   3.5035   3.5604   3.6200   3.6387
     3.6441   3.7903   3.7953   3.8499   3.9171   3.9283   3.9710   3.9872
     4.0437   4.0864   4.1057   4.1522   4.1808   4.1919   4.2008   4.2825
     4.2907   4.3403   4.3742   4.3869   4.3962   4.4163   4.4642   4.5099
     4.6159   4.6354   4.6581   4.7089   4.7153   4.7251   4.7870   4.8001
     4.8472   4.8905   4.9229   4.9314   4.9918   5.0144   5.0325   5.0940
     5.0987   5.2226   5.2355   5.2739   5.3153   5.3391   5.3603   5.3880
     5.4190   5.4367   5.4430   5.4937   5.5195   5.5260   5.5986   5.6163
     5.6620   5.6623   5.7255   5.7467   5.7520   5.7728   5.7962   5.8128
     5.8381   5.8555   5.8566   5.9101   5.9104   5.9397   5.9560   5.9835
     6.0245   6.0271   6.0726   6.1091   6.1424   6.1860   6.2067   6.2192
     6.2211   6.2581   6.2645   6.2761   6.3599   6.3727   6.4390   6.4542
     6.4852   6.5116   6.5318   6.5593   6.5652   6.5832   6.6200   6.6311
     6.6586   6.6586   6.6616   6.6893   6.7193   6.7339   6.7509   6.7806
     6.8115   6.8405   6.8557   6.8581   6.9177   6.9227   6.9354   6.9393
     6.9786   7.0046   7.0287   7.0518   7.0842   7.0988   7.0994   7.1289
     7.1455   7.1535   7.2161   7.2344   7.2561   7.2647   7.3293   7.3357
     7.3453   7.3750   7.4534   7.4611   7.4658   7.5125   7.5364   7.5717
     7.5867   7.5936   7.5997   7.6228   7.6409   7.6602   7.6680   7.6945
     7.7096   7.7690   7.7777   7.8216   7.8614   7.8750   7.9370   7.9400
     7.9596   7.9790   7.9847   8.0251   8.0509   8.0804   8.0932   8.1046
     8.1064   8.1267   8.1291   8.1384   8.1769   8.1953   8.2283   8.2525
     8.2526   8.2811   8.3093   8.3402   8.3518   8.3836   8.4063   8.4128
     8.4407   8.4463   8.4785   8.5346   8.5367   8.5722   8.5954   8.6020
     8.6318   8.6621   8.6733   8.6977   8.7544   8.7792   8.7880   8.7915
     8.8239   8.8658   8.8916   8.8977   8.9052   8.9139   8.9491   8.9652
     9.0024   9.0168   9.0490   9.0542   9.0880   9.1084   9.1274   9.1628
     9.1781   9.1891   9.2538   9.2585   9.2695   9.2925   9.3189   9.3353
     9.3702   9.4054   9.4224   9.4388   9.4741   9.4820   9.4822   9.4961
     9.5299   9.5303   9.5670   9.5745   9.5841   9.5876   9.6249   9.6356
     9.6452   9.6636   9.7060   9.7378   9.7519   9.7552   9.7838   9.8005
     9.8358   9.8549   9.8744   9.8788   9.9251   9.9748   9.9836   9.9854
     9.9949   9.9972  10.0312  10.0547  10.0719  10.0906  10.1074  10.1493
    10.1878  10.2365  10.2541  10.2690  10.2866  10.2937  10.3239  10.3270
    10.3471  10.3471  10.3865  10.4041  10.4147  10.4483  10.4937  10.5124
    10.5257  10.5358  10.6151  10.6392

          k = 0.0000 0.0000 0.0203 (110491 PWs)   bands (ev):

   -21.1372 -20.9281 -20.7741 -20.5323 -20.4430 -20.1669 -20.0970 -19.9874
   -19.7546 -19.5676 -19.3183 -19.2048 -19.1591 -18.9031 -18.8155 -18.5691
   -18.4607 -18.3335 -18.1377 -18.0720 -17.8292 -17.5574 -17.5293 -17.3913
   -17.3082 -17.2478 -16.9270 -16.8659 -16.6480 -16.5301 -16.4334 -16.3933
   -16.2208 -16.1595 -15.9629 -15.7815 -15.6474 -15.4362 -15.1794 -14.6737
   -14.5947 -14.4139 -14.2938 -14.2043 -14.1373 -14.0733 -13.9633 -13.8929
   -13.7713 -13.5627 -13.4753 -13.3305 -13.0725 -12.9010 -12.7019 -12.6163
   -12.4625 -12.3270 -12.1639 -11.9802 -11.8691 -11.8291 -11.6880 -11.6333
   -11.3513 -11.2481 -11.0944 -10.9675 -10.9306 -10.7341 -10.6201 -10.5188
   -10.3793 -10.3529 -10.2170 -10.2093 -10.1218 -10.0923  -9.7339  -9.6996
    -9.6690  -9.4507  -9.3958  -9.2861  -9.2050  -9.1990  -9.1767  -9.0264
    -8.9663  -8.8748  -8.7942  -8.7766  -8.7719  -8.6899  -8.6780  -8.5970
    -8.5737  -8.5143  -8.4820  -8.4489  -8.4152  -8.3074  -8.2050  -8.1403
    -8.0788  -8.0729  -8.0209  -7.9904  -7.9484  -7.9139  -7.8627  -7.8190
    -7.7455  -7.7200  -7.6631  -7.6268  -7.6124  -7.5322  -7.4989  -7.3825
    -7.2167  -7.1112  -7.0968  -7.0658  -7.0139  -6.9520  -6.8839  -6.8213
    -6.6739  -6.6370  -6.5768  -6.5543  -6.3291  -6.3065  -6.2668  -6.2337
    -6.1641  -6.0918  -6.0143  -5.8771  -5.8571  -5.7478  -5.6572  -5.5437
    -5.4417  -5.3286  -5.2763  -5.2252  -5.1424  -5.0821  -4.9879  -4.8630
    -4.6860  -4.5291  -4.3744  -4.2550  -4.1463  -4.1286  -4.0238  -3.8270
    -3.6204  -3.4491  -3.1386  -2.9146  -2.6063  -1.1869  -0.9356  -0.6954
    -0.5440  -0.3423  -0.1907  -0.0729   0.0576   0.0929   0.2099   0.3048
     0.5060   0.7410   0.9884   1.1155   1.1639   1.2022   1.2848   1.2955
     1.3769   1.4680   1.6105   1.6404   1.7071   1.7236   1.7649   1.9694
     2.0831   2.0951   2.1514   2.2247   2.3556   2.3605   2.5109   2.5361
     2.6039   2.6454   2.7157   2.7585   2.7812   2.7833   2.8740   2.9545
     2.9939   3.0387   3.0589   3.1251   3.1737   3.2062   3.2684   3.2939
     3.3775   3.4087   3.4472   3.4716   3.4797   3.5669   3.6146   3.6473
     3.6510   3.7519   3.8227   3.8576   3.8792   3.9387   3.9553   4.0135
     4.0250   4.0791   4.1082   4.1127   4.1863   4.1864   4.2247   4.2953
     4.3246   4.3457   4.3530   4.3782   4.4182   4.4240   4.4739   4.5342
     4.5920   4.6136   4.6479   4.6765   4.7194   4.7208   4.7641   4.8051
     4.8387   4.9166   4.9237   4.9311   4.9735   4.9980   5.0341   5.0919
     5.0926   5.2249   5.2370   5.2999   5.3230   5.3369   5.3662   5.3787
     5.4026   5.4425   5.4491   5.4580   5.5506   5.5585   5.6076   5.6294
     5.6445   5.6702   5.7317   5.7350   5.7391   5.7484   5.7893   5.8080
     5.8147   5.8181   5.8612   5.8876   5.9064   5.9106   5.9555   6.0094
     6.0218   6.0298   6.0792   6.1317   6.1645   6.1775   6.2000   6.2121
     6.2130   6.2270   6.2651   6.2966   6.3184   6.3734   6.4374   6.4587
     6.4999   6.5166   6.5423   6.5705   6.5772   6.6092   6.6349   6.6513
     6.6545   6.6786   6.6925   6.7153   6.7281   6.7461   6.7809   6.7868
     6.8117   6.8260   6.8332   6.8561   6.8662   6.9051   6.9342   6.9480
     6.9529   6.9923   7.0240   7.0515   7.0890   7.1025   7.1119   7.1267
     7.1458   7.1795   7.2009   7.2332   7.2652   7.2955   7.3174   7.3483
     7.3584   7.3822   7.4713   7.4746   7.4779   7.5051   7.5443   7.5729
     7.5899   7.6109   7.6315   7.6377   7.6385   7.6686   7.6704   7.6966
     7.7078   7.7702   7.7928   7.8022   7.8439   7.8832   7.9242   7.9480
     7.9534   7.9687   7.9867   8.0007   8.0125   8.0723   8.0806   8.1035
     8.1243   8.1408   8.1452   8.1455   8.1682   8.1779   8.1956   8.2350
[...]
    -5.4570  -5.4139  -5.3755  -5.1011  -5.0948  -4.9660  -4.8074  -4.7454
    -4.6833  -4.5527  -4.3869  -4.2673  -4.1755  -4.1116  -4.0487  -3.8885
    -3.6854  -3.4458  -3.3153  -2.9675  -2.8942  -0.9706  -0.9254  -0.6191
    -0.4144  -0.1640  -0.1180   0.0430   0.1492   0.2180   0.3175   0.4357
     0.5580   0.5846   0.7478   0.7842   0.9991   1.1536   1.3134   1.3411
     1.3954   1.4168   1.4458   1.5023   1.5066   1.6010   1.7523   1.7807
     1.8883   2.0414   2.2012   2.3435   2.3458   2.4687   2.5106   2.5748
     2.7454   2.7515   2.8449   2.8817   2.9323   2.9411   2.9649   2.9940
     3.0281   3.0890   3.1520   3.1707   3.2439   3.2569   3.2692   3.2871
     3.3155   3.3504   3.4075   3.4199   3.4921   3.5294   3.5952   3.6274
     3.6329   3.6961   3.7627   3.7966   3.8356   3.8708   3.8940   3.9480
     4.0373   4.0570   4.1344   4.1589   4.2024   4.2586   4.2876   4.3122
     4.3656   4.3738   4.3897   4.4313   4.4390   4.4642   4.5143   4.5147
     4.5322   4.5985   4.6380   4.6848   4.7635   4.7921   4.8183   4.8291
     4.8559   4.8780   4.8911   4.9303   4.9326   4.9745   5.0079   5.0497
     5.0807   5.1337   5.1353   5.2134   5.2747   5.2967   5.3155   5.3811
     5.4022   5.4338   5.4506   5.4704   5.4926   5.5135   5.5265   5.5350
     5.5772   5.6117   5.6599   5.6830   5.7044   5.7262   5.7427   5.7784
     5.8232   5.8316   5.8609   5.8898   5.8937   5.9447   5.9863   5.9989
     6.0627   6.0830   6.1100   6.1193   6.1642   6.1993   6.2223   6.2409
     6.2491   6.2735   6.2942   6.3101   6.3654   6.3977   6.4056   6.4448
     6.4512   6.5250   6.5544   6.5740   6.5989   6.6097   6.6207   6.6405
     6.6613   6.6933   6.7053   6.7250   6.7417   6.7500   6.7727   6.7917
     6.8638   6.8812   6.9079   6.9092   6.9333   6.9902   7.0101   7.0382
     7.0467   7.0700   7.0705   7.0879   7.1383   7.1674   7.1695   7.2047
     7.2212   7.2375   7.2498   7.2738   7.3329   7.3441   7.3495   7.3820
     7.3934   7.3937   7.4120   7.4333   7.4594   7.4794   7.4973   7.4985
     7.5312   7.5385   7.5672   7.5890   7.6092   7.6148   7.6470   7.6531
     7.7056   7.7615   7.7785   7.8031   7.8253   7.8458   7.8712   7.9106
     7.9146   7.9251   7.9861   8.0004   8.0151   8.0559   8.0691   8.0805
     8.1298   8.1697   8.1761   8.1843   8.1974   8.2641   8.2959   8.2984
     8.3162   8.3179   8.3494   8.3538   8.3744   8.3750   8.4159   8.4555
     8.4655   8.4776   8.5104   8.5223   8.5485   8.5678   8.5934   8.6039
     8.6297   8.6351   8.6604   8.6692   8.6817   8.7320   8.7439   8.7593
     8.8087   8.8439   8.8614   8.8617   8.8844   8.9287   8.9365   8.9483
     8.9846   9.0007   9.0245   9.0353   9.0401   9.0866   9.1333   9.1349
     9.1514   9.1880   9.2319   9.2776   9.3036   9.3103   9.3160   9.3334
     9.3440   9.3804   9.4202   9.4257   9.4638   9.4835   9.4850   9.5191
     9.5523   9.5589   9.5878   9.5919   9.5952   9.5974   9.6295   9.6492
     9.6895   9.6986   9.7099   9.7160   9.7235   9.7451   9.7669   9.7717
     9.7995   9.8024   9.8221   9.8412   9.8546   9.8864   9.8915   9.9106
     9.9389   9.9553   9.9659  10.0031  10.0169  10.0637  10.1135  10.1211
    10.1391  10.1740  10.1759  10.2245  10.2339  10.2522  10.2807  10.2975
    10.3118  10.3238  10.3431  10.3527  10.3840  10.4356  10.4598  10.4920
    10.4941  10.5216  10.5496  10.5643

          k = 0.0000 0.0000 0.0360 (110524 PWs)   bands (ev):

   -21.0848 -20.9451 -20.8542 -20.5568 -20.4645 -20.2329 -19.9508 -19.7944
   -19.7149 -19.5591 -19.3621 -19.2379 -19.2054 -19.0795 -18.8821 -18.6953
   -18.4573 -18.3498 -18.2828 -17.8552 -17.7318 -17.4689 -17.3605 -17.2664
   -17.1265 -17.0740 -16.9911 -16.8934 -16.7600 -16.6039 -16.5354 -16.3722
   -16.3379 -16.2851 -16.1873 -15.8571 -15.6786 -15.4551 -15.3485 -14.6651
   -14.5647 -14.4416 -14.2296 -14.1090 -13.9101 -13.7153 -13.7042 -13.5878
   -13.5408 -13.4731 -13.4298 -13.2792 -13.2297 -13.1606 -13.1481 -12.9265
   -12.7406 -12.5807 -12.4420 -11.8720 -11.8055 -11.6105 -11.5274 -11.4323
   -11.2903 -11.2633 -11.0619 -11.0228 -10.9151 -10.8540 -10.7309 -10.6064
   -10.4807 -10.3778 -10.2512 -10.1239 -10.0634  -9.8656  -9.7884  -9.7405
    -9.6389  -9.4569  -9.3759  -9.2852  -9.1416  -9.1251  -8.9939  -8.9787
    -8.9425  -8.8747  -8.8594  -8.6965  -8.6904  -8.5979  -8.5646  -8.5510
    -8.4631  -8.4233  -8.4223  -8.3962  -8.3841  -8.3427  -8.3190  -8.2870
    -8.2213  -8.1728  -8.1345  -8.0638  -7.9640  -7.9186  -7.9140  -7.8556
    -7.8199  -7.7721  -7.7145  -7.6492  -7.6160  -7.5250  -7.5068  -7.3582
    -7.2115  -7.1624  -7.1371  -7.1057  -7.0125  -6.9930  -6.9495  -6.8127
    -6.8029  -6.7428  -6.6576  -6.5419  -6.4605  -6.2938  -6.1779  -6.1444
    -6.0598  -5.9802  -5.9151  -5.8265  -5.7914  -5.6938  -5.5971  -5.5571
    -5.4660  -5.4263  -5.4058  -5.1001  -5.0950  -4.9221  -4.7845  -4.7616
    -4.6873  -4.5753  -4.3688  -4.2795  -4.1759  -4.1019  -4.0492  -3.8830
    -3.7165  -3.4321  -3.3165  -2.9675  -2.9143  -0.9636  -0.9198  -0.6172
    -0.4224  -0.1565  -0.0966   0.0542   0.1487   0.2153   0.3301   0.4361
     0.5500   0.6464   0.7120   0.7679   0.9311   1.1566   1.3292   1.3358
     1.3980   1.4121   1.4489   1.4832   1.5444   1.5969   1.7106   1.7849
     1.8825   2.0379   2.2054   2.3362   2.3463   2.4844   2.5440   2.5554
     2.7253   2.7549   2.8611   2.8701   2.9264   2.9615   2.9831   3.0134
     3.0289   3.1006   3.1682   3.1738   3.2425   3.2474   3.2503   3.2844
     3.3067   3.3499   3.3933   3.4340   3.5000   3.5438   3.5842   3.6117
     3.6210   3.7077   3.7770   3.7786   3.7941   3.8517   3.9335   3.9634
     4.0401   4.0706   4.1269   4.1658   4.1822   4.2613   4.3008   4.3068
     4.3557   4.3676   4.3751   4.4255   4.4421   4.4737   4.4996   4.5110
     4.5696   4.5983   4.6479   4.6785   4.7545   4.8129   4.8349   4.8501
     4.8696   4.8957   4.8980   4.9156   4.9290   4.9742   5.0141   5.0401
     5.0715   5.1115   5.1306   5.1766   5.2368   5.2555   5.3553   5.3681
     5.4285   5.4483   5.4634   5.4908   5.5036   5.5129   5.5269   5.5344
     5.5721   5.5754   5.6263   5.6776   5.6883   5.6956   5.7429   5.7879
     5.8288   5.8396   5.8628   5.8913   5.8936   5.9498   5.9983   6.0337
     6.0477   6.1162   6.1242   6.1395   6.1704   6.1942   6.2260   6.2443
     6.2495   6.2680   6.2775   6.3148   6.3631   6.3681   6.3719   6.4356
     6.4513   6.5141   6.5373   6.5860   6.6024   6.6069   6.6222   6.6451
     6.6608   6.6857   6.7095   6.7268   6.7407   6.7597   6.7934   6.8175
     6.8586   6.8934   6.9002   6.9172   6.9475   6.9896   7.0069   7.0561
     7.0603   7.0674   7.0968   7.1072   7.1324   7.1786   7.1871   7.1912
     7.2027   7.2289   7.2631   7.2810   7.3168   7.3336   7.3441   7.3848
     7.3946   7.4075   7.4239   7.4314   7.4563   7.4704   7.4854   7.5067
     7.5246   7.5335   7.5445   7.5773   7.6078   7.6227   7.6288   7.6553
     7.6896   7.7564   7.7764   7.7765   7.8002   7.8426   7.8637   7.8910
     7.9118   7.9528   7.9893   8.0062   8.0310   8.0640   8.0706   8.1089
     8.1571   8.1651   8.1819   8.2015   8.2024   8.2441   8.2837   8.3167
     8.3181   8.3263   8.3555   8.3674   8.3812   8.3979   8.4321   8.4415
     8.4527   8.4766   8.5359   8.5409   8.5510   8.5642   8.5754   8.5969
     8.6260   8.6533   8.6765   8.6809   8.6813   8.7030   8.7142   8.7285
     8.8162   8.8254   8.8319   8.8570   8.8712   8.8939   8.9073   8.9204
     8.9560   8.9754   9.0087   9.0427   9.0750   9.1260   9.1453   9.1630
     9.1893   9.2013   9.2620   9.2806   9.3036   9.3129   9.3377   9.3393
     9.3498   9.3669   9.4227   9.4322   9.4570   9.4904   9.4930   9.5444
     9.5519   9.5526   9.5690   9.5844   9.5861   9.6014   9.6340   9.6350
     9.6620   9.6749   9.7049   9.7228   9.7504   9.7591   9.7678   9.7721
     9.7883   9.8037   9.8172   9.8368   9.8380   9.8589   9.8809   9.8975
     9.9096   9.9563   9.9914  10.0042  10.0502  10.0806  10.0899  10.1238
    10.1446  10.1600  10.1708  10.2153  10.2394  10.2504  10.2636  10.2929
    10.3049  10.3233  10.3403  10.3600  10.3904  10.4386  10.4747  10.4748
    10.4937  10.5210  10.5566  10.5608

          k = 0.0000 0.0000 0.0376 (110516 PWs)   bands (ev):

   -21.0826 -20.9471 -20.8552 -20.5581 -20.4640 -20.2350 -19.9477 -19.7863
   -19.7044 -19.5789 -19.3492 -19.2479 -19.2058 -19.0792 -18.8847 -18.7024
   -18.4488 -18.3535 -18.2893 -17.8287 -17.7580 -17.4673 -17.3584 -17.2180
   -17.1242 -17.0933 -17.0184 -16.8710 -16.7620 -16.6272 -16.5265 -16.3542
   -16.3212 -16.3086 -16.2153 -15.8478 -15.6780 -15.4595 -15.3516 -14.6644
   -14.5643 -14.4416 -14.2326 -14.1108 -13.9011 -13.7125 -13.7066 -13.5602
   -13.5153 -13.4461 -13.3861 -13.3246 -13.2547 -13.1885 -13.1662 -12.9302
   -12.7560 -12.5478 -12.4761 -11.8657 -11.8106 -11.5920 -11.5098 -11.4475
   -11.3091 -11.2439 -11.0619 -11.0149 -10.9406 -10.8339 -10.7218 -10.6439
   -10.4766 -10.3748 -10.2386 -10.1332 -10.0661  -9.8510  -9.8043  -9.7395
    -9.6075  -9.4518  -9.3780  -9.3138  -9.1390  -9.1218  -8.9991  -8.9809
    -8.9489  -8.8759  -8.8477  -8.6966  -8.6754  -8.5666  -8.5597  -8.5217
    -8.4888  -8.4460  -8.4224  -8.3935  -8.3762  -8.3526  -8.3153  -8.2943
    -8.2299  -8.1756  -8.1319  -8.0794  -7.9645  -7.9230  -7.9177  -7.8609
    -7.8161  -7.7580  -7.7274  -7.6439  -7.5995  -7.5249  -7.5045  -7.3842
    -7.1912  -7.1524  -7.1485  -7.1201  -7.0109  -7.0019  -6.9439  -6.8014
    -6.7961  -6.7594  -6.6604  -6.5421  -6.4706  -6.2928  -6.1654  -6.1411
    -6.0684  -5.9865  -5.8927  -5.8211  -5.8041  -5.6952  -5.5897  -5.5303
    -5.4717  -5.4350  -5.4327  -5.0995  -5.0953  -4.8827  -4.7972  -4.7525
    -4.6907  -4.5951  -4.3462  -4.2967  -4.1753  -4.0928  -4.0563  -3.8689
    -3.7434  -3.4228  -3.3171  -2.9660  -2.9286  -0.9602  -0.9154  -0.6160
    -0.4279  -0.1524  -0.0832   0.0735   0.1338   0.2096   0.3557   0.4252
     0.5490   0.6766   0.7152   0.7627   0.8630   1.1594   1.3322   1.3456
     1.3803   1.4279   1.4507   1.4657   1.5827   1.5941   1.6701   1.7879
     1.8786   2.0358   2.2085   2.3299   2.3476   2.5008   2.5369   2.5723
     2.7009   2.7618   2.8618   2.8779   2.9121   2.9695   2.9980   3.0206
     3.0503   3.1098   3.1707   3.1842   3.2250   3.2276   3.2544   3.2553
     3.3220   3.3558   3.3995   3.4434   3.5045   3.5168   3.5786   3.6097
     3.6432   3.7222   3.7472   3.7585   3.7947   3.8336   3.9702   3.9810
     4.0484   4.0761   4.0894   4.1450   4.2304   4.2537   4.3118   4.3137
     4.3293   4.3423   4.3595   4.4357   4.4473   4.4810   4.4876   4.5284
     4.5986   4.6046   4.6088   4.7159   4.7486   4.7794   4.8422   4.8632
     4.8750   4.9009   4.9104   4.9272   4.9732   4.9914   4.9949   5.0211
     5.0703   5.0922   5.0999   5.1635   5.2157   5.2328   5.3471   5.3974
     5.4568   5.4593   5.4654   5.4719   5.5043   5.5254   5.5420   5.5461
     5.5631   5.5801   5.5992   5.6312   5.6627   5.6920   5.7285   5.8276
     5.8328   5.8454   5.8640   5.8920   5.8971   5.9406   5.9764   6.0475
     6.0958   6.1239   6.1443   6.1569   6.1665   6.1973   6.2185   6.2244
     6.2478   6.2576   6.2807   6.3237   6.3419   6.3429   6.3844   6.4309
     6.4451   6.5009   6.5183   6.6014   6.6049   6.6059   6.6251   6.6511
     6.6600   6.6746   6.7037   6.7344   6.7408   6.7628   6.7963   6.8503
     6.8654   6.8832   6.9112   6.9141   6.9594   6.9912   7.0136   7.0649
     7.0721   7.0738   7.1075   7.1150   7.1280   7.1591   7.1807   7.1847
     7.2082   7.2429   7.2736   7.2760   7.3155   7.3257   7.3529   7.3776
     7.3789   7.4020   7.4153   7.4262   7.4437   7.4723   7.4941   7.5046
     7.5298   7.5504   7.5562   7.5880   7.5981   7.6252   7.6273   7.6596
     7.6657   7.7216   7.7583   7.7748   7.7788   7.8295   7.8434   7.9110
     7.9133   7.9649   7.9917   8.0211   8.0398   8.0687   8.0839   8.1366
     8.1523   8.1692   8.1886   8.1932   8.2266   8.2355   8.2585   8.3007
     8.3293   8.3405   8.3454   8.3795   8.3921   8.4028   8.4231   8.4732
     8.4736   8.4805   8.5326   8.5356   8.5548   8.5736   8.5779   8.6071
     8.6128   8.6409   8.6636   8.6731   8.6735   8.7009   8.7337   8.7464
     8.7645   8.7896   8.8348   8.8565   8.8710   8.8723   8.8791   8.9245
     8.9379   8.9520   8.9753   9.0464   9.1218   9.1485   9.1738   9.1918
     9.2100   9.2249   9.2599   9.2850   9.2939   9.3065   9.3156   9.3394
     9.3589   9.3675   9.4162   9.4444   9.4715   9.5103   9.5148   9.5198
     9.5234   9.5364   9.5799   9.5923   9.5993   9.6161   9.6227   9.6387
     9.6412   9.6511   9.7042   9.7164   9.7491   9.7579   9.7689   9.7784
     9.7931   9.8045   9.8079   9.8309   9.8343   9.8723   9.8779   9.8805
     9.8918   9.9604   9.9856  10.0290  10.0419  10.0901  10.1022  10.1147
    10.1161  10.1693  10.1778  10.2013  10.2282  10.2375  10.2529  10.2923
    10.3133  10.3304  10.3714  10.3782  10.3994  10.4190  10.4548  10.4690
    10.4814  10.5314  10.5465  10.5612

          k = 0.0000 0.0000-0.0391 (110500 PWs)   bands (ev):

   -21.0819 -20.9478 -20.8555 -20.5586 -20.4639 -20.2358 -19.9466 -19.7838
   -19.6994 -19.5869 -19.3438 -19.2525 -19.2058 -19.0789 -18.8855 -18.7047
   -18.4457 -18.3551 -18.2915 -17.8130 -17.7736 -17.4668 -17.3580 -17.1801
   -17.1549 -17.0863 -17.0313 -16.8621 -16.7625 -16.6365 -16.5234 -16.3328
   -16.3316 -16.3133 -16.2271 -15.8446 -15.6778 -15.4611 -15.3526 -14.6641
   -14.5642 -14.4416 -14.2336 -14.1115 -13.8978 -13.7156 -13.7036 -13.5523
   -13.5097 -13.3928 -13.3877 -13.3611 -13.2678 -13.1892 -13.1786 -12.9312
   -12.7614 -12.5218 -12.5025 -11.8633 -11.8125 -11.5846 -11.5040 -11.4530
   -11.3163 -11.2366 -11.0624 -11.0105 -10.9514 -10.8267 -10.7122 -10.6634
   -10.4753 -10.3740 -10.2326 -10.1387 -10.0662  -9.8424  -9.8135  -9.7394
    -9.5951  -9.4489  -9.3799  -9.3249  -9.1381  -9.1207  -9.0007  -8.9816
    -8.9512  -8.8763  -8.8439  -8.6969  -8.6692  -8.5673  -8.5343  -8.5143
    -8.4898  -8.4756  -8.4220  -8.3926  -8.3660  -8.3597  -8.3155  -8.2954
    -8.2336  -8.1766  -8.1295  -8.0860  -7.9646  -7.9245  -7.9188  -7.8628
    -7.8149  -7.7466  -7.7384  -7.6423  -7.5911  -7.5337  -7.4946  -7.3958
    -7.1736  -7.1643  -7.1485  -7.1238  -7.0101  -7.0057  -6.9420  -6.8007
    -6.7831  -6.7724  -6.6614  -6.5422  -6.4741  -6.2924  -6.1605  -6.1401
    -6.0721  -5.9885  -5.8825  -5.8247  -5.8056  -5.6959  -5.5869  -5.5170
    -5.4737  -5.4460  -5.4381  -5.0994  -5.0954  -4.8603  -4.8143  -4.7439
    -4.6925  -4.6033  -4.3296  -4.3112  -4.1750  -4.0878  -4.0614  -3.8607
    -3.7554  -3.4195  -3.3173  -2.9648  -2.9341  -0.9592  -0.9137  -0.6156
    -0.4299  -0.1510  -0.0790   0.0895   0.1188   0.2073   0.3734   0.4132
     0.5503   0.6689   0.7381   0.7901   0.8058   1.1605   1.3309   1.3622
     1.3632   1.4435   1.4440   1.4570   1.5932   1.6108   1.6414   1.7890
     1.8772   2.0351   2.2096   2.3278   2.3480   2.5146   2.5224   2.5850
     2.6894   2.7644   2.8588   2.8947   2.8956   2.9799   2.9857   3.0445
     3.0492   3.1135   3.1685   3.1947   3.2139   3.2255   3.2348   3.2577
     3.3355   3.3464   3.4135   3.4467   3.4983   3.5059   3.5775   3.6047
     3.6725   3.7153   3.7341   3.7454   3.8062   3.8215   3.9717   4.0220
     4.0400   4.0529   4.0908   4.1371   4.2489   4.2758   4.2824   4.3193
     4.3244   4.3302   4.3544   4.4401   4.4506   4.4797   4.4821   4.5565
     4.5759   4.5998   4.6205   4.7410   4.7466   4.7554   4.8301   4.8715
     4.8722   4.9164   4.9229   4.9317   4.9602   5.0135   5.0301   5.0304
     5.0392   5.0397   5.1053   5.1742   5.1876   5.2373   5.3381   5.4331
     5.4352   5.4634   5.4776   5.4812   5.4975   5.4983   5.5522   5.5704
     5.5751   5.5873   5.5930   5.6093   5.6272   5.6930   5.7261   5.8336
     5.8443   5.8497   5.8649   5.8923   5.9121   5.9157   5.9679   6.0579
     6.1311   6.1329   6.1450   6.1503   6.1544   6.2023   6.2204   6.2235
     6.2242   6.2724   6.2922   6.2951   6.3359   6.3439   6.4030   6.4250
     6.4356   6.4962   6.5116   6.6055   6.6059   6.6082   6.6261   6.6589
     6.6597   6.6638   6.7012   6.7322   6.7518   6.7589   6.7978   6.8474
     6.8794   6.8887   6.9045   6.9222   6.9465   7.0141   7.0275   7.0614
     7.0720   7.0742   7.0784   7.1212   7.1459   7.1505   7.1634   7.2100
     7.2268   7.2292   7.2541   7.2740   7.3344   7.3347   7.3581   7.3643
     7.3780   7.3900   7.3932   7.4322   7.4345   7.4863   7.4964   7.5079
     7.5168   7.5527   7.5738   7.5862   7.6237   7.6278   7.6392   7.6524
     7.6619   7.6741   7.7439   7.7742   7.7802   7.8254   7.8385   7.9105
     7.9359   7.9421   8.0126   8.0268   8.0324   8.0700   8.1059   8.1305
     8.1656   8.1719   8.1772   8.1871   8.2142   8.2637   8.2651   8.2782
     8.3125   8.3434   8.3561   8.3834   8.3891   8.4144   8.4229   8.4596
     8.4913   8.5147   8.5216   8.5316   8.5362   8.5763   8.5991   8.6042
     8.6164   8.6392   8.6596   8.6609   8.6641   8.7011   8.7287   8.7632
     8.7658   8.7804   8.8067   8.8520   8.8696   8.8732   8.8782   8.9301
     8.9380   8.9398   8.9540   9.0476   9.1379   9.1514   9.2021   9.2210
     9.2289   9.2359   9.2376   9.2518   9.2912   9.3028   9.3123   9.3404
     9.3504   9.3707   9.4540   9.4587   9.4640   9.4882   9.4934   9.5068
     9.5447   9.5487   9.5665   9.5970   9.6109   9.6139   9.6187   9.6232
     9.6626   9.6649   9.6794   9.7161   9.7295   9.7607   9.7694   9.7830
     9.7907   9.8048   9.8186   9.8248   9.8334   9.8493   9.8769   9.8888
     9.9172   9.9601   9.9847   9.9981  10.0654  10.0911  10.0995  10.0996
    10.1271  10.1704  10.1878  10.1971  10.2128  10.2212  10.2571  10.2934
    10.3160  10.3458  10.3886  10.3916  10.4035  10.4162  10.4220  10.4597
    10.4829  10.5203  10.5516  10.5773

     the Fermi energy is    -2.2288 ev

     Writing output data file ANTI14-6-6_2.save/

     init_run     :     16.21s CPU     16.87s WALL (       1 calls)
     electrons    :  10733.07s CPU  10898.88s WALL (       1 calls)

     Called by init_run:
     wfcinit      :      0.00s CPU      0.00s WALL (       1 calls)
     potinit      :      1.14s CPU      1.28s WALL (       1 calls)
     hinit0       :     12.35s CPU     12.46s WALL (       1 calls)

     Called by electrons:
     c_bands      :  10733.05s CPU  10898.75s WALL (       1 calls)
     v_of_rho     :      0.85s CPU      0.91s WALL (       1 calls)
     newd         :      0.69s CPU      1.01s WALL (       1 calls)

     Called by c_bands:
     init_us_2    :      0.63s CPU      0.66s WALL (      26 calls)
     cegterg      :  10536.40s CPU  10693.29s WALL (     121 calls)

     Called by sum_band:

     Called by *egterg:
     h_psi        :   3008.66s CPU   3073.97s WALL (    2317 calls)
     s_psi        :    341.99s CPU    343.65s WALL (    2317 calls)
     g_psi        :     13.94s CPU     14.09s WALL (    2170 calls)
     cdiaghg      :   4229.63s CPU   4247.74s WALL (    2196 calls)

     Called by h_psi:
     h_psi:pot    :   3001.13s CPU   3057.84s WALL (    2317 calls)
     h_psi:calbec :    383.19s CPU    389.32s WALL (    2317 calls)
     vloc_psi     :   2275.67s CPU   2324.58s WALL (    2317 calls)
     add_vuspsi   :    342.23s CPU    343.89s WALL (    2317 calls)

     General routines
     calbec       :    383.18s CPU    389.29s WALL (    2317 calls)
     fft          :      1.03s CPU      1.09s WALL (      14 calls)
     ffts         :      0.01s CPU      0.01s WALL (       1 calls)
     fftw         :   2106.56s CPU   2154.24s WALL (  637780 calls)
     interpolate  :      0.08s CPU      0.08s WALL (       1 calls)
     davcio       :      0.01s CPU      3.64s WALL (      52 calls)

     Parallel routines
     fft_scatt_xy :    198.10s CPU    199.34s WALL (  637795 calls)
     fft_scatt_yz :   1318.93s CPU   1360.68s WALL (  637795 calls)

     PWSCF        :     2h59m CPU       59h 3m WALL

       6h

   This run was terminated on:  17:43:36  22Apr2021            

=------------------------------------------------------------------------------=
   JOB DONE.
=------------------------------------------------------------------------------=
