
     Program PWSCF v.6.3 starts on 22Apr2021 at 17:37:53 

     This program is part of the open-source Quantum ESPRESSO suite
     for quantum simulation of materials; please cite
         "P. Giannozzi et al., J. Phys.:Condens. Matter 21 395502 (2009);
         "P. Giannozzi et al., J. Phys.:Condens. Matter 29 465901 (2017);
          URL http://www.quantum-espresso.org", 
     in publications or presentations arising from this work. More details at
     http://www.quantum-espresso.org/quote

     Parallel version (MPI), running on    16 processors
     R & G space division:  proc/nbgrp/npool/nimage =      16
     Waiting for input...
     Reading input from standard input
     Message from routine read_cards :
     DEPRECATED: no units specified in CELL_PARAMETERS card

     Current dimensions of program PWSCF are:
     Max number of different atomic species (ntypx) = 10
     Max number of k-points (npk) =  40000
     Max angular momentum in pseudopotentials (lmaxx) =  3

     Atomic positions and unit cell read from directory:
     /home/zfwang/scratch/GNRDATASET/AGNR/ANTI14-6-12_2/ANTI14-6-12_2.save/


     Subspace diagonalization in iterative solution of the eigenvalue problem:
     a serial algorithm will be used


     Parallelization info
     --------------------
     sticks:   dense  smooth     PW     G-vecs:    dense   smooth      PW
     Min        2556     852    221               287136    55262    7339
     Max        2558     854    222               287139    55263    7342
     Sum       40909   13645   3551              4594185   884201  117443



     bravais-lattice index     =            0
     lattice parameter (alat)  =       1.8897  a.u.
     unit-cell volume          =   25873.1145 (a.u.)^3
     number of atoms/cell      =           96
     number of atomic types    =            2
     number of electrons       =       312.00
     number of Kohn-Sham states=          500
     kinetic-energy cutoff     =      40.0000  Ry
     charge density cutoff     =     480.0000  Ry
     Exchange-correlation      = PBE ( 1  4  3  4 0 0)

     celldm(1)=  18.897261  celldm(2)=   3.000000  celldm(3)=   1.278000
     celldm(4)=   0.000000  celldm(5)=   0.000000  celldm(6)=   0.000000

     crystal axes: (cart. coord. in units of alat)
               a(1) = (  10.000000   0.000000   0.000000 )  
               a(2) = (   0.000000  30.000000   0.000000 )  
               a(3) = (   0.000000   0.000000  12.780000 )  

     reciprocal axes: (cart. coord. in units 2 pi/alat)
               b(1) = (  0.100000  0.000000  0.000000 )  
               b(2) = (  0.000000  0.033333  0.000000 )  
               b(3) = (  0.000000  0.000000  0.078247 )  


     PseudoPot. # 1 for C  read from file:
     /home/zfwang/hp_home/MySoftware/qe-6.3/pseudo/C.pbe-n-rrkjus_psl.0.1.UPF
     MD5 check sum: fff530ed632a789b3b184014e67dd7f1
     Pseudo is Ultrasoft + core correction, Zval =  4.0
     Generated using "atomic" code by A. Dal Corso v.5.0.2 svn rev. 9415
     Using radial grid of 1073 points,  4 beta functions with: 
                l(1) =   0
                l(2) =   0
                l(3) =   1
                l(4) =   1
     Q(r) pseudized with 0 coefficients 


     PseudoPot. # 2 for H  read from file:
     /home/zfwang/hp_home/MySoftware/qe-6.3/pseudo/H.pbe-rrkjus_psl.0.1.UPF
     MD5 check sum: e164a6907b691c6980f16942be34de84
     Pseudo is Ultrasoft, Zval =  1.0
     Generated using "atomic" code by A. Dal Corso v.5.0.2 svn rev. 9415
     Using radial grid of  929 points,  2 beta functions with: 
                l(1) =   0
                l(2) =   0
     Q(r) pseudized with 0 coefficients 


     atomic species   valence    mass     pseudopotential
        C              4.00    12.01070     C ( 1.00)
        H              1.00     1.00794     H ( 1.00)

     No symmetry found



   Cartesian axes

     site n.     atom                  positions (alat units)
         1           C   tau(   1) = (   4.9999969   6.7272248   2.7391866  )
         2           C   tau(   2) = (   4.9999973   6.4439298   7.0886988  )
         3           C   tau(   3) = (   5.0000005   6.8027962  11.4022060  )
         4           C   tau(   4) = (   4.9999952   7.8739779   3.5169769  )
         5           C   tau(   5) = (   5.0000014   7.6550465   7.8290957  )
         6           C   tau(   6) = (   5.0000011   8.0320687  12.0678897  )
         7           C   tau(   7) = (   4.9999987   6.8027969   1.3778009  )
         8           C   tau(   8) = (   4.9999963   6.4439278   5.6913017  )
         9           C   tau(   9) = (   5.0000004   6.7272249  10.0408052  )
        10           C   tau(  10) = (   4.9999953   9.1743091   2.8608490  )
        11           C   tau(  11) = (   5.0000124   8.7852548   7.0575907  )
        12           C   tau(  12) = (   5.0000008   9.2572233  11.3488451  )
        13           C   tau(  13) = (   4.9999923  10.4690650   3.4414804  )
        14           C   tau(  14) = (   5.0000013  10.5284871  12.0684881  )
        15           C   tau(  15) = (   5.0000001   8.0320681   0.7121078  )
        16           C   tau(  16) = (   4.9999969   7.6550517   4.9509071  )
        17           C   tau(  17) = (   4.9999994   7.8739778   9.2630248  )
        18           C   tau(  18) = (   4.9999993   9.2572221   1.4311576  )
        19           C   tau(  19) = (   5.0000076   8.7852454   5.7224074  )
        20           C   tau(  20) = (   4.9999975   9.1743082   9.9191477  )
        21           C   tau(  21) = (   4.9999994  11.6413048   2.7653767  )
        22           C   tau(  22) = (   5.0000019  11.8015234  11.4048786  )
        23           C   tau(  23) = (   5.0000009  13.1123232  12.0783138  )
        24           C   tau(  24) = (   5.0000008  10.5284891   0.7115101  )
        25           C   tau(  25) = (   4.9999914  10.4690735   9.3385263  )
        26           C   tau(  26) = (   5.0000018  11.8015209   1.3751249  )
        27           C   tau(  27) = (   4.9999977  11.6412961  10.0146153  )
        28           C   tau(  28) = (   4.9999999  14.5764230   2.7348288  )
        29           C   tau(  29) = (   4.9999994  14.4312234  11.4228585  )
        30           C   tau(  30) = (   5.0000030  15.7542448   3.3958488  )
        31           C   tau(  31) = (   5.0000000  15.7179064  12.0755485  )
        32           C   tau(  32) = (   5.0000011  13.1123234   0.7016848  )
        33           C   tau(  33) = (   4.9999998  14.4312265   1.3571473  )
        34           C   tau(  34) = (   5.0000003  14.5764342  10.0451582  )
        35           C   tau(  35) = (   5.0000019  17.0423921   2.8256221  )
        36           C   tau(  36) = (   4.9999959  17.2831463   7.0554352  )
        37           C   tau(  37) = (   5.0000003  16.9955934  11.3725457  )
        38           C   tau(  38) = (   5.0000018  18.3126823   3.5267901  )
        39           C   tau(  39) = (   5.0000009  18.4137892   7.8323703  )
        40           C   tau(  40) = (   5.0000002  18.2497249  12.0709330  )
        41           C   tau(  41) = (   5.0000003  15.7179030   0.7044489  )
        42           C   tau(  42) = (   5.0000040  15.7542346   9.3841622  )
        43           C   tau(  43) = (   5.0000007  16.9955944   1.4074578  )
        44           C   tau(  44) = (   4.9999967  17.2831374   5.7245643  )
        45           C   tau(  45) = (   5.0000019  17.0423930   9.9543738  )
        46           C   tau(  46) = (   5.0000012  19.5298527   2.8271119  )
        47           C   tau(  47) = (   5.0000018  19.6255141   7.1030821  )
        48           C   tau(  48) = (   5.0000005  19.4984051  11.3724189  )
        49           C   tau(  49) = (   5.0000006  20.7910124   3.5410969  )
        50           C   tau(  50) = (   5.0000012  20.8449492   7.8164345  )
        51           C   tau(  51) = (   5.0000005  20.7424895  12.0718724  )
        52           C   tau(  52) = (   5.0000004  18.2497236   0.7090670  )
        53           C   tau(  53) = (   5.0000013  18.4137950   4.9476259  )
        54           C   tau(  54) = (   5.0000015  18.3126864   9.2532120  )
        55           C   tau(  55) = (   5.0000007  19.4984042   1.4075828  )
        56           C   tau(  56) = (   5.0000017  19.6255100   5.6769161  )
        57           C   tau(  57) = (   5.0000009  19.5298510   9.9528862  )
        58           C   tau(  58) = (   5.0000002  22.0116805   2.8375918  )
        59           C   tau(  59) = (   5.0000006  22.0745340   7.1106420  )
        60           C   tau(  60) = (   5.0000005  21.9844255  11.3742242  )
        61           C   tau(  61) = (   4.9999995  23.2293361   3.5528866  )
        62           C   tau(  62) = (   5.0000002  23.2655305   7.8573468  )
        63           C   tau(  63) = (   5.0000008  23.1843084  12.0961882  )
        64           C   tau(  64) = (   5.0000005  20.7424895   0.7081278  )
        65           C   tau(  65) = (   5.0000010  20.8449501   4.9635634  )
        66           C   tau(  66) = (   5.0000007  20.7910133   9.2389021  )
        67           C   tau(  67) = (   5.0000004  21.9844260   1.4057745  )
        68           C   tau(  68) = (   5.0000003  22.0745334   5.6693575  )
        69           C   tau(  69) = (   5.0000005  22.0116796   9.9424066  )
        70           C   tau(  70) = (   5.0000008  23.1843085   0.6838089  )
        71           C   tau(  71) = (   4.9999994  23.2655312   4.9226529  )
        72           C   tau(  72) = (   5.0000005  23.2293360   9.2271139  )
        73           H   tau(  73) = (   4.9999974   5.7516254   3.2212241  )
        74           H   tau(  74) = (   4.9999973   5.4749300   7.5865147  )
        75           H   tau(  75) = (   5.0000002   5.8683925  11.9480725  )
        76           H   tau(  76) = (   4.9999993   5.8683917   0.8319255  )
        77           H   tau(  77) = (   4.9999965   5.4749293   5.1934866  )
        78           H   tau(  78) = (   5.0000014   5.7516262   9.5587764  )
        79           H   tau(  79) = (   4.9999993  24.1769342   3.0215256  )
        80           H   tau(  80) = (   4.9999999  24.2335397   7.3608886  )
        81           H   tau(  81) = (   5.0000011  24.1402292  11.5812134  )
        82           H   tau(  82) = (   5.0000010  24.1402288   1.1987846  )
        83           H   tau(  83) = (   4.9999988  24.2335416   5.4191108  )
        84           H   tau(  84) = (   5.0000006  24.1769346   9.7584731  )
        85           H   tau(  85) = (   5.0000304   9.7455063   7.4774299  )
        86           H   tau(  86) = (   4.9999819  10.7106740   4.4814936  )
        87           H   tau(  87) = (   5.0000184   9.7455088   5.3025677  )
        88           H   tau(  88) = (   5.0000010  12.4560056   3.4481713  )
        89           H   tau(  89) = (   4.9999768  10.7106739   8.2985037  )
        90           H   tau(  90) = (   4.9999957  12.4560067   9.3318285  )
        91           H   tau(  91) = (   4.9999982  13.7615240   3.4161229  )
        92           H   tau(  92) = (   5.0000079  15.5079845   4.4250718  )
        93           H   tau(  93) = (   4.9999998  13.7615227   9.3638750  )
        94           H   tau(  94) = (   4.9999878  16.3089695   7.4337301  )
        95           H   tau(  95) = (   5.0000110  15.5079845   8.3549251  )
        96           H   tau(  96) = (   4.9999901  16.3089717   5.3462660  )

     number of k points=    26  Marzari-Vanderbilt smearing, width (Ry)=  0.0100
                       cart. coord. in units 2pi/alat
        k(    1) = (   0.0000000   0.0000000   0.0000000), wk =   0.0400000
        k(    2) = (   0.0000000   0.0000000   0.0015649), wk =   0.0800000
        k(    3) = (   0.0000000   0.0000000   0.0031299), wk =   0.0800000
        k(    4) = (   0.0000000   0.0000000   0.0046948), wk =   0.0800000
        k(    5) = (   0.0000000   0.0000000   0.0062598), wk =   0.0800000
        k(    6) = (   0.0000000   0.0000000   0.0078247), wk =   0.0800000
        k(    7) = (   0.0000000   0.0000000   0.0093897), wk =   0.0800000
        k(    8) = (   0.0000000   0.0000000   0.0109546), wk =   0.0800000
        k(    9) = (   0.0000000   0.0000000   0.0125196), wk =   0.0800000
        k(   10) = (   0.0000000   0.0000000   0.0140845), wk =   0.0800000
        k(   11) = (   0.0000000   0.0000000   0.0156495), wk =   0.0800000
        k(   12) = (   0.0000000   0.0000000   0.0172144), wk =   0.0800000
        k(   13) = (   0.0000000   0.0000000   0.0187793), wk =   0.0800000
        k(   14) = (   0.0000000   0.0000000   0.0203443), wk =   0.0800000
        k(   15) = (   0.0000000   0.0000000   0.0219092), wk =   0.0800000
        k(   16) = (   0.0000000   0.0000000   0.0234742), wk =   0.0800000
        k(   17) = (   0.0000000   0.0000000   0.0250391), wk =   0.0800000
        k(   18) = (   0.0000000   0.0000000   0.0266041), wk =   0.0800000
        k(   19) = (   0.0000000   0.0000000   0.0281690), wk =   0.0800000
        k(   20) = (   0.0000000   0.0000000   0.0297340), wk =   0.0800000
        k(   21) = (   0.0000000   0.0000000   0.0312989), wk =   0.0800000
        k(   22) = (   0.0000000   0.0000000   0.0328638), wk =   0.0800000
        k(   23) = (   0.0000000   0.0000000   0.0344288), wk =   0.0800000
        k(   24) = (   0.0000000   0.0000000   0.0359937), wk =   0.0800000
        k(   25) = (   0.0000000   0.0000000   0.0375587), wk =   0.0800000
        k(   26) = (   0.0000000   0.0000000  -0.0391236), wk =   0.0400000

     Dense  grid:  4594185 G-vectors     FFT dimensions: ( 135, 400, 180)

     Smooth grid:   884201 G-vectors     FFT dimensions: (  80, 240, 100)

     Estimated max dynamical RAM per process >       1.01 GB

     Estimated total dynamical RAM >      16.10 GB

     The potential is recalculated from file :
     /home/zfwang/scratch/GNRDATASET/AGNR/ANTI14-6-12_2/ANTI14-6-12_2.save/charge-density.dat


     negative rho (up, down):  2.048E-04 0.000E+00
     Starting wfcs are  312 randomized atomic wfcs +  188 random wfcs

     Band Structure Calculation
     Davidson diagonalization with overlap

     ethr =  3.21E-09,  avg # of iterations = 79.8

     total cpu time spent up to now is    10399.9 secs

     End of band structure calculation

          k = 0.0000 0.0000 0.0000 (110425 PWs)   bands (ev):

   -21.1835 -20.8548 -20.6472 -20.5005 -20.4173 -20.0539 -20.0404 -19.8437
   -19.8023 -19.5948 -19.2903 -19.0768 -18.8512 -18.6748 -18.5773 -18.5226
   -18.3118 -18.0091 -17.9835 -17.7459 -17.6874 -17.6807 -17.3953 -17.2285
   -17.1513 -17.0004 -16.8053 -16.5889 -16.4535 -16.3643 -16.2450 -16.1405
   -16.1298 -15.8386 -15.0878 -14.9320 -14.9133 -14.8933 -14.7819 -14.5803
   -14.4868 -14.3015 -14.2324 -14.1172 -13.8853 -13.7373 -13.7142 -13.4841
   -13.4044 -13.1257 -12.9298 -12.7268 -12.7216 -12.3399 -12.2191 -11.9894
   -11.8635 -11.7316 -11.6728 -11.5533 -11.4957 -11.4479 -11.4357 -11.1706
   -11.1344 -11.1007 -10.7045 -10.6128 -10.4582 -10.4308 -10.2590 -10.2117
   -10.1244 -10.0139  -9.9126  -9.7842  -9.7365  -9.5725  -9.5061  -9.3635
    -9.3190  -9.2448  -9.2096  -9.1346  -9.0193  -8.9657  -8.9123  -8.8923
    -8.7230  -8.6775  -8.6104  -8.5664  -8.5281  -8.4578  -8.4533  -8.4466
    -8.3322  -8.2718  -8.1865  -8.1642  -8.1325  -7.9909  -7.9776  -7.9451
    -7.7763  -7.7339  -7.7035  -7.6299  -7.5934  -7.5259  -7.4844  -7.3978
    -7.3403  -7.1780  -7.1129  -7.1034  -7.0687  -7.0536  -7.0301  -6.8858
    -6.8500  -6.7584  -6.7170  -6.5584  -6.4831  -6.3621  -6.3612  -6.2392
    -6.1653  -6.0255  -6.0032  -5.9238  -5.6893  -5.5845  -5.5185  -5.4439
    -5.4096  -5.3613  -5.3305  -5.2322  -5.2155  -5.1030  -5.0642  -4.8023
    -4.7852  -4.7171  -4.5348  -4.3231  -4.3182  -4.1371  -3.9727  -3.9661
    -3.5953  -3.5705  -2.5977  -2.3151  -1.7793  -1.5781  -0.6934  -0.5800
    -0.2708  -0.2401  -0.0564   0.0473   0.0673   0.4392   0.4520   0.5625
     0.7652   0.7777   1.0412   1.0828   1.1315   1.1368   1.1642   1.3987
     1.4672   1.5921   1.6336   1.8751   1.9071   1.9204   1.9924   1.9945
     2.0986   2.1600   2.2030   2.2605   2.3779   2.3841   2.3931   2.4155
     2.4384   2.5158   2.5680   2.5816   2.6330   2.6858   2.7659   2.8548
     2.8554   2.9550   2.9958   3.0018   3.0865   3.0867   3.1214   3.1316
     3.2290   3.3709   3.3975   3.4150   3.4154   3.4669   3.4913   3.5232
     3.5934   3.6054   3.6624   3.7153   3.7344   3.8154   3.8168   3.8462
     3.9218   3.9588   4.0440   4.0645   4.0791   4.1148   4.1812   4.2411
     4.2547   4.2613   4.3190   4.3290   4.3378   4.3575   4.4330   4.4331
     4.4999   4.5057   4.5343   4.5485   4.6060   4.7176   4.7184   4.7216
     4.7381   4.8109   4.8363   4.8553   4.9261   4.9965   4.9987   4.9995
     5.0425   5.0468   5.0778   5.0831   5.1178   5.1204   5.1222   5.1546
     5.1823   5.2704   5.3124   5.3278   5.3656   5.3890   5.4561   5.4699
     5.5099   5.5357   5.5655   5.5874   5.6204   5.6312   5.6391   5.7348
     5.7523   5.8188   5.8606   5.8678   5.8762   5.9059   5.9099   5.9338
     5.9441   6.0142   6.0252   6.0511   6.0655   6.0759   6.1401   6.1668
     6.1702   6.2232   6.2284   6.2398   6.2638   6.2735   6.2908   6.3041
     6.3237   6.3639   6.3845   6.4274   6.4636   6.4692   6.4973   6.5126
     6.5281   6.5694   6.6074   6.6186   6.6330   6.6347   6.6710   6.6757
     6.7131   6.7362   6.7505   6.7729   6.7991   6.8217   6.8276   6.8637
     6.9274   6.9446   6.9544   6.9806   7.0125   7.0218   7.0690   7.0773
     7.1452   7.1630   7.1802   7.2010   7.2161   7.2640   7.3163   7.3292
     7.3341   7.3581   7.3909   7.4003   7.4102   7.4463   7.4713   7.4817
     7.4842   7.5174   7.5441   7.5657   7.5814   7.6288   7.6352   7.6794
     7.6993   7.7040   7.7483   7.7573   7.7644   7.7711   7.8015   7.8539
     7.8925   7.9294   7.9367   7.9687   7.9800   7.9992   8.0499   8.0551
     8.0846   8.1071   8.1102   8.1349   8.1521   8.1694   8.1885   8.2317
     8.2628   8.3044   8.3098   8.3198   8.3415   8.3749   8.3790   8.4353
     8.4464   8.4500   8.4513   8.4935   8.5591   8.5661   8.5714   8.5744
     8.6134   8.6241   8.6440   8.7096   8.7371   8.7464   8.7624   8.7775
     8.8331   8.8334   8.8645   8.8808   8.9126   8.9358   8.9542   8.9863
     8.9893   9.0055   9.0459   9.0521   9.0761   9.1107   9.1219   9.1760
     9.1889   9.1898   9.2168   9.2394   9.2709   9.2988   9.3008   9.3378
     9.3395   9.3397   9.3695   9.4069   9.4101   9.4313   9.4515   9.4603
     9.4627   9.4922   9.5012   9.5637   9.5864   9.6019   9.6355   9.6368
     9.6458   9.6682   9.6807   9.7406   9.8037   9.8339   9.8376   9.8742
     9.8914   9.8955   9.8985   9.9294   9.9388   9.9585   9.9933  10.0193
    10.0219  10.0425  10.0666  10.0723  10.1064  10.1455  10.1667  10.1686
    10.1844  10.2039  10.2327  10.2510  10.2572  10.2603  10.2861  10.3361
    10.3521  10.3591  10.3788  10.4215  10.4244  10.4601  10.4748  10.4896
    10.5082  10.6111  10.6197  10.6504  10.6667  10.6734  10.6907  10.6981
    10.7317  10.7477  10.7487  10.7732

          k = 0.0000 0.0000 0.0016 (110415 PWs)   bands (ev):

   -21.1833 -20.8548 -20.6490 -20.5020 -20.4134 -20.0597 -20.0352 -19.8459
   -19.7997 -19.5944 -19.2906 -19.0762 -18.8513 -18.6808 -18.5912 -18.5024
   -18.3132 -18.0090 -17.9850 -17.7483 -17.6892 -17.6769 -17.3929 -17.2269
   -17.1499 -17.0011 -16.8045 -16.5894 -16.4548 -16.3650 -16.2435 -16.1423
   -16.1285 -15.8424 -15.0986 -14.9315 -14.9208 -14.8856 -14.7709 -14.5794
   -14.4858 -14.3029 -14.2299 -14.1157 -13.8866 -13.7398 -13.7106 -13.4840
   -13.4053 -13.1251 -12.9316 -12.7279 -12.7189 -12.3408 -12.2180 -11.9895
   -11.8659 -11.7396 -11.6718 -11.5593 -11.4971 -11.4564 -11.4160 -11.1779
   -11.1420 -11.0826 -10.7022 -10.6124 -10.4770 -10.4184 -10.2577 -10.2090
   -10.1384  -9.9985  -9.9129  -9.7829  -9.7371  -9.5708  -9.5060  -9.3750
    -9.3157  -9.2446  -9.2063  -9.1320  -9.0171  -8.9656  -8.9106  -8.8923
    -8.7280  -8.6749  -8.6123  -8.5703  -8.5261  -8.4714  -8.4487  -8.4383
    -8.3276  -8.2762  -8.1903  -8.1566  -8.1331  -7.9934  -7.9756  -7.9433
    -7.7758  -7.7341  -7.7044  -7.6284  -7.5947  -7.5305  -7.4811  -7.3971
    -7.3444  -7.1890  -7.1362  -7.0819  -7.0776  -7.0325  -7.0304  -6.8889
    -6.8493  -6.7571  -6.7132  -6.5589  -6.4836  -6.3661  -6.3598  -6.2524
    -6.1473  -6.0271  -6.0044  -5.9224  -5.6892  -5.5863  -5.5183  -5.4427
    -5.4146  -5.3570  -5.3316  -5.2328  -5.2167  -5.1025  -5.0627  -4.8027
    -4.7839  -4.7144  -4.5348  -4.3233  -4.3189  -4.1372  -3.9737  -3.9645
    -3.5967  -3.5704  -2.6009  -2.3206  -1.7742  -1.5751  -0.6935  -0.5783
    -0.2727  -0.2378  -0.0561   0.0458   0.0687   0.4355   0.4535   0.5628
     0.7650   0.7777   1.0415   1.0772   1.1299   1.1371   1.1724   1.3989
     1.4665   1.5923   1.6351   1.8655   1.8917   1.9450   1.9623   2.0240
     2.0991   2.1532   2.2033   2.2606   2.3730   2.3786   2.3889   2.4326
     2.4372   2.5173   2.5685   2.5781   2.6330   2.6911   2.7654   2.8332
     2.8749   2.9444   3.0043   3.0071   3.0863   3.0891   3.0948   3.1606
     3.2293   3.3521   3.3961   3.4163   3.4219   3.4637   3.5038   3.5235
     3.5675   3.6266   3.6623   3.7264   3.7273   3.8158   3.8178   3.8536
     3.9056   3.9751   4.0293   4.0756   4.0796   4.1166   4.1815   4.2343
     4.2401   4.2834   4.3120   4.3317   4.3363   4.3520   4.3929   4.4514
     4.5001   4.5184   4.5340   4.5707   4.6049   4.6987   4.7162   4.7273
     4.7520   4.7889   4.8373   4.8651   4.9231   4.9776   4.9943   5.0160
     5.0332   5.0500   5.0639   5.0833   5.1020   5.1323   5.1581   5.1662
     5.1829   5.2692   5.3117   5.3282   5.3539   5.4007   5.4435   5.4572
     5.5288   5.5310   5.5642   5.5923   5.6023   5.6379   5.6523   5.7160
     5.7751   5.8233   5.8372   5.8596   5.8990   5.9035   5.9127   5.9366
     5.9381   6.0110   6.0156   6.0319   6.0735   6.0930   6.1414   6.1670
     6.1712   6.2120   6.2249   6.2430   6.2605   6.2639   6.2974   6.3231
     6.3269   6.3569   6.3695   6.4309   6.4609   6.4789   6.5011   6.5151
     6.5267   6.5642   6.6076   6.6166   6.6294   6.6468   6.6593   6.6795
     6.7039   6.7484   6.7493   6.7767   6.8019   6.8197   6.8338   6.8632
     6.9268   6.9420   6.9675   6.9747   7.0108   7.0209   7.0619   7.0812
     7.1573   7.1639   7.1803   7.2104   7.2184   7.2654   7.2980   7.3287
     7.3299   7.3556   7.3705   7.4064   7.4255   7.4431   7.4608   7.4853
     7.5016   7.5031   7.5389   7.5702   7.5772   7.6253   7.6465   7.6768
     7.6932   7.7035   7.7179   7.7600   7.7926   7.8003   7.8028   7.8559
     7.8946   7.9247   7.9248   7.9814   7.9859   7.9986   8.0390   8.0545
     8.0847   8.0931   8.1051   8.1491   8.1653   8.1750   8.1801   8.2279
     8.2597   8.2943   8.3180   8.3292   8.3393   8.3647   8.3788   8.4284
     8.4393   8.4557   8.4644   8.5059   8.5403   8.5434   8.5764   8.5948
     8.6153   8.6275   8.6508   8.7104   8.7162   8.7425   8.7540   8.7881
     8.8204   8.8504   8.8748   8.8841   8.9145   8.9275   8.9520   8.9875
     8.9921   9.0056   9.0471   9.0511   9.0692   9.1085   9.1328   9.1653
     9.1869   9.1989   9.2205   9.2396   9.2404   9.2986   9.3006   9.3309
     9.3412   9.3448   9.3732   9.3998   9.4133   9.4205   9.4582   9.4683
     9.4755   9.4857   9.5033   9.5740   9.5861   9.6148   9.6252   9.6345
     9.6486   9.6790   9.6816   9.7366   9.7992   9.8134   9.8354   9.8854
     9.8904   9.8909   9.8957   9.9203   9.9361   9.9678  10.0013  10.0145
    10.0152  10.0402  10.0662  10.0754  10.0917  10.1463  10.1655  10.1660
    10.1788  10.2135  10.2282  10.2501  10.2635  10.2812  10.2980  10.3230
    10.3407  10.3633  10.3898  10.4234  10.4283  10.4621  10.4760  10.4912
    10.5206  10.6083  10.6179  10.6404  10.6471  10.6743  10.6758  10.6918
    10.7269  10.7443  10.7574  10.7692

          k = 0.0000 0.0000 0.0031 (110415 PWs)   bands (ev):

   -21.1826 -20.8548 -20.6543 -20.5055 -20.4028 -20.0697 -20.0268 -19.8512
   -19.7931 -19.5932 -19.2914 -19.0746 -18.8516 -18.6997 -18.6084 -18.4655
   -18.3174 -18.0089 -17.9894 -17.7549 -17.6921 -17.6687 -17.3862 -17.2223
   -17.1456 -17.0032 -16.8024 -16.5907 -16.4585 -16.3669 -16.2392 -16.1462
   -16.1266 -15.8535 -15.1261 -14.9603 -14.9067 -14.8655 -14.7463 -14.5766
   -14.4828 -14.3066 -14.2231 -14.1111 -13.8904 -13.7452 -13.7024 -13.4837
   -13.4080 -13.1231 -12.9370 -12.7285 -12.7136 -12.3436 -12.2149 -11.9902
   -11.8738 -11.7608 -11.6692 -11.5758 -11.4967 -11.4622 -11.3844 -11.2017
   -11.1395 -11.0518 -10.6955 -10.6109 -10.5082 -10.4063 -10.2545 -10.2044
   -10.1627  -9.9670  -9.9132  -9.7787  -9.7385  -9.5658  -9.5055  -9.3997
    -9.3131  -9.2437  -9.1995  -9.1237  -9.0105  -8.9650  -8.9058  -8.8922
    -8.7401  -8.6700  -8.6178  -8.5798  -8.5219  -8.4850  -8.4538  -8.4202
    -8.3150  -8.2880  -8.1951  -8.1421  -8.1345  -8.0002  -7.9697  -7.9389
    -7.7742  -7.7346  -7.7071  -7.6240  -7.5987  -7.5411  -7.4745  -7.3953
    -7.3556  -7.2214  -7.1542  -7.0901  -7.0553  -7.0312  -6.9992  -6.8961
    -6.8474  -6.7543  -6.7019  -6.5608  -6.4850  -6.3817  -6.3532  -6.2724
    -6.1119  -6.0314  -6.0081  -5.9184  -5.6888  -5.5914  -5.5178  -5.4394
    -5.4265  -5.3473  -5.3347  -5.2342  -5.2204  -5.1012  -5.0585  -4.8038
    -4.7801  -4.7066  -4.5345  -4.3246  -4.3205  -4.1373  -3.9756  -3.9607
    -3.6007  -3.5700  -2.6104  -2.3364  -1.7594  -1.5663  -0.6939  -0.5733
    -0.2772  -0.2321  -0.0553   0.0422   0.0722   0.4275   0.4550   0.5634
     0.7648   0.7778   1.0426   1.0627   1.1293   1.1381   1.1903   1.3994
     1.4645   1.5928   1.6393   1.8389   1.8854   1.9318   1.9765   2.0513
     2.1028   2.1338   2.2040   2.2609   2.3529   2.3804   2.3868   2.4343
     2.4598   2.5209   2.5697   2.5701   2.6329   2.7046   2.7635   2.8105
     2.8916   2.9282   3.0103   3.0246   3.0626   3.0914   3.0979   3.1949
     3.2304   3.3246   3.3690   3.4214   3.4436   3.4545   3.5246   3.5256
     3.5423   3.6310   3.6822   3.7106   3.7508   3.8165   3.8208   3.8654
     3.8860   4.0008   4.0064   4.0808   4.0871   4.1211   4.1825   4.2162
     4.2359   4.2950   4.3063   4.3162   4.3417   4.3495   4.3520   4.4491
     4.4963   4.5442   4.5528   4.6015   4.6084   4.6824   4.7104   4.7262
     4.7405   4.7811   4.8388   4.8762   4.9074   4.9596   4.9814   5.0146
     5.0160   5.0381   5.0675   5.0939   5.1146   5.1632   5.1671   5.1846
     5.2096   5.2666   5.3121   5.3294   5.3303   5.3994   5.4364   5.4606
     5.5068   5.5347   5.5639   5.5801   5.6131   5.6450   5.6750   5.7101
     5.7785   5.8011   5.8501   5.8602   5.8813   5.9145   5.9190   5.9288
     5.9497   5.9919   6.0002   6.0163   6.0793   6.1222   6.1246   6.1581
     6.1816   6.2191   6.2215   6.2424   6.2478   6.2519   6.2964   6.3206
     6.3282   6.3799   6.3825   6.3948   6.4551   6.5015   6.5103   6.5264
     6.5285   6.5576   6.6022   6.6058   6.6258   6.6383   6.6578   6.6804
     6.7267   6.7293   6.7564   6.7854   6.8215   6.8227   6.8456   6.8619
     6.9240   6.9376   6.9524   6.9962   7.0109   7.0277   7.0529   7.0876
     7.1714   7.1716   7.1807   7.2269   7.2327   7.2646   7.2714   7.3103
     7.3243   7.3306   7.3845   7.3963   7.4257   7.4384   7.4550   7.4604
     7.5175   7.5202   7.5324   7.5650   7.5757   7.6189   7.6427   7.6696
     7.6799   7.7014   7.7489   7.7618   7.8075   7.8146   7.8356   7.8617
     7.9007   7.9126   7.9246   7.9837   7.9962   8.0156   8.0195   8.0419
     8.0820   8.0849   8.1013   8.1599   8.1605   8.1857   8.1970   8.2133
     8.2447   8.2959   8.3124   8.3426   8.3474   8.3534   8.3807   8.4145
     8.4298   8.4622   8.4802   8.5073   8.5275   8.5353   8.5779   8.6049
     8.6160   8.6365   8.6676   8.6773   8.7096   8.7259   8.7718   8.7823
     8.8112   8.8584   8.8656   8.9163   8.9169   8.9269   8.9533   8.9773
     8.9911   9.0256   9.0383   9.0509   9.0554   9.1022   9.1352   9.1617
     9.1822   9.1844   9.2231   9.2351   9.2400   9.2838   9.2989   9.3240
     9.3394   9.3501   9.3621   9.3985   9.4020   9.4287   9.4577   9.4630
     9.4938   9.4958   9.5238   9.5609   9.6030   9.6074   9.6373   9.6417
     9.6572   9.6967   9.7000   9.7261   9.7761   9.7770   9.8355   9.8666
     9.8863   9.8912   9.9002   9.9115   9.9270   9.9820   9.9911   9.9966
    10.0237  10.0443  10.0536  10.0805  10.0876  10.1472  10.1524  10.1623
    10.1881  10.1991  10.2197  10.2503  10.2842  10.2858  10.3204  10.3376
    10.3517  10.3661  10.4064  10.4219  10.4312  10.4724  10.4843  10.4944
    10.5467  10.5926  10.5930  10.6147  10.6236  10.6531  10.6689  10.6922
    10.7163  10.7308  10.7466  10.7511

          k = 0.0000 0.0000 0.0047 (110415 PWs)   bands (ev):

   -21.1814 -20.8548 -20.6627 -20.5096 -20.3873 -20.0805 -20.0187 -19.8579
   -19.7841 -19.5913 -19.2928 -19.0718 -18.8523 -18.7296 -18.6176 -18.4251
   -18.3243 -18.0091 -17.9957 -17.7643 -17.6952 -17.6578 -17.3759 -17.2147
   -17.1381 -17.0066 -16.7990 -16.5930 -16.4643 -16.3697 -16.2328 -16.1506
   -16.1258 -15.8705 -15.1629 -15.0001 -14.8823 -14.8385 -14.7185 -14.5720
   -14.4773 -14.3116 -14.2126 -14.1039 -13.8963 -13.7511 -13.6920 -13.4833
   -13.4122 -13.1202 -12.9450 -12.7275 -12.7073 -12.3480 -12.2102 -11.9922
   -11.8892 -11.7880 -11.6651 -11.5972 -11.4976 -11.4616 -11.3504 -11.2325
   -11.1278 -11.0179 -10.6844 -10.6083 -10.5421 -10.4039 -10.2510 -10.2165
   -10.1639  -9.9384  -9.9091  -9.7711  -9.7396  -9.5586  -9.5046  -9.4282
    -9.3149  -9.2423  -9.1942  -9.1096  -8.9993  -8.9635  -8.8985  -8.8921
    -8.7555  -8.6664  -8.6267  -8.5925  -8.5184  -8.4957  -8.4599  -8.4012
    -8.3042  -8.2967  -8.1979  -8.1386  -8.1251  -8.0094  -7.9598  -7.9335
    -7.7716  -7.7355  -7.7112  -7.6172  -7.6051  -7.5545  -7.4694  -7.3922
    -7.3711  -7.2628  -7.1739  -7.0863  -7.0418  -7.0326  -6.9650  -6.9023
    -6.8441  -6.7508  -6.6842  -6.5644  -6.4863  -6.4076  -6.3432  -6.2861
    -6.0733  -6.0376  -6.0134  -5.9126  -5.6878  -5.5993  -5.5169  -5.4413
    -5.4344  -5.3397  -5.3359  -5.2357  -5.2264  -5.0992  -5.0525  -4.8052
    -4.7738  -4.6943  -4.5340  -4.3282  -4.3216  -4.1376  -3.9779  -3.9553
    -3.6068  -3.5698  -2.6258  -2.3610  -1.7366  -1.5518  -0.6946  -0.5652
    -0.2824  -0.2248  -0.0540   0.0377   0.0765   0.4177   0.4539   0.5643
     0.7648   0.7779   1.0439   1.0442   1.1313   1.1398   1.2117   1.4003
     1.4615   1.5936   1.6460   1.8083   1.8790   1.9051   2.0063   2.0696
     2.1037   2.1168   2.2044   2.2613   2.3348   2.3826   2.3843   2.4308
     2.4895   2.5245   2.5596   2.5726   2.6328   2.7218   2.7586   2.7893
     2.9048   2.9165   3.0101   3.0370   3.0441   3.0969   3.1138   3.2298
     3.2330   3.2971   3.3399   3.4168   3.4412   3.4696   3.5034   3.5274
     3.5671   3.6269   3.6903   3.7155   3.7793   3.8165   3.8268   3.8464
     3.9030   3.9825   4.0249   4.0832   4.0933   4.1220   4.1838   4.2092
     4.2249   4.2677   4.2844   4.3172   4.3229   4.3552   4.3623   4.4454
     4.4911   4.5579   4.5824   4.5959   4.6448   4.6814   4.6934   4.7022
     4.7280   4.7996   4.8373   4.8728   4.8967   4.9426   4.9490   4.9961
     5.0019   5.0463   5.0926   5.0933   5.1462   5.1799   5.1873   5.1939
     5.2412   5.2678   5.2919   5.3303   5.3316   5.3791   5.4623   5.4662
     5.4741   5.5187   5.5432   5.5848   5.6247   5.6620   5.6952   5.7296
     5.7639   5.7672   5.8496   5.8578   5.8903   5.8981   5.9206   5.9295
     5.9660   5.9747   5.9853   6.0203   6.0557   6.1193   6.1401   6.1498
     6.1888   6.2035   6.2278   6.2388   6.2499   6.2557   6.2770   6.3150
     6.3386   6.3587   6.4059   6.4229   6.4305   6.5116   6.5181   6.5301
     6.5514   6.5533   6.5772   6.5929   6.6261   6.6262   6.6651   6.6893
     6.7115   6.7380   6.7774   6.7980   6.8300   6.8427   6.8606   6.8627
     6.9059   6.9170   6.9758   6.9817   7.0347   7.0470   7.0533   7.0927
     7.1611   7.1803   7.1898   7.2312   7.2460   7.2585   7.2708   7.2846
     7.3207   7.3293   7.3670   7.3874   7.4041   7.4405   7.4421   7.4571
     7.4947   7.5422   7.5552   7.5643   7.5644   7.6045   7.6140   7.6871
     7.6893   7.7178   7.7648   7.7795   7.8054   7.8215   7.8575   7.8700
     7.9119   7.9139   7.9361   7.9837   7.9994   8.0028   8.0383   8.0470
     8.0608   8.0856   8.1117   8.1342   8.1632   8.1921   8.1938   8.2224
     8.2308   8.3046   8.3089   8.3218   8.3542   8.3731   8.3930   8.3987
     8.4226   8.4640   8.4761   8.4816   8.5375   8.5548   8.5757   8.6111
     8.6150   8.6157   8.6715   8.6889   8.6990   8.7139   8.7656   8.7939
     8.8199   8.8296   8.8594   8.9115   8.9281   8.9493   8.9664   8.9746
     8.9980   9.0183   9.0213   9.0555   9.0565   9.0927   9.1041   9.1561
     9.1778   9.1906   9.2073   9.2406   9.2616   9.2862   9.2949   9.3042
     9.3341   9.3561   9.3592   9.3863   9.3942   9.4300   9.4580   9.4688
     9.5014   9.5096   9.5328   9.5594   9.5845   9.5891   9.6664   9.6699
     9.6949   9.6976   9.7114   9.7220   9.7472   9.7604   9.8161   9.8384
     9.8803   9.8947   9.8948   9.9030   9.9160   9.9629   9.9799  10.0036
    10.0152  10.0431  10.0611  10.0894  10.1006  10.1334  10.1461  10.1637
    10.1813  10.1814  10.2048  10.2577  10.2757  10.3161  10.3307  10.3637
    10.3714  10.4033  10.4145  10.4189  10.4482  10.4865  10.4960  10.4971
    10.5431  10.5482  10.5778  10.5850  10.6147  10.6439  10.6448  10.6890
    10.7040  10.7166  10.7345  10.7423

          k = 0.0000 0.0000 0.0063 (110399 PWs)   bands (ev):

   -21.1797 -20.8549 -20.6736 -20.5132 -20.3685 -20.0918 -20.0113 -19.8650
   -19.7738 -19.5886 -19.2948 -19.0679 -18.8538 -18.7648 -18.6215 -18.3844
   -18.3336 -18.0124 -18.0006 -17.7751 -17.6989 -17.6448 -17.3630 -17.2045
   -17.1271 -17.0110 -16.7946 -16.5964 -16.4718 -16.3729 -16.2253 -16.1550
   -16.1274 -15.8913 -15.2048 -15.0440 -14.8520 -14.8082 -14.6922 -14.5658
   -14.4689 -14.3166 -14.1992 -14.0943 -13.9037 -13.7571 -13.6806 -13.4831
   -13.4173 -13.1168 -12.9548 -12.7246 -12.7009 -12.3540 -12.2044 -11.9975
   -11.9138 -11.8132 -11.6598 -11.6185 -11.5056 -11.4532 -11.3170 -11.2650
   -11.1120 -10.9820 -10.6696 -10.6048 -10.5761 -10.4120 -10.2552 -10.2334
   -10.1433  -9.9306  -9.8901  -9.7593  -9.7383  -9.5510  -9.5032  -9.4554
    -9.3199  -9.2403  -9.1928  -9.0926  -8.9830  -8.9606  -8.8920  -8.8898
    -8.7719  -8.6661  -8.6386  -8.6071  -8.5179  -8.5017  -8.4655  -8.3818
    -8.3222  -8.2745  -8.1990  -8.1427  -8.1106  -8.0201  -7.9462  -7.9279
    -7.7686  -7.7365  -7.7162  -7.6138  -7.6082  -7.5694  -7.4701  -7.3881
    -7.3875  -7.3044  -7.1979  -7.0749  -7.0376  -7.0346  -6.9381  -6.9001
    -6.8396  -6.7458  -6.6620  -6.5705  -6.4866  -6.4394  -6.3309  -6.2934
    -6.0448  -6.0417  -6.0140  -5.9057  -5.6860  -5.6092  -5.5158  -5.4577
    -5.4285  -5.3462  -5.3243  -5.2365  -5.2343  -5.0966  -5.0454  -4.8063
    -4.7650  -4.6782  -4.5334  -4.3339  -4.3222  -4.1380  -3.9805  -3.9487
    -3.6146  -3.5700  -2.6466  -2.3925  -1.7078  -1.5324  -0.6955  -0.5541
    -0.2873  -0.2168  -0.0521   0.0328   0.0810   0.4068   0.4497   0.5652
     0.7655   0.7780   1.0233   1.0466   1.1351   1.1421   1.2344   1.4015
     1.4579   1.5948   1.6547   1.7774   1.8603   1.8913   2.0286   2.0655
     2.0826   2.1428   2.2034   2.2616   2.3209   2.3810   2.3845   2.4274
     2.5207   2.5266   2.5503   2.5759   2.6329   2.7326   2.7500   2.7778
     2.9117   2.9148   2.9883   3.0436   3.0497   3.1067   3.1338   3.2383
     3.2593   3.2760   3.3117   3.4047   3.4292   3.4746   3.4895   3.5351
     3.6014   3.6265   3.6704   3.7508   3.8057   3.8065   3.8302   3.8392
     3.9300   3.9594   4.0418   4.0870   4.0968   4.1131   4.1838   4.2048
     4.2166   4.2311   4.2513   4.3051   4.3355   4.3588   4.3905   4.4435
     4.4834   4.5619   4.5880   4.6041   4.6283   4.6879   4.6927   4.7092
     4.7302   4.8035   4.8300   4.8492   4.9078   4.9127   4.9470   4.9699
     4.9871   5.0569   5.0999   5.1173   5.1770   5.1902   5.1929   5.1959
     5.2614   5.2721   5.2874   5.3351   5.3443   5.3750   5.4287   5.4736
     5.4847   5.5024   5.5349   5.5868   5.6271   5.6729   5.7200   5.7259
     5.7576   5.7636   5.8324   5.8476   5.8623   5.8838   5.9236   5.9505
     5.9608   5.9719   5.9875   6.0303   6.0334   6.1079   6.1170   6.1695
     6.1826   6.1880   6.2144   6.2483   6.2485   6.2732   6.2804   6.3050
     6.3355   6.3610   6.3966   6.4303   6.4713   6.5091   6.5107   6.5328
     6.5330   6.5448   6.5875   6.5946   6.6261   6.6262   6.6682   6.6726
     6.7252   6.7538   6.7897   6.8068   6.8390   6.8548   6.8683   6.8690
     6.9029   6.9047   6.9767   7.0091   7.0382   7.0464   7.0916   7.0969
     7.1300   7.1798   7.2092   7.2254   7.2307   7.2475   7.2867   7.2948
     7.3283   7.3312   7.3381   7.3400   7.4094   7.4269   7.4523   7.4627
     7.4734   7.5184   7.5423   7.5658   7.5976   7.5981   7.6221   7.6914
     7.6916   7.7426   7.7700   7.7944   7.7947   7.8452   7.8544   7.8750
     7.9309   7.9329   7.9446   7.9747   7.9945   8.0163   8.0435   8.0581
     8.0699   8.0902   8.1088   8.1159   8.1520   8.1713   8.1967   8.2131
     8.2566   8.3021   8.3132   8.3139   8.3489   8.3626   8.3986   8.4034
     8.4391   8.4428   8.4769   8.4853   8.5239   8.5651   8.5717   8.5970
     8.6176   8.6209   8.6688   8.6801   8.7071   8.7170   8.7488   8.7988
     8.8169   8.8411   8.8585   8.8796   8.9131   8.9564   8.9724   8.9740
     8.9980   9.0142   9.0232   9.0627   9.0679   9.0822   9.0869   9.1576
     9.1764   9.1767   9.2073   9.2410   9.2684   9.2886   9.2907   9.3173
     9.3220   9.3535   9.3602   9.3857   9.3996   9.4132   9.4598   9.4832
     9.4904   9.5183   9.5184   9.5581   9.5718   9.6009   9.6559   9.6725
     9.6900   9.7082   9.7118   9.7455   9.7506   9.7751   9.8062   9.8093
     9.8571   9.8817   9.8904   9.9050   9.9168   9.9354   9.9731   9.9914
    10.0030  10.0507  10.0750  10.0963  10.1007  10.1273  10.1326  10.1417
    10.1745  10.1919  10.2106  10.2624  10.2776  10.3441  10.3518  10.3645
    10.3943  10.4029  10.4058  10.4685  10.4782  10.4802  10.4936  10.5045
    10.5147  10.5176  10.5462  10.5787  10.6006  10.6286  10.6405  10.6798
    10.6877  10.7273  10.7376  10.7383

          k = 0.0000 0.0000 0.0078 (110397 PWs)   bands (ev):

   -21.1775 -20.8550 -20.6864 -20.5160 -20.3475 -20.1032 -20.0048 -19.8720
   -19.7626 -19.5854 -19.2973 -19.0630 -18.8576 -18.8001 -18.6229 -18.3528
   -18.3370 -18.0219 -18.0000 -17.7862 -17.7032 -17.6304 -17.3487 -17.1920
   -17.1124 -17.0160 -16.7893 -16.6011 -16.4805 -16.3764 -16.2180 -16.1594
   -16.1323 -15.9133 -15.2494 -15.0900 -14.8190 -14.7754 -14.6691 -14.5584
   -14.4571 -14.3207 -14.1835 -14.0828 -13.9120 -13.7629 -13.6689 -13.4834
   -13.4226 -13.1137 -12.9649 -12.7201 -12.6948 -12.3611 -12.1988 -12.0116
   -11.9420 -11.8329 -11.6540 -11.6371 -11.5187 -11.4416 -11.2975 -11.2855
   -11.0944 -10.9449 -10.6526 -10.6134 -10.5949 -10.4297 -10.2743 -10.2324
   -10.1170  -9.9341  -9.8697  -9.7473  -9.7286  -9.5461  -9.5028  -9.4744
    -9.3260  -9.2378  -9.1946  -9.0770  -8.9614  -8.9556  -8.8919  -8.8811
    -8.7869  -8.6698  -8.6529  -8.6233  -8.5205  -8.5031  -8.4700  -8.3621
    -8.3402  -8.2498  -8.1993  -8.1480  -8.0983  -8.0316  -7.9295  -7.9227
    -7.7657  -7.7373  -7.7220  -7.6244  -7.5974  -7.5850  -7.4808  -7.4043
    -7.3831  -7.3394  -7.2243  -7.0609  -7.0420  -7.0371  -6.9234  -6.8859
    -6.8339  -6.7373  -6.6369  -6.5813  -6.4853  -6.4713  -6.3170  -6.2968
    -6.0520  -6.0416  -5.9873  -5.8985  -5.6829  -5.6201  -5.5145  -5.4748
    -5.4222  -5.3537  -5.3131  -5.2440  -5.2360  -5.0938  -5.0383  -4.8070
    -4.7539  -4.6590  -4.5325  -4.3411  -4.3227  -4.1386  -3.9834  -3.9408
    -3.6239  -3.5706  -2.6723  -2.4291  -1.6746  -1.5084  -0.6967  -0.5405
    -0.2914  -0.2086  -0.0496   0.0278   0.0856   0.3952   0.4421   0.5659
     0.7674   0.7782   1.0022   1.0496   1.1398   1.1452   1.2574   1.4031
     1.4541   1.5963   1.6648   1.7469   1.8327   1.8867   2.0213   2.0359
     2.1047   2.1732   2.2002   2.2618   2.3126   2.3773   2.3856   2.4247
     2.5262   2.5424   2.5535   2.5795   2.6332   2.7223   2.7381   2.7899
     2.9127   2.9217   2.9611   3.0472   3.0612   3.1225   3.1517   3.2407
     3.2457   3.2875   3.3043   3.3844   3.4216   3.4473   3.4981   3.5509
     3.6291   3.6385   3.6540   3.7812   3.7846   3.8243   3.8298   3.8624
     3.9395   3.9579   4.0440   4.0916   4.0943   4.1027   4.1695   4.1874
     4.1969   4.2292   4.2333   4.3047   4.3481   4.3622   4.4217   4.4424
     4.4710   4.5522   4.5782   4.5794   4.6280   4.6823   4.7124   4.7186
     4.7545   4.7811   4.8177   4.8417   4.8838   4.9366   4.9479   4.9520
     4.9773   5.0465   5.1231   5.1386   5.1536   5.1932   5.1997   5.2153
     5.2683   5.2872   5.3177   5.3390   5.3405   5.3770   5.4140   5.4652
     5.4825   5.4995   5.5536   5.5867   5.6271   5.6752   5.6870   5.7411
     5.7602   5.7852   5.8253   5.8327   5.8407   5.8475   5.9313   5.9330
     5.9483   5.9736   6.0092   6.0244   6.0514   6.0808   6.0905   6.1651
     6.1862   6.1895   6.1984   6.2413   6.2451   6.2890   6.2963   6.3045
     6.3348   6.3840   6.3864   6.4460   6.4527   6.5049   6.5081   6.5284
     6.5463   6.5487   6.5852   6.5894   6.6216   6.6243   6.6808   6.6989
     6.7335   6.7608   6.7742   6.8147   6.8439   6.8645   6.8780   6.8805
     6.8906   6.9260   6.9899   7.0359   7.0450   7.0480   7.0725   7.1169
     7.1328   7.1812   7.1824   7.2197   7.2452   7.2486   7.2730   7.2867
     7.3091   7.3275   7.3295   7.3530   7.4154   7.4171   7.4274   7.4581
     7.4927   7.4998   7.5437   7.5529   7.5959   7.6377   7.6455   7.6839
     7.6840   7.7359   7.7727   7.8032   7.8145   7.8399   7.8667   7.8963
     7.9284   7.9555   7.9608   7.9651   7.9909   8.0355   8.0460   8.0633
     8.0801   8.0846   8.1014   8.1170   8.1502   8.1612   8.1965   8.2128
     8.2619   8.2941   8.3130   8.3249   8.3326   8.3478   8.3969   8.4054
     8.4381   8.4667   8.4835   8.4894   8.4987   8.5690   8.5764   8.5850
     8.6187   8.6218   8.6593   8.6596   8.7102   8.7315   8.7467   8.7745
     8.8294   8.8375   8.8644   8.8673   8.8907   8.9284   8.9541   8.9724
     8.9830   9.0422   9.0435   9.0660   9.0760   9.0902   9.0954   9.1338
     9.1681   9.1795   9.2129   9.2406   9.2787   9.2803   9.2908   9.3051
     9.3379   9.3399   9.3718   9.3917   9.3941   9.4191   9.4550   9.4644
     9.4963   9.5147   9.5244   9.5551   9.5566   9.5995   9.6350   9.6400
     9.6900   9.7034   9.7248   9.7619   9.7619   9.7736   9.7894   9.8347
     9.8508   9.8612   9.8790   9.9056   9.9079   9.9442   9.9644   9.9649
     9.9979  10.0509  10.0617  10.0685  10.1026  10.1049  10.1508  10.1622
    10.1885  10.2043  10.2096  10.2712  10.2792  10.3411  10.3649  10.3763
    10.3978  10.4004  10.4161  10.4388  10.4732  10.4877  10.4998  10.5072
    10.5112  10.5187  10.5313  10.5685  10.5856  10.6314  10.6475  10.6646
    10.6916  10.7340  10.7399  10.7431

          k = 0.0000 0.0000 0.0094 (110397 PWs)   bands (ev):

   -21.1749 -20.8553 -20.7005 -20.5179 -20.3248 -20.1146 -19.9994 -19.8785
   -19.7507 -19.5816 -19.3006 -19.0571 -18.8700 -18.8273 -18.6230 -18.3626
   -18.3033 -18.0342 -17.9963 -17.7966 -17.7079 -17.6153 -17.3338 -17.1775
   -17.0938 -17.0214 -16.7833 -16.6071 -16.4896 -16.3801 -16.2124 -16.1647
   -16.1400 -15.9336 -15.2956 -15.1374 -14.7881 -14.7377 -14.6499 -14.5502
   -14.4421 -14.3230 -14.1662 -14.0697 -13.9206 -13.7685 -13.6575 -13.4848
   -13.4267 -13.1123 -12.9736 -12.7138 -12.6897 -12.3693 -12.1959 -12.0422
   -11.9608 -11.8491 -11.6550 -11.6447 -11.5350 -11.4314 -11.3272 -11.2564
   -11.0761 -10.9074 -10.6473 -10.6341 -10.5842 -10.4545 -10.2922 -10.2269
   -10.0902  -9.9416  -9.8555  -9.7418  -9.7060  -9.5474  -9.5077  -9.4749
    -9.3318  -9.2348  -9.1983  -9.0650  -8.9522  -8.9322  -8.8918  -8.8756
    -8.7968  -8.6773  -8.6690  -8.6409  -8.5232  -8.5028  -8.4734  -8.3572
    -8.3426  -8.2233  -8.1990  -8.1543  -8.0889  -8.0436  -7.9180  -7.9106
    -7.7645  -7.7369  -7.7282  -7.6366  -7.6010  -7.5852  -7.5014  -7.4295
    -7.3773  -7.3581  -7.2514  -7.0602  -7.0403  -7.0395  -6.9127  -6.8712
    -6.8271  -6.7236  -6.6097  -6.5996  -6.4980  -6.4819  -6.3024  -6.2983
    -6.0585  -6.0537  -5.9541  -5.8913  -5.6793  -5.6298  -5.5137  -5.4916
    -5.4159  -5.3617  -5.3026  -5.2553  -5.2341  -5.0909  -5.0317  -4.8070
    -4.7405  -4.6374  -4.5313  -4.3494  -4.3232  -4.1395  -3.9866  -3.9319
    -3.6341  -3.5718  -2.7021  -2.4694  -1.6386  -1.4805  -0.6981  -0.5249
    -0.2942  -0.2004  -0.0466   0.0229   0.0902   0.3833   0.4315   0.5657
     0.7711   0.7785   0.9812   1.0534   1.1449   1.1489   1.2801   1.4050
     1.4505   1.5980   1.6757   1.7169   1.8038   1.8837   1.9730   2.0323
     2.1348   2.1923   2.2059   2.2622   2.3107   2.3737   2.3854   2.4230
     2.5232   2.5376   2.5834   2.5867   2.6339   2.7021   2.7248   2.8138
     2.9163   2.9190   2.9419   3.0502   3.0712   3.1445   3.1635   3.2160
     3.2439   3.2791   3.3406   3.3613   3.4105   3.4274   3.4973   3.5688
     3.6388   3.6454   3.6728   3.7531   3.8090   3.8329   3.8447   3.8843
     3.9322   3.9841   4.0251   4.0765   4.0940   4.1062   4.1311   4.1714
     4.1981   4.2148   4.2535   4.3109   4.3620   4.3658   4.4389   4.4534
     4.4540   4.5197   4.5537   4.5672   4.6512   4.6712   4.7049   4.7240
     4.7437   4.8029   4.8052   4.8424   4.8663   4.9411   4.9457   4.9684
     4.9818   5.0270   5.1060   5.1476   5.1551   5.1952   5.2152   5.2382
     5.2712   5.2920   5.3197   5.3438   5.3482   5.3760   5.4437   5.4555
     5.4824   5.4921   5.5828   5.5858   5.6288   5.6476   5.6751   5.7434
     5.7734   5.7886   5.7958   5.8035   5.8390   5.8579   5.8838   5.9376
     5.9476   5.9843   5.9920   6.0154   6.0490   6.0632   6.1040   6.1446
     6.1759   6.1932   6.2040   6.2306   6.2446   6.2859   6.3128   6.3250
     6.3604   6.3799   6.3873   6.4124   6.4635   6.5069   6.5070   6.5274
     6.5493   6.5501   6.5811   6.5835   6.6219   6.6568   6.6905   6.7289
     6.7377   6.7453   6.7728   6.8224   6.8506   6.8697   6.8749   6.8777
     6.8990   6.9687   7.0004   7.0063   7.0445   7.0730   7.0862   7.1228
     7.1285   7.1844   7.1850   7.2059   7.2318   7.2336   7.2547   7.2902
     7.2923   7.3268   7.3493   7.3647   7.3793   7.4272   7.4278   7.4488
     7.4956   7.5379   7.5419   7.5500   7.5933   7.6633   7.6681   7.6701
     7.6777   7.7149   7.7701   7.8122   7.8245   7.8474   7.8772   7.9269
     7.9395   7.9421   7.9559   7.9860   7.9946   8.0276   8.0436   8.0694
     8.0694   8.0948   8.1096   8.1208   8.1436   8.1802   8.1910   8.2381
     8.2528   8.2747   8.2773   8.3234   8.3522   8.3582   8.3914   8.4073
     8.4423   8.4424   8.4907   8.4935   8.5273   8.5601   8.5697   8.5830
     8.6123   8.6261   8.6446   8.6528   8.6907   8.7332   8.7504   8.7612
     8.7885   8.8524   8.8528   8.8719   8.8946   8.9223   8.9275   8.9638
     8.9838   9.0482   9.0595   9.0703   9.0879   9.0945   9.1123   9.1208
     9.1487   9.1879   9.2390   9.2392   9.2635   9.2698   9.2976   9.3208
     9.3218   9.3412   9.3528   9.3934   9.4064   9.4246   9.4500   9.4707
     9.4969   9.5034   9.5265   9.5356   9.5455   9.5964   9.6064   9.6355
     9.6667   9.7065   9.7278   9.7372   9.7631   9.7732   9.8182   9.8472
     9.8483   9.8558   9.8626   9.8819   9.9094   9.9382   9.9577   9.9878
     9.9990  10.0271  10.0281  10.0703  10.0756  10.1248  10.1676  10.1741
    10.1946  10.2200  10.2249  10.2657  10.2860  10.3080  10.3665  10.3732
    10.3877  10.4129  10.4148  10.4342  10.4529  10.4590  10.4895  10.5038
    10.5153  10.5351  10.5505  10.5660  10.6148  10.6231  10.6482  10.6702
    10.6952  10.7197  10.7326  10.7461

          k = 0.0000 0.0000 0.0110 (110427 PWs)   bands (ev):

   -21.1718 -20.8558 -20.7154 -20.5190 -20.3009 -20.1259 -19.9952 -19.8843
   -19.7383 -19.5773 -19.3045 -19.0504 -18.8984 -18.8384 -18.6224 -18.3788
   -18.2690 -18.0469 -17.9899 -17.8057 -17.7129 -17.5998 -17.3192 -17.1610
   -17.0717 -17.0263 -16.7769 -16.6146 -16.4987 -16.3840 -16.2119 -16.1739
   -16.1462 -15.9498 -15.3428 -15.1854 -14.7626 -14.6945 -14.6336 -14.5418
   -14.4247 -14.3225 -14.1477 -14.0552 -13.9288 -13.7739 -13.6473 -13.4879
   -13.4283 -13.1140 -12.9789 -12.7061 -12.6857 -12.3782 -12.2016 -12.0809
   -11.9694 -11.8646 -11.6649 -11.6387 -11.5533 -11.4287 -11.3491 -11.2298
   -11.0580 -10.8708 -10.6773 -10.6235 -10.5639 -10.4833 -10.3056 -10.2205
   -10.0663  -9.9528  -9.8440  -9.7392  -9.6817  -9.5520  -9.5116  -9.4618
    -9.3362  -9.2312  -9.2028  -9.0567  -8.9476  -8.9024  -8.8917  -8.8752
    -8.7970  -8.6878  -8.6864  -8.6598  -8.5249  -8.5025  -8.4755  -8.3726
    -8.3236  -8.1984  -8.1957  -8.1615  -8.0824  -8.0555  -7.9139  -7.8911
    -7.7665  -7.7346  -7.7343  -7.6499  -7.6167  -7.5717  -7.5282  -7.4645
    -7.3709  -7.3625  -7.2772  -7.0768  -7.0441  -7.0243  -6.9017  -6.8632
    -6.8192  -6.7047  -6.6273  -6.5812  -6.5162  -6.4761  -6.2987  -6.2877
    -6.0690  -6.0636  -5.9249  -5.8847  -5.6784  -5.6336  -5.5180  -5.5034
    -5.4096  -5.3697  -5.2931  -5.2678  -5.2308  -5.0880  -5.0260  -4.8062
    -4.7250  -4.6143  -4.5297  -4.3586  -4.3237  -4.1410  -3.9900  -3.9221
    -3.6450  -3.5735  -2.7355  -2.5123  -1.6010  -1.4494  -0.6997  -0.5081
    -0.2951  -0.1924  -0.0428   0.0180   0.0945   0.3712   0.4182   0.5645
     0.7768   0.7788   0.9607   1.0577   1.1499   1.1532   1.3017   1.4072
     1.4476   1.5999   1.6867   1.6877   1.7749   1.8807   1.9225   2.0243
     2.1651   2.1861   2.2347   2.2627   2.3159   2.3707   2.3837   2.4223
     2.5179   2.5353   2.5873   2.6200   2.6348   2.6813   2.7121   2.8403
     2.8963   2.9193   2.9434   3.0543   3.0789   3.1667   3.1693   3.1946
     3.2298   3.2854   3.3412   3.3774   3.3907   3.4214   3.4905   3.5797
     3.6498   3.6515   3.7067   3.7255   3.8179   3.8366   3.8732   3.8874
     3.9547   3.9890   4.0027   4.0577   4.0870   4.0975   4.1126   4.1691
     4.1990   4.2144   4.2744   4.3213   4.3692   4.3775   4.4154   4.4438
     4.4806   4.4859   4.5458   4.5557   4.6480   4.6598   4.6939   4.7055
     4.7529   4.7867   4.8233   4.8483   4.8656   4.9309   4.9581   4.9955
     4.9961   5.0018   5.0656   5.1660   5.1669   5.1958   5.2222   5.2553
     5.2630   5.2835   5.3093   5.3568   5.3594   5.4096   5.4400   5.4581
     5.5010   5.5030   5.5778   5.6068   5.6080   5.6353   5.6784   5.7338
     5.7530   5.7727   5.7773   5.8126   5.8375   5.8501   5.8657   5.9441
     5.9472   5.9521   5.9770   5.9969   6.0441   6.0570   6.1156   6.1372
     6.1558   6.1984   6.2133   6.2367   6.2494   6.2918   6.3252   6.3383
     6.3480   6.3764   6.3990   6.4111   6.4558   6.4914   6.5198   6.5383
     6.5485   6.5520   6.5838   6.5894   6.6213   6.6901   6.7018   6.7055
     6.7610   6.7705   6.7742   6.8249   6.8551   6.8581   6.8671   6.8839
     6.9264   6.9495   7.0100   7.0156   7.0445   7.0779   7.0880   7.1190
     7.1589   7.1773   7.1795   7.1905   7.2168   7.2343   7.2403   7.2878
     7.3039   7.3230   7.3289   7.3696   7.3749   7.4344   7.4504   7.4611
     7.4932   7.5357   7.5615   7.5876   7.5882   7.6461   7.6509   7.6659
     7.7073   7.7142   7.7656   7.8239   7.8259   7.8489   7.8850   7.9172
     7.9460   7.9678   7.9751   7.9755   7.9871   8.0167   8.0436   8.0653
     8.0761   8.0970   8.1197   8.1245   8.1560   8.1865   8.2132   8.2258
     8.2314   8.2586   8.2901   8.3179   8.3517   8.3788   8.3897   8.4121
     8.4376   8.4448   8.4964   8.4967   8.5159   8.5374   8.5703   8.5946
     8.6242   8.6286   8.6457   8.6475   8.6524   8.6979   8.7346   8.7624
     8.7819   8.8194   8.8608   8.8718   8.9066   8.9200   8.9414   8.9693
     8.9820   9.0327   9.0594   9.0695   9.0831   9.0917   9.1217   9.1221
     9.1788   9.2002   9.2335   9.2356   9.2571   9.2673   9.2805   9.3059
     9.3348   9.3462   9.3664   9.3927   9.4047   9.4175   9.4622   9.4669
     9.4749   9.4761   9.5268   9.5387   9.5537   9.5739   9.6101   9.6206
     9.6444   9.7006   9.7235   9.7349   9.7403   9.7791   9.8321   9.8348
     9.8420   9.8483   9.8678   9.8883   9.9051   9.9197   9.9425   9.9913
    10.0021  10.0040  10.0433  10.0584  10.0983  10.1352  10.1469  10.1705
    10.2033  10.2218  10.2400  10.2475  10.2900  10.3121  10.3462  10.3620
    10.3740  10.4047  10.4175  10.4364  10.4406  10.4521  10.4653  10.4991
    10.5215  10.5643  10.5673  10.6002  10.6127  10.6225  10.6495  10.6783
    10.6889  10.7029  10.7317  10.7372

          k = 0.0000 0.0000 0.0125 (110403 PWs)   bands (ev):

   -21.1682 -20.8565 -20.7305 -20.5196 -20.2760 -20.1369 -19.9923 -19.8893
   -19.7256 -19.5727 -19.3091 -19.0431 -18.9337 -18.8413 -18.6214 -18.3970
   -18.2408 -18.0581 -17.9806 -17.8129 -17.7181 -17.5845 -17.3055 -17.1423
   -17.0490 -17.0282 -16.7702 -16.6238 -16.5072 -16.3883 -16.2240 -16.1840
   -16.1465 -15.9611 -15.3905 -15.2338 -14.7422 -14.6519 -14.6143 -14.5337
   -14.4065 -14.3185 -14.1289 -14.0395 -13.9358 -13.7790 -13.6393 -13.4930
   -13.4260 -13.1201 -12.9793 -12.6975 -12.6828 -12.3877 -12.2271 -12.1090
   -11.9736 -11.8810 -11.6706 -11.6325 -11.5727 -11.4412 -11.3552 -11.2056
   -11.0404 -10.8371 -10.7059 -10.6171 -10.5379 -10.5101 -10.3150 -10.2136
   -10.0477  -9.9678  -9.8307  -9.7395  -9.6642  -9.5527  -9.5101  -9.4424
    -9.3384  -9.2270  -9.2071  -9.0511  -8.9452  -8.8923  -8.8918  -8.8583
    -8.7876  -8.7044  -8.7003  -8.6796  -8.5262  -8.5022  -8.4768  -8.3860
    -8.3056  -8.1982  -8.1689  -8.1675  -8.0790  -8.0670  -7.9103  -7.8733
    -7.7713  -7.7411  -7.7299  -7.6644  -7.6307  -7.5579  -7.5572  -7.5023
    -7.3641  -7.3640  -7.2984  -7.0970  -7.0486  -7.0088  -6.8904  -6.8615
    -6.8102  -6.6830  -6.6621  -6.5521  -6.5273  -6.4676  -6.2985  -6.2732
    -6.0862  -6.0666  -5.9023  -5.8787  -5.6844  -5.6257  -5.5331  -5.5045
    -5.4031  -5.3772  -5.2863  -5.2796  -5.2262  -5.0851  -5.0215  -4.8046
    -4.7076  -4.5909  -4.5274  -4.3682  -4.3242  -4.1430  -3.9933  -3.9117
    -3.6562  -3.5756  -2.7718  -2.5569  -1.5626  -1.4155  -0.7014  -0.4908
    -0.2936  -0.1847  -0.0384   0.0133   0.0987   0.3592   0.4028   0.5618
     0.7790   0.7844   0.9410   1.0628   1.1545   1.1583   1.3214   1.4096
     1.4458   1.6017   1.6597   1.6963   1.7465   1.8719   1.8772   2.0144
     2.1691   2.2028   2.2582   2.2656   2.3295   2.3695   2.3801   2.4227
     2.5108   2.5357   2.5910   2.6357   2.6434   2.6712   2.7015   2.8596
     2.8769   2.9190   2.9504   3.0600   3.0847   3.1592   3.1665   3.2065
     3.2209   3.2796   3.3277   3.3785   3.4138   3.4213   3.4795   3.5829
     3.6637   3.6672   3.7016   3.7376   3.8170   3.8389   3.8778   3.9143
     3.9478   3.9915   3.9933   4.0401   4.0711   4.0930   4.1216   4.1680
     4.2025   4.2237   4.2947   4.3306   4.3668   4.3852   4.3940   4.4326
     4.4576   4.5151   4.5415   4.5453   4.6069   4.6500   4.6749   4.7257
     4.7569   4.7696   4.8070   4.8514   4.9004   4.9235   4.9559   4.9873
     5.0062   5.0120   5.0596   5.1681   5.1743   5.1957   5.1996   5.2560
     5.2816   5.2866   5.2988   5.3751   5.3896   5.4038   5.4352   5.4765
     5.5065   5.5470   5.5702   5.5733   5.6203   5.6384   5.6850   5.7112
     5.7265   5.7414   5.7861   5.7957   5.8379   5.8607   5.8680   5.8929
     5.9290   5.9528   5.9649   6.0011   6.0168   6.0772   6.0926   6.1127
     6.1787   6.1927   6.2242   6.2491   6.2584   6.3020   6.3026   6.3496
     6.3591   6.3845   6.3885   6.4204   6.4542   6.4885   6.5271   6.5387
     6.5592   6.5623   6.5873   6.6019   6.6253   6.6565   6.7138   6.7551
     6.7696   6.7834   6.7938   6.8220   6.8488   6.8565   6.8655   6.8917
     6.9000   6.9626   7.0079   7.0193   7.0409   7.0649   7.0893   7.1038
     7.1576   7.1774   7.2015   7.2023   7.2115   7.2409   7.2481   7.2672
     7.3048   7.3103   7.3190   7.3660   7.4152   7.4327   7.4556   7.4951
     7.5028   7.5344   7.5777   7.5790   7.6172   7.6346   7.6426   7.6540
     7.7123   7.7464   7.7593   7.8252   7.8404   7.8550   7.8753   7.9010
     7.9451   7.9538   7.9592   7.9948   8.0130   8.0195   8.0270   8.0710
     8.0810   8.1107   8.1177   8.1233   8.1753   8.1865   8.1938   8.2115
     8.2459   8.2507   8.3130   8.3135   8.3546   8.3881   8.4005   8.4309
     8.4412   8.4471   8.4747   8.4974   8.5002   8.5221   8.5654   8.5748
     8.6150   8.6263   8.6440   8.6581   8.6636   8.6775   8.7146   8.7441
     8.7644   8.8271   8.8577   8.8604   8.9103   8.9400   8.9583   8.9798
     8.9810   9.0060   9.0579   9.0605   9.0660   9.0851   9.1308   9.1560
     9.1853   9.2127   9.2298   9.2319   9.2428   9.2439   9.2905   9.2911
     9.3400   9.3623   9.3829   9.3942   9.4009   9.4150   9.4293   9.4491
     9.4740   9.4777   9.5275   9.5316   9.5466   9.5685   9.5853   9.6247
     9.6575   9.6753   9.7121   9.7336   9.7482   9.7831   9.7927   9.8219
     9.8306   9.8486   9.8634   9.9005   9.9172   9.9317   9.9362   9.9829
     9.9913  10.0009  10.0207  10.0830  10.0962  10.1174  10.1500  10.1707
    10.1738  10.2115  10.2448  10.2561  10.3041  10.3113  10.3302  10.3540
    10.3664  10.3854  10.4134  10.4327  10.4477  10.4549  10.4592  10.5099
    10.5268  10.5690  10.5814  10.5980  10.6048  10.6469  10.6564  10.6693
    10.6856  10.7116  10.7288  10.7366

          k = 0.0000 0.0000 0.0141 (110411 PWs)   bands (ev):

   -21.1641 -20.8577 -20.7455 -20.5196 -20.2506 -20.1475 -19.9906 -19.8934
   -19.7126 -19.5679 -19.3147 -19.0362 -18.9688 -18.8418 -18.6203 -18.4166
   -18.2220 -18.0656 -17.9678 -17.8173 -17.7232 -17.5697 -17.2932 -17.1214
   -17.0416 -17.0110 -16.7633 -16.6347 -16.5149 -16.3934 -16.2521 -16.1888
   -16.1428 -15.9680 -15.4383 -15.2821 -14.7257 -14.6289 -14.5747 -14.5260
   -14.3888 -14.3105 -14.1105 -14.0226 -13.9408 -13.7835 -13.6343 -13.4993
   -13.4196 -13.1307 -12.9744 -12.6905 -12.6787 -12.3975 -12.2754 -12.1205
   -11.9763 -11.8980 -11.6721 -11.6289 -11.5907 -11.4658 -11.3486 -11.1835
   -11.0233 -10.8102 -10.7295 -10.6146 -10.5455 -10.4957 -10.3204 -10.2066
   -10.0358  -9.9861  -9.8137  -9.7437  -9.6544  -9.5509  -9.5002  -9.4188
    -9.3381  -9.2223  -9.2096  -9.0472  -8.9475  -8.8986  -8.8921  -8.8237
    -8.7726  -8.7227  -8.7143  -8.6994  -8.5276  -8.5018  -8.4773  -8.3973
    -8.2894  -8.1992  -8.1756  -8.1403  -8.0786  -8.0767  -7.9071  -7.8612
    -7.7761  -7.7475  -7.7250  -7.6806  -7.6412  -7.5883  -7.5419  -7.5392
    -7.3723  -7.3568  -7.3095  -7.1185  -7.0540  -6.9949  -6.8794  -6.8636
    -6.8004  -6.7007  -6.6610  -6.5343  -6.5234  -6.4562  -6.2980  -6.2590
    -6.1048  -6.0670  -5.8877  -5.8738  -5.6947  -5.6078  -5.5508  -5.5026
    -5.3959  -5.3839  -5.2977  -5.2753  -5.2206  -5.0824  -5.0181  -4.8021
    -4.6887  -4.5690  -4.5236  -4.3779  -4.3247  -4.1459  -3.9961  -3.9007
    -3.6673  -3.5782  -2.8106  -2.6027  -1.5241  -1.3794  -0.7034  -0.4741
    -0.2892  -0.1774  -0.0332   0.0087   0.1027   0.3472   0.3860   0.5575
     0.7794   0.7940   0.9225   1.0686   1.1583   1.1640   1.3381   1.4123
     1.4458   1.6021   1.6340   1.7017   1.7187   1.8252   1.8731   2.0036
     2.1584   2.2278   2.2621   2.2868   2.3490   2.3730   2.3746   2.4242
     2.5025   2.5387   2.5940   2.6306   2.6363   2.6944   2.6987   2.8379
     2.8970   2.9146   2.9596   3.0671   3.0882   3.1427   3.1502   3.2198
     3.2383   3.2606   3.3102   3.3817   3.4272   3.4457   3.4693   3.5840
     3.6595   3.6847   3.7016   3.7609   3.8136   3.8340   3.8802   3.9113
     3.9499   3.9562   4.0253   4.0319   4.0732   4.0893   4.1337   4.1735
     4.2087   4.2323   4.3105   4.3138   4.3605   4.3869   4.4102   4.4124
     4.4486   4.5368   4.5374   4.5378   4.5641   4.6469   4.6533   4.7489
     4.7515   4.7571   4.7838   4.8600   4.9119   4.9206   4.9385   4.9742
     5.0269   5.0290   5.0856   5.1307   5.1763   5.1965   5.1976   5.2591
     5.2724   5.3062   5.3070   5.3928   5.3961   5.4176   5.4271   5.4998
     5.5147   5.5420   5.5555   5.5969   5.6315   5.6410   5.6709   5.6868
     5.7094   5.7302   5.7606   5.7961   5.8422   5.8491   5.8610   5.8811
     5.8939   5.9468   5.9759   5.9840   6.0048   6.0635   6.0934   6.1107
     6.1589   6.1970   6.2393   6.2404   6.2756   6.2970   6.3113   6.3599
     6.3689   6.3814   6.3985   6.4193   6.4759   6.4964   6.5233   6.5337
     6.5681   6.5729   6.6003   6.6124   6.6353   6.6372   6.7242   6.7667
     6.7915   6.8015   6.8072   6.8156   6.8400   6.8647   6.8667   6.8721
     6.8988   6.9944   6.9957   7.0030   7.0088   7.0478   7.0697   7.1090
     7.1502   7.1790   7.1934   7.2305   7.2460   7.2466   7.2473   7.2690
     7.3087   7.3117   7.3300   7.3591   7.4229   7.4536   7.4578   7.5079
     7.5279   7.5435   7.5644   7.6011   7.6042   7.6245   7.6496   7.6796
     7.7151   7.7565   7.7709   7.8292   7.8363   7.8631   7.8775   7.8999
     7.9096   7.9375   7.9621   7.9992   8.0063   8.0157   8.0464   8.0493
     8.1012   8.1024   8.1215   8.1416   8.1640   8.1729   8.1829   8.2327
     8.2463   8.2783   8.2957   8.3204   8.3835   8.3893   8.4091   8.4226
     8.4472   8.4525   8.4616   8.4856   8.5007   8.5169   8.5413   8.5589
     8.5970   8.6158   8.6332   8.6556   8.6868   8.6872   8.7136   8.7329
     8.7584   8.8297   8.8525   8.8548   8.9121   8.9508   8.9597   8.9713
     8.9822   8.9915   9.0604   9.0644   9.0657   9.0814   9.1237   9.1532
     9.1819   9.2086   9.2309   9.2366   9.2374   9.2665   9.2799   9.2890
     9.3258   9.3493   9.3863   9.3979   9.3995   9.4102   9.4276   9.4664
     9.4688   9.4805   9.4960   9.5321   9.5328   9.5549   9.5712   9.6316
     9.6495   9.6965   9.6970   9.7226   9.7631   9.7691   9.7854   9.8099
     9.8162   9.8293   9.8594   9.8978   9.9292   9.9472   9.9640   9.9715
     9.9875  10.0020  10.0087  10.0427  10.0801  10.0934  10.1370  10.1562
    10.1712  10.2295  10.2417  10.2546  10.3070  10.3082  10.3222  10.3309
    10.3564  10.3975  10.4218  10.4369  10.4503  10.4617  10.4742  10.5119
    10.5306  10.5568  10.5580  10.5891  10.6180  10.6418  10.6563  10.7036
    10.7128  10.7188  10.7217  10.7417

          k = 0.0000 0.0000 0.0156 (110441 PWs)   bands (ev):

   -21.1596 -20.8596 -20.7599 -20.5192 -20.2253 -20.1572 -19.9900 -19.8965
   -19.6995 -19.5629 -19.3212 -19.0352 -18.9967 -18.8413 -18.6192 -18.4372
   -18.2155 -18.0674 -17.9515 -17.8182 -17.7279 -17.5555 -17.2825 -17.0985
   -17.0435 -16.9808 -16.7565 -16.6471 -16.5214 -16.4003 -16.2885 -16.1914
   -16.1372 -15.9716 -15.4858 -15.3300 -14.7120 -14.6201 -14.5269 -14.5131
   -14.3722 -14.2991 -14.0931 -14.0050 -13.9429 -13.7875 -13.6330 -13.5058
   -13.4093 -13.1446 -12.9649 -12.6898 -12.6691 -12.4076 -12.3363 -12.1245
   -11.9799 -11.9132 -11.6726 -11.6330 -11.6001 -11.4941 -11.3371 -11.1633
   -11.0070 -10.7996 -10.7405 -10.6161 -10.5655 -10.4603 -10.3208 -10.1998
   -10.0329 -10.0045  -9.7946  -9.7505  -9.6473  -9.5520  -9.4830  -9.3927
    -9.3353  -9.2171  -9.2084  -9.0446  -8.9569  -8.9014  -8.8927  -8.7882
    -8.7565  -8.7409  -8.7286  -8.7164  -8.5297  -8.5011  -8.4771  -8.4065
    -8.2767  -8.2025  -8.1794  -8.1197  -8.0812  -8.0792  -7.9043  -7.8597
    -7.7766  -7.7536  -7.7220  -7.6994  -7.6466  -7.6177  -7.5736  -7.5260
    -7.3886  -7.3494  -7.3096  -7.1402  -7.0604  -6.9839  -6.8703  -6.8657
    -6.7899  -6.7404  -6.6407  -6.5389  -6.4965  -6.4412  -6.2974  -6.2449
    -6.1245  -6.0644  -5.8816  -5.8702  -5.7053  -5.5842  -5.5688  -5.5001
    -5.3909  -5.3860  -5.3134  -5.2686  -5.2142  -5.0798  -5.0160  -4.7988
    -4.6687  -4.5513  -4.5168  -4.3869  -4.3252  -4.1496  -3.9981  -3.8894
    -3.6780  -3.5813  -2.8514  -2.6491  -1.4860  -1.3415  -0.7056  -0.4592
    -0.2814  -0.1703  -0.0270   0.0042   0.1064   0.3349   0.3689   0.5515
     0.7797   0.8050   0.9056   1.0750   1.1609   1.1703   1.3503   1.4151
     1.4479   1.5935   1.6183   1.6915   1.6953   1.7911   1.8682   1.9925
     2.1469   2.2401   2.2677   2.3144   2.3614   2.3674   2.3918   2.4267
     2.4937   2.5443   2.5956   2.6108   2.6373   2.6912   2.7349   2.8109
     2.9064   2.9194   2.9715   3.0741   3.0873   3.1225   3.1405   3.2189
     3.2408   3.2722   3.2883   3.3890   3.4409   3.4425   3.4915   3.5858
     3.6362   3.7011   3.7193   3.7692   3.8128   3.8201   3.8879   3.8880
     3.9192   3.9823   4.0176   4.0618   4.0736   4.0974   4.1491   4.1851
     4.2137   4.2297   4.2806   4.3315   4.3640   4.3836   4.4102   4.4232
     4.4371   4.5239   4.5363   4.5416   4.5444   4.6305   4.6566   4.7333
     4.7486   4.7553   4.7763   4.8673   4.8752   4.9225   4.9531   4.9660
     5.0452   5.0545   5.0788   5.1223   5.1726   5.1986   5.2036   5.2454
     5.2750   5.3169   5.3202   5.3839   5.4189   5.4205   5.4604   5.4718
     5.5331   5.5429   5.5548   5.6128   5.6220   5.6323   5.6714   5.6772
     5.6953   5.7319   5.7356   5.7951   5.8048   5.8321   5.8414   5.8799
     5.9089   5.9459   5.9489   5.9876   6.0026   6.0477   6.0967   6.1080
     6.1301   6.2116   6.2126   6.2513   6.2880   6.3049   6.3129   6.3453
     6.3964   6.3997   6.4039   6.4395   6.4877   6.5122   6.5203   6.5385
     6.5621   6.5783   6.6074   6.6166   6.6418   6.6592   6.7247   6.7658
     6.7870   6.7888   6.8070   6.8419   6.8438   6.8601   6.8751   6.8936
     6.9049   6.9643   6.9785   6.9851   6.9934   7.0523   7.0552   7.1048
     7.1336   7.1788   7.1822   7.2313   7.2420   7.2766   7.2918   7.3061
     7.3097   7.3262   7.3523   7.3526   7.4092   7.4459   7.4903   7.5105
     7.5228   7.5554   7.5802   7.5975   7.6266   7.6398   7.6487   7.6901
     7.7149   7.7728   7.7849   7.8129   7.8405   7.8687   7.8744   7.8952
     7.9042   7.9341   7.9586   7.9884   7.9999   8.0098   8.0326   8.0564
     8.0585   8.0875   8.1358   8.1529   8.1703   8.1774   8.2103   8.2265
     8.2637   8.2924   8.2926   8.3457   8.3472   8.3787   8.3837   8.4333
     8.4589   8.4602   8.4610   8.4822   8.4987   8.5191   8.5394   8.5570
     8.5827   8.5932   8.6407   8.6499   8.6672   8.7066   8.7156   8.7410
     8.7899   8.8179   8.8395   8.8693   8.8829   8.9287   8.9506   8.9834
     8.9871   8.9995   9.0589   9.0637   9.0644   9.0679   9.1167   9.1525
     9.1852   9.1944   9.2261   9.2400   9.2475   9.2662   9.2824   9.2858
     9.3069   9.3462   9.3649   9.3920   9.4023   9.4302   9.4349   9.4366
     9.4642   9.4874   9.5129   9.5175   9.5277   9.5412   9.5787   9.6221
     9.6361   9.6765   9.7057   9.7278   9.7608   9.7685   9.7868   9.8023
     9.8116   9.8239   9.8631   9.8928   9.9392   9.9488   9.9503   9.9630
     9.9790   9.9898  10.0176  10.0382  10.0438  10.0921  10.1138  10.1338
    10.1644  10.2272  10.2321  10.2471  10.2666  10.3079  10.3305  10.3367
    10.3714  10.3911  10.4187  10.4359  10.4754  10.4759  10.4886  10.4997
    10.5283  10.5504  10.5612  10.5764  10.6110  10.6510  10.6698  10.7068
    10.7104  10.7239  10.7470  10.7570

          k = 0.0000 0.0000 0.0172 (110449 PWs)   bands (ev):

   -21.1547 -20.8624 -20.7733 -20.5185 -20.2019 -20.1641 -19.9903 -19.8986
   -19.6865 -19.5579 -19.3289 -19.0551 -19.0016 -18.8400 -18.6183 -18.4584
   -18.2207 -18.0641 -17.9336 -17.8141 -17.7315 -17.5423 -17.2736 -17.0746
   -17.0441 -16.9477 -16.7497 -16.6608 -16.5269 -16.4115 -16.3260 -16.1937
   -16.1310 -15.9734 -15.5329 -15.3772 -14.7004 -14.6154 -14.5173 -14.4596
   -14.3556 -14.2860 -14.0769 -13.9878 -13.9409 -13.7907 -13.6356 -13.5116
   -13.3961 -13.1601 -12.9520 -12.6933 -12.6563 -12.4179 -12.4027 -12.1275
   -11.9890 -11.9217 -11.6822 -11.6374 -11.5993 -11.5220 -11.3244 -11.1448
   -10.9916 -10.8114 -10.7356 -10.6219 -10.5756 -10.4262 -10.3138 -10.1937
   -10.0459 -10.0133  -9.7831  -9.7509  -9.6394  -9.5555  -9.4646  -9.3666
    -9.3302  -9.2114  -9.2006  -9.0428  -8.9712  -8.8999  -8.8938  -8.7596
    -8.7586  -8.7568  -8.7289  -8.7227  -8.5324  -8.4998  -8.4765  -8.4137
    -8.2712  -8.2057  -8.1799  -8.1173  -8.0867  -8.0632  -7.9015  -7.8694
    -7.7730  -7.7592  -7.7254  -7.7183  -7.6526  -7.6387  -7.6032  -7.5099
    -7.4073  -7.3419  -7.3044  -7.1613  -7.0681  -6.9770  -6.8706  -6.8582
    -6.7850  -6.7737  -6.6231  -6.5421  -6.4727  -6.4225  -6.2968  -6.2305
    -6.1447  -6.0588  -5.8834  -5.8681  -5.7142  -5.5864  -5.5586  -5.4974
    -5.3958  -5.3744  -5.3302  -5.2625  -5.2072  -5.0774  -5.0149  -4.7946
    -4.6480  -4.5405  -4.5062  -4.3946  -4.3257  -4.1540  -3.9985  -3.8779
    -3.6877  -3.5847  -2.8937  -2.6957  -1.4488  -1.3023  -0.7080  -0.4467
    -0.2706  -0.1631  -0.0198  -0.0000   0.1098   0.3216   0.3532   0.5439
     0.7801   0.8168   0.8909   1.0821   1.1622   1.1774   1.3570   1.4180
     1.4512   1.5717   1.6170   1.6652   1.6700   1.7790   1.8623   1.9816
     2.1356   2.2397   2.2780   2.3457   2.3586   2.3679   2.4225   2.4303
     2.4845   2.5526   2.5913   2.5953   2.6399   2.6915   2.7725   2.7842
     2.8952   2.9373   2.9847   3.0783   3.0831   3.1028   3.1403   3.2035
     3.2316   3.2703   3.3064   3.3951   3.4263   3.4602   3.5241   3.5883
     3.6118   3.7087   3.7228   3.7727   3.7901   3.8335   3.8565   3.8997
     3.9107   3.9955   4.0339   4.0436   4.1080   4.1154   4.1681   4.1714
     4.2110   4.2360   4.2744   4.3480   4.3557   4.3675   4.4119   4.4304
     4.4391   4.5111   4.5359   4.5381   4.5439   4.6081   4.6757   4.7196
     4.7240   4.7451   4.7866   4.8291   4.8961   4.9286   4.9335   4.9796
     5.0302   5.0594   5.0874   5.1464   5.1652   5.1999   5.2103   5.2323
     5.2814   5.3203   5.3278   5.3824   5.4286   5.4346   5.4523   5.4895
     5.5325   5.5473   5.5735   5.5962   5.6019   5.6318   5.6455   5.6797
     5.7050   5.7223   5.7324   5.7565   5.7992   5.8155   5.8320   5.8847
     5.9053   5.9140   5.9615   5.9861   6.0232   6.0428   6.0515   6.1046
     6.1490   6.1699   6.2262   6.2428   6.3093   6.3096   6.3165   6.3438
     6.3892   6.4177   6.4321   6.4718   6.4884   6.5310   6.5354   6.5445
     6.5526   6.5888   6.6054   6.6149   6.6569   6.6921   6.7106   6.7466
     6.7727   6.7805   6.8067   6.8582   6.8659   6.8710   6.8780   6.8979
     6.9096   6.9289   6.9536   6.9782   6.9904   7.0342   7.0806   7.0903
     7.1119   7.1701   7.1782   7.2421   7.2440   7.3067   7.3127   7.3166
     7.3379   7.3521   7.3620   7.3782   7.4006   7.4367   7.4907   7.5032
     7.5344   7.5546   7.6019   7.6200   7.6434   7.6463   7.6801   7.6866
     7.7138   7.7792   7.7849   7.8047   7.8572   7.8572   7.8619   7.8959
     7.9207   7.9262   7.9598   7.9778   7.9941   8.0070   8.0103   8.0318
     8.0601   8.0660   8.1101   8.1431   8.2031   8.2043   8.2284   8.2466
     8.2620   8.2777   8.3065   8.3088   8.3440   8.3595   8.3941   8.4218
     8.4354   8.4573   8.4715   8.4984   8.4987   8.5263   8.5592   8.5610
     8.5695   8.6111   8.6340   8.6474   8.6595   8.7025   8.7416   8.7457
     8.7966   8.8224   8.8250   8.8600   8.8808   8.9026   8.9394   8.9826
     8.9968   9.0142   9.0349   9.0521   9.0660   9.0672   9.1232   9.1600
     9.1684   9.1942   9.2044   9.2193   9.2437   9.2591   9.2944   9.2980
     9.3150   9.3230   9.3800   9.3819   9.3885   9.4024   9.4253   9.4569
     9.4695   9.4793   9.5032   9.5115   9.5346   9.5779   9.5876   9.5945
     9.6401   9.6472   9.7162   9.7252   9.7330   9.7688   9.7896   9.7977
     9.8191   9.8401   9.8752   9.8906   9.9044   9.9265   9.9346   9.9512
     9.9781   9.9961  10.0218  10.0314  10.0449  10.0889  10.1092  10.1205
    10.1448  10.2026  10.2167  10.2267  10.2515  10.2948  10.3143  10.3443
    10.3723  10.3968  10.4169  10.4268  10.4764  10.4842  10.5029  10.5244
    10.5398  10.5426  10.5745  10.5818  10.5910  10.6675  10.6750  10.6965
    10.7114  10.7191  10.7424  10.7742

          k = 0.0000 0.0000 0.0188 (110471 PWs)   bands (ev):

   -21.1493 -20.8665 -20.7853 -20.5176 -20.1904 -20.1585 -19.9912 -19.8999
   -19.6736 -19.5531 -19.3379 -19.0857 -18.9934 -18.8381 -18.6178 -18.4798
   -18.2343 -18.0582 -17.9173 -17.8039 -17.7326 -17.5300 -17.2665 -17.0572
   -17.0352 -16.9131 -16.7431 -16.6755 -16.5312 -16.4329 -16.3563 -16.1964
   -16.1249 -15.9744 -15.5793 -15.4231 -14.6904 -14.6125 -14.5137 -14.4021
   -14.3365 -14.2736 -14.0615 -13.9725 -13.9336 -13.7930 -13.6414 -13.5163
   -13.3815 -13.1754 -12.9365 -12.6996 -12.6423 -12.4713 -12.4282 -12.1318
   -12.0062 -11.9205 -11.7057 -11.6309 -11.5965 -11.5473 -11.3116 -11.1273
   -10.9773 -10.8327 -10.7303 -10.6279 -10.5756 -10.3994 -10.2960 -10.1895
   -10.0683 -10.0153  -9.7894  -9.7357  -9.6293  -9.5595  -9.4493  -9.3439
    -9.3231  -9.2053  -9.1833  -9.0416  -8.9868  -8.8962  -8.8955  -8.7760
    -8.7754  -8.7556  -8.7148  -8.6991  -8.5354  -8.4980  -8.4756  -8.4190
    -8.2769  -8.2044  -8.1782  -8.1252  -8.0945  -8.0369  -7.8984  -7.8857
    -7.7742  -7.7643  -7.7417  -7.7308  -7.6732  -7.6397  -7.6217  -7.4936
    -7.4242  -7.3345  -7.2977  -7.1813  -7.0775  -6.9756  -6.8710  -6.8488
    -6.8201  -6.7652  -6.6090  -6.5443  -6.4518  -6.4011  -6.2965  -6.2152
    -6.1651  -6.0502  -5.8921  -5.8677  -5.7207  -5.6033  -5.5342  -5.4948
    -5.4005  -5.3575  -5.3477  -5.2574  -5.1998  -5.0752  -5.0147  -4.7895
    -4.6274  -4.5344  -4.4957  -4.4001  -4.3261  -4.1586  -3.9968  -3.8664
    -3.6962  -3.5885  -2.9372  -2.7421  -1.4127  -1.2623  -0.7105  -0.4369
    -0.2582  -0.1550  -0.0116  -0.0038   0.1129   0.3061   0.3410   0.5345
     0.7804   0.8277   0.8799   1.0899   1.1617   1.1851   1.3576   1.4207
     1.4527   1.5473   1.6188   1.6368   1.6402   1.7814   1.8554   1.9712
     2.1249   2.2347   2.2885   2.3486   2.3640   2.3898   2.4349   2.4557
     2.4750   2.5628   2.5741   2.5934   2.6445   2.6944   2.7579   2.8107
     2.8820   2.9508   2.9936   3.0707   3.0832   3.0927   3.1474   3.1803
     3.2177   3.2660   3.3375   3.4014   3.4128   3.4814   3.5506   3.5840
     3.5983   3.6923   3.7021   3.7857   3.7858   3.8283   3.8436   3.9146
     3.9204   3.9989   4.0238   4.0671   4.1161   4.1251   4.1555   4.1907
     4.2208   4.2550   4.2714   4.3345   4.3494   4.3630   4.4033   4.4323
     4.4642   4.5123   4.5245   4.5288   4.5602   4.5885   4.6794   4.6955
     4.7239   4.7304   4.7910   4.8044   4.9077   4.9319   4.9383   4.9568
     5.0125   5.0697   5.1074   5.1535   5.1561   5.1987   5.2184   5.2333
     5.2901   5.3244   5.3279   5.3883   5.3951   5.4588   5.4672   5.5047
     5.5382   5.5613   5.5656   5.5698   5.6071   5.6148   5.6425   5.6731
     5.6802   5.7050   5.7315   5.7396   5.7905   5.7997   5.8614   5.8719
     5.8817   5.9171   5.9713   5.9807   5.9941   6.0406   6.0637   6.1172
     6.1214   6.1638   6.2179   6.2429   6.3085   6.3247   6.3368   6.3443
     6.3805   6.4393   6.4444   6.4740   6.5197   6.5304   6.5477   6.5611
     6.5763   6.5949   6.6060   6.6165   6.6581   6.6982   6.7200   6.7298
     6.7532   6.7815   6.8136   6.8414   6.8589   6.8639   6.8935   6.9011
     6.9104   6.9183   6.9506   6.9583   7.0195   7.0267   7.0774   7.0870
     7.0938   7.1601   7.1888   7.2430   7.2577   7.3083   7.3104   7.3292
     7.3618   7.3749   7.3772   7.4116   7.4144   7.4345   7.4858   7.5040
     7.5482   7.5578   7.6001   7.6423   7.6598   7.6673   7.6883   7.7172
     7.7209   7.7614   7.7776   7.8044   7.8543   7.8571   7.8629   7.8935
     7.9179   7.9258   7.9429   7.9551   7.9910   7.9983   8.0232   8.0473
     8.0494   8.0563   8.0842   8.1360   8.2005   8.2265   8.2293   8.2346
     8.2430   8.2719   8.3094   8.3241   8.3320   8.3598   8.3940   8.4180
     8.4277   8.4299   8.4855   8.5067   8.5081   8.5271   8.5587   8.5697
     8.5881   8.6269   8.6358   8.6526   8.6823   8.7032   8.7218   8.7715
     8.7807   8.8013   8.8148   8.8658   8.8703   8.9191   8.9254   8.9797
     8.9852   9.0210   9.0373   9.0390   9.0669   9.0844   9.1161   9.1340
     9.1343   9.1927   9.1996   9.2171   9.2295   9.2425   9.2953   9.3120
     9.3192   9.3213   9.3520   9.3806   9.3967   9.3975   9.4228   9.4437
     9.4726   9.4851   9.5136   9.5159   9.5391   9.5470   9.6036   9.6216
     9.6373   9.6530   9.6874   9.7252   9.7299   9.7720   9.7740   9.7788
     9.8194   9.8354   9.8723   9.8905   9.9080   9.9153   9.9201   9.9498
     9.9668  10.0051  10.0058  10.0430  10.0439  10.0916  10.1023  10.1163
    10.1394  10.1647  10.1874  10.2191  10.2476  10.2702  10.2971  10.3166
    10.3836  10.3898  10.4139  10.4439  10.4646  10.4934  10.5011  10.5276
    10.5399  10.5569  10.5831  10.5934  10.6014  10.6647  10.6812  10.6879
    10.7054  10.7382  10.7646  10.7697

          k = 0.0000 0.0000 0.0203 (110491 PWs)   bands (ev):

   -21.1435 -20.8723 -20.7953 -20.5165 -20.1946 -20.1369 -19.9922 -19.9006
   -19.6611 -19.5485 -19.3484 -19.1163 -18.9820 -18.8355 -18.6181 -18.5008
   -18.2529 -18.0516 -17.9056 -17.7896 -17.7273 -17.5188 -17.2611 -17.0525
   -17.0103 -16.8779 -16.7368 -16.6909 -16.5345 -16.4687 -16.3739 -16.1996
   -16.1194 -15.9756 -15.6247 -15.4674 -14.6816 -14.6105 -14.5117 -14.3554
   -14.3049 -14.2630 -14.0466 -13.9597 -13.9213 -13.7942 -13.6495 -13.5197
   -13.3680 -13.1877 -12.9194 -12.7086 -12.6293 -12.5394 -12.4383 -12.1379
   -12.0293 -11.9118 -11.7359 -11.6193 -11.5978 -11.5653 -11.2996 -11.1106
   -10.9644 -10.8568 -10.7314 -10.6300 -10.5692 -10.3819 -10.2686 -10.1888
   -10.0888 -10.0163  -9.8018  -9.7182  -9.6173  -9.5621  -9.4382  -9.3269
    -9.3147  -9.1986  -9.1556  -9.0412  -9.0010  -8.8982  -8.8917  -8.7966
    -8.7911  -8.7633  -8.6969  -8.6659  -8.5383  -8.4954  -8.4743  -8.4227
    -8.2936  -8.1993  -8.1748  -8.1350  -8.1041  -8.0093  -7.9044  -7.8944
    -7.7921  -7.7685  -7.7582  -7.7438  -7.6913  -7.6494  -7.6154  -7.4775
    -7.4370  -7.3273  -7.2916  -7.1992  -7.0891  -6.9796  -6.8692  -6.8564
    -6.8392  -6.7530  -6.5988  -6.5457  -6.4328  -6.3788  -6.2968  -6.1986
    -6.1852  -6.0388  -5.9060  -5.8692  -5.7248  -5.6192  -5.5137  -5.4926
    -5.4045  -5.3656  -5.3346  -5.2532  -5.1919  -5.0731  -5.0152  -4.7837
    -4.6078  -4.5302  -4.4894  -4.4035  -4.3266  -4.1621  -3.9927  -3.8550
    -3.7032  -3.5927  -2.9816  -2.7880  -1.3781  -1.2217  -0.7132  -0.4296
    -0.2464  -0.1450  -0.0083  -0.0008   0.1156   0.2884   0.3331   0.5235
     0.7808   0.8340   0.8762   1.0984   1.1593   1.1934   1.3514   1.4231
     1.4478   1.5233   1.6108   1.6110   1.6265   1.7889   1.8475   1.9614
     2.1151   2.2284   2.2987   2.3381   2.3694   2.4262   2.4404   2.4652
     2.4880   2.5547   2.5812   2.5909   2.6511   2.6991   2.7323   2.8490
     2.8678   2.9617   2.9923   3.0518   3.0919   3.0938   3.1564   3.1598
     3.1958   3.2717   3.3540   3.4096   3.4144   3.5022   3.5486   3.5827
     3.6017   3.6472   3.6875   3.7698   3.8031   3.8318   3.8500   3.9305
     3.9354   4.0042   4.0086   4.0699   4.1025   4.1285   4.1905   4.2185
     4.2281   4.2555   4.2717   4.3092   4.3447   4.3746   4.4024   4.4343
     4.4843   4.5082   4.5169   4.5274   4.5744   4.5816   4.6643   4.6686
     4.6947   4.7634   4.7856   4.7956   4.8924   4.9147   4.9506   4.9629
     5.0060   5.0728   5.1136   5.1460   5.1474   5.1944   5.2244   5.2539
     5.3007   5.3193   5.3364   5.3610   5.3993   5.4745   5.4796   5.5148
     5.5229   5.5438   5.5686   5.5893   5.5930   5.6199   5.6388   5.6443
     5.6576   5.7069   5.7137   5.7286   5.7758   5.8001   5.8539   5.8603
     5.9038   5.9347   5.9386   5.9739   5.9857   6.0404   6.0707   6.0995
     6.1320   6.1744   6.1991   6.2558   6.3056   6.3398   6.3400   6.3570
     6.3753   6.4403   6.4650   6.4791   6.5059   6.5465   6.5692   6.5730
     6.6067   6.6091   6.6163   6.6314   6.6395   6.6909   6.7156   6.7297
     6.7617   6.7796   6.7906   6.8206   6.8485   6.8562   6.8724   6.9091
     6.9220   6.9334   6.9445   6.9737   7.0051   7.0631   7.0658   7.0758
     7.0983   7.1514   7.2026   7.2342   7.2768   7.3004   7.3149   7.3336
     7.3460   7.3833   7.4028   7.4207   7.4537   7.4584   7.5016   7.5052
     7.5633   7.5670   7.5930   7.6412   7.6688   7.6931   7.6967   7.7386
     7.7447   7.7535   7.7881   7.7980   7.8363   7.8455   7.8665   7.8892
     7.8922   7.9078   7.9297   7.9433   7.9840   8.0305   8.0309   8.0512
     8.0536   8.0661   8.0740   8.1262   8.1666   8.1839   8.2166   8.2303
     8.2658   8.2697   8.3127   8.3264   8.3330   8.3600   8.3709   8.4180
     8.4204   8.4627   8.5042   8.5047   8.5074   8.5262   8.5446   8.5817
     8.6151   8.6275   8.6551   8.6662   8.6771   8.6953   8.7288   8.7715
[...]
    -4.6354  -4.5801  -4.5302  -4.4061  -4.3454  -4.0897  -3.8564  -3.7690
    -3.6815  -3.6287  -3.3690  -3.1088  -1.1692  -0.9007  -0.7522  -0.3915
    -0.2987  -0.0864   0.0357   0.0905   0.1313   0.2142   0.3592   0.4992
     0.7490   0.7831   0.9045   1.0411   1.1393   1.2039   1.2897   1.3191
     1.3809   1.4096   1.4762   1.6680   1.6796   1.7626   1.8456   1.9052
     2.0698   2.1813   2.2805   2.3683   2.3806   2.4243   2.4347   2.5156
     2.5354   2.5905   2.6456   2.6955   2.7744   2.8198   2.8201   2.8443
     2.8866   2.9037   2.9511   3.0268   3.0382   3.0550   3.1706   3.2014
     3.2280   3.2388   3.2823   3.3617   3.3716   3.4706   3.5010   3.5505
     3.5703   3.6365   3.6656   3.7701   3.7868   3.7936   3.8673   3.9689
     3.9705   4.0415   4.0674   4.0884   4.1285   4.2032   4.2060   4.2429
     4.2543   4.2812   4.3385   4.3610   4.3888   4.3902   4.4326   4.4380
     4.4449   4.4700   4.5016   4.5255   4.5682   4.6570   4.6630   4.7264
     4.7345   4.7893   4.8291   4.8343   4.8606   4.8970   4.9212   4.9306
     4.9691   5.0515   5.0551   5.0909   5.1199   5.1223   5.1489   5.2242
     5.2463   5.3038   5.3277   5.3369   5.3741   5.3803   5.3873   5.3940
     5.4356   5.4572   5.4678   5.5023   5.5534   5.5675   5.6343   5.6605
     5.6981   5.7254   5.7267   5.7547   5.7832   5.8235   5.8640   5.9214
     5.9539   5.9608   5.9938   5.9941   6.0363   6.0634   6.1042   6.1247
     6.1789   6.1862   6.1927   6.2518   6.2865   6.2890   6.3167   6.3387
     6.3468   6.3888   6.4071   6.4387   6.4998   6.5136   6.5364   6.6007
     6.6027   6.6259   6.6698   6.6941   6.6992   6.7338   6.7498   6.7985
     6.8042   6.8099   6.8349   6.8497   6.8693   6.8947   6.9400   6.9524
     7.0026   7.0201   7.0554   7.0565   7.0760   7.0821   7.1515   7.1611
     7.1755   7.1762   7.1973   7.2353   7.2650   7.2785   7.2851   7.3192
     7.3573   7.3624   7.4054   7.4236   7.4332   7.4391   7.4752   7.4940
     7.5277   7.5614   7.5778   7.6113   7.6134   7.6363   7.6824   7.7378
     7.7534   7.7843   7.8204   7.8226   7.8413   7.8745   7.8936   7.9131
     7.9298   7.9506   7.9732   8.0012   8.0161   8.0233   8.0395   8.0893
     8.0929   8.1245   8.1421   8.1736   8.1831   8.2090   8.2134   8.2563
     8.2710   8.2816   8.3021   8.3114   8.3368   8.3450   8.3944   8.4011
     8.4181   8.4401   8.4624   8.4837   8.5181   8.5559   8.5748   8.5862
     8.5868   8.6051   8.6205   8.6230   8.6342   8.6631   8.6823   8.7225
     8.7487   8.7533   8.7709   8.8083   8.8767   8.8848   8.9094   8.9303
     8.9392   8.9494   8.9499   8.9700   9.0195   9.0572   9.1022   9.1163
     9.1279   9.1660   9.1889   9.1972   9.2346   9.2751   9.2919   9.3181
     9.3382   9.3563   9.3666   9.3674   9.3912   9.4188   9.4303   9.4372
     9.4770   9.4937   9.5061   9.5457   9.5570   9.5691   9.5908   9.6014
     9.6320   9.6508   9.6579   9.6673   9.6905   9.7183   9.7199   9.7443
     9.7684   9.7887   9.8050   9.8303   9.8315   9.8450   9.8740   9.8775
     9.9292   9.9965   9.9969  10.0139  10.0361  10.0489  10.0654  10.0938
    10.1142  10.1369  10.1698  10.1758  10.1786  10.2033  10.2062  10.2705
    10.2777  10.3237  10.3475  10.3629  10.3815  10.4044  10.4486  10.4837
    10.5223  10.5283  10.5649  10.5801  10.5840  10.6154  10.6248  10.6307
    10.6436  10.7015  10.7072  10.7180

          k = 0.0000 0.0000 0.0360 (110524 PWs)   bands (ev):

   -21.0737 -20.9742 -20.8201 -20.5056 -20.2508 -20.0453 -19.9050 -19.8027
   -19.6663 -19.5709 -19.4279 -19.2768 -18.8350 -18.7842 -18.7459 -18.5737
   -18.4465 -18.0118 -17.8959 -17.7898 -17.4664 -17.2671 -17.2623 -17.0444
   -16.9603 -16.8831 -16.7399 -16.6353 -16.6045 -16.4720 -16.3824 -16.2550
   -16.1305 -16.0992 -15.9431 -15.7030 -14.6505 -14.5630 -14.5329 -14.3203
   -14.1404 -14.0498 -13.8586 -13.8304 -13.7068 -13.6742 -13.6229 -13.5573
   -13.4551 -13.2927 -12.9662 -12.8537 -12.7376 -12.6192 -12.4033 -12.2422
   -12.2193 -12.0491 -11.7650 -11.6980 -11.6385 -11.4374 -11.1917 -11.1235
   -10.9609 -10.8941 -10.7337 -10.5997 -10.5212 -10.4734 -10.2664 -10.1016
   -10.0573  -9.8990  -9.7931  -9.6796  -9.6653  -9.5305  -9.3562  -9.2435
    -9.2149  -9.1591  -9.1236  -9.0129  -8.9829  -8.9263  -8.8481  -8.8311
    -8.7650  -8.7036  -8.6449  -8.6243  -8.5088  -8.4601  -8.4523  -8.4174
    -8.3249  -8.2739  -8.2440  -8.2054  -8.1393  -8.0992  -8.0206  -7.9737
    -7.9304  -7.9256  -7.8228  -7.7180  -7.6526  -7.5946  -7.5193  -7.4419
    -7.3718  -7.3495  -7.3168  -7.2167  -7.1995  -7.1089  -7.0283  -6.8843
    -6.7156  -6.6649  -6.6422  -6.4938  -6.3945  -6.2992  -6.2613  -6.1823
    -6.0939  -6.0799  -5.9650  -5.8155  -5.7243  -5.7028  -5.6069  -5.4661
    -5.4361  -5.4228  -5.2438  -5.1643  -5.0605  -5.0462  -4.8656  -4.7091
    -4.6649  -4.5936  -4.5302  -4.3978  -4.3480  -4.0834  -3.8459  -3.7613
    -3.6754  -3.6258  -3.3995  -3.1245  -1.1606  -0.8799  -0.7582  -0.3864
    -0.3103  -0.0870   0.0443   0.0810   0.1357   0.2250   0.3463   0.5394
     0.7169   0.7832   0.8857   1.0529   1.1262   1.2180   1.2878   1.3163
     1.3790   1.3948   1.4766   1.6716   1.6860   1.7568   1.8475   1.9027
     2.0687   2.1793   2.2800   2.3621   2.3851   2.4274   2.4365   2.5194
     2.5210   2.5906   2.6552   2.6942   2.7854   2.8198   2.8257   2.8764
     2.8765   2.9332   2.9356   3.0225   3.0447   3.0486   3.1384   3.1806
     3.2084   3.2480   3.3099   3.3540   3.3866   3.4531   3.5178   3.5471
     3.5668   3.6257   3.6725   3.7336   3.7966   3.7993   3.8776   3.9733
     3.9890   4.0170   4.0889   4.0941   4.1268   4.1865   4.2130   4.2436
     4.2550   4.2951   4.3339   4.3528   4.3769   4.3927   4.4304   4.4381
     4.4590   4.4679   4.4962   4.5178   4.6107   4.6536   4.6538   4.7217
     4.7392   4.8120   4.8254   4.8417   4.8446   4.9032   4.9376   4.9459
     4.9843   5.0377   5.0390   5.0876   5.0882   5.1094   5.1773   5.1774
     5.2488   5.3173   5.3254   5.3574   5.3615   5.3690   5.3726   5.3955
     5.4104   5.4528   5.4769   5.5037   5.5288   5.5493   5.6258   5.6776
     5.7024   5.7262   5.7425   5.7482   5.7845   5.8336   5.8701   5.9211
     5.9641   5.9779   5.9940   6.0269   6.0358   6.0982   6.1180   6.1290
     6.1598   6.1754   6.1910   6.2376   6.2474   6.2701   6.3131   6.3317
     6.3432   6.3667   6.3993   6.4279   6.5093   6.5176   6.5324   6.6008
     6.6162   6.6291   6.6940   6.7090   6.7166   6.7351   6.7459   6.7975
     6.8028   6.8128   6.8259   6.8508   6.8720   6.9153   6.9453   6.9850
     7.0131   7.0247   7.0538   7.0593   7.0705   7.1117   7.1414   7.1613
     7.1764   7.1805   7.2065   7.2389   7.2512   7.2557   7.2765   7.3095
     7.3259   7.3792   7.3982   7.4095   7.4238   7.4414   7.4938   7.5015
     7.5326   7.5538   7.5713   7.6014   7.6144   7.6314   7.6583   7.7303
     7.7730   7.7746   7.8133   7.8162   7.8413   7.8448   7.9185   7.9293
     7.9403   7.9627   7.9891   7.9896   8.0289   8.0331   8.0445   8.0815
     8.0908   8.1175   8.1712   8.1732   8.1908   8.1942   8.2299   8.2560
     8.2885   8.3007   8.3060   8.3324   8.3326   8.3404   8.4089   8.4223
     8.4233   8.4415   8.4425   8.4798   8.4842   8.5417   8.5569   8.5703
     8.5880   8.5964   8.5981   8.6490   8.6532   8.6547   8.6913   8.7206
     8.7355   8.7541   8.7648   8.8220   8.8409   8.8595   8.8740   8.9084
     8.9203   8.9272   8.9655   8.9934   9.0180   9.0678   9.1026   9.1308
     9.1587   9.1753   9.1940   9.2090   9.2384   9.2763   9.2911   9.3322
     9.3483   9.3545   9.3635   9.3773   9.3802   9.3998   9.4430   9.4705
     9.4805   9.4965   9.5161   9.5314   9.5586   9.5650   9.5819   9.5945
     9.6287   9.6478   9.6490   9.6597   9.6943   9.7156   9.7207   9.7338
     9.7471   9.7997   9.8104   9.8170   9.8362   9.8637   9.8761   9.8976
     9.9006   9.9490  10.0002  10.0047  10.0296  10.0565  10.0752  10.0809
    10.1103  10.1313  10.1538  10.1732  10.1908  10.2078  10.2135  10.2475
    10.2772  10.3188  10.3458  10.3472  10.4016  10.4211  10.4660  10.4842
    10.5089  10.5383  10.5406  10.5726  10.5823  10.6213  10.6239  10.6373
    10.6486  10.6966  10.7112  10.7218

          k = 0.0000 0.0000 0.0376 (110516 PWs)   bands (ev):

   -21.0698 -20.9793 -20.8202 -20.5053 -20.2521 -20.0457 -19.9043 -19.7778
   -19.6893 -19.5703 -19.4270 -19.2800 -18.8229 -18.7809 -18.7597 -18.5736
   -18.4531 -18.0109 -17.8961 -17.7904 -17.4650 -17.2637 -17.2114 -17.0997
   -16.9503 -16.8941 -16.7367 -16.6275 -16.5983 -16.4613 -16.3938 -16.2310
   -16.1645 -16.0989 -15.9492 -15.7062 -14.6506 -14.5557 -14.5386 -14.3225
   -14.1286 -14.0590 -13.8584 -13.8292 -13.6894 -13.6733 -13.5813 -13.5558
   -13.4477 -13.3598 -12.9379 -12.8757 -12.7283 -12.6274 -12.3992 -12.2453
   -12.2206 -12.0629 -11.7648 -11.6840 -11.6531 -11.4310 -11.1778 -11.1423
   -10.9574 -10.8921 -10.7258 -10.6085 -10.5133 -10.4870 -10.2641 -10.0976
   -10.0583  -9.8942  -9.7928  -9.6722  -9.6640  -9.5401  -9.3588  -9.2242
    -9.2123  -9.1685  -9.1199  -9.0128  -8.9876  -8.9231  -8.8484  -8.8390
    -8.7595  -8.7160  -8.6410  -8.5861  -8.5165  -8.4723  -8.4597  -8.3940
    -8.3361  -8.2807  -8.2430  -8.2071  -8.1412  -8.1122  -8.0246  -7.9700
    -7.9377  -7.9305  -7.8227  -7.7197  -7.6488  -7.5630  -7.5214  -7.4696
    -7.3654  -7.3503  -7.3163  -7.2155  -7.1972  -7.1150  -7.0313  -6.8865
    -6.7076  -6.6633  -6.6491  -6.4866  -6.4031  -6.2961  -6.2614  -6.1678
    -6.1009  -6.0856  -5.9681  -5.7997  -5.7240  -5.7066  -5.6189  -5.4659
    -5.4355  -5.4231  -5.2440  -5.1629  -5.0602  -5.0462  -4.8227  -4.7277
    -4.6793  -4.6016  -4.5302  -4.3923  -4.3501  -4.0795  -3.8398  -3.7558
    -3.6722  -3.6210  -3.4207  -3.1342  -1.1554  -0.8659  -0.7631  -0.3822
    -0.3186  -0.0875   0.0529   0.0715   0.1380   0.2340   0.3362   0.5826
     0.6775   0.7833   0.8751   1.0639   1.1153   1.2310   1.2764   1.3232
     1.3778   1.3829   1.4770   1.6740   1.6898   1.7530   1.8486   1.9011
     2.0681   2.1780   2.2799   2.3582   2.3881   2.4239   2.4455   2.5069
     2.5244   2.5905   2.6617   2.6933   2.7941   2.8143   2.8286   2.8715
     2.9115   2.9197   2.9552   3.0200   3.0445   3.0493   3.1167   3.1506
     3.1976   3.2604   3.3162   3.3780   3.4023   3.4357   3.4699   3.5826
     3.5910   3.6127   3.6745   3.6895   3.8017   3.8035   3.9066   3.9746
     3.9823   4.0091   4.0674   4.1115   4.1633   4.1678   4.2187   4.2459
     4.2540   4.2686   4.3439   4.3627   4.3714   4.3948   4.4116   4.4334
     4.4698   4.4833   4.4935   4.5138   4.6352   4.6512   4.6542   4.7131
     4.7296   4.8084   4.8204   4.8603   4.8672   4.9024   4.9401   4.9492
     4.9904   5.0368   5.0460   5.0701   5.0702   5.1227   5.1304   5.1821
     5.2624   5.3105   5.3296   5.3531   5.3569   5.3619   5.3661   5.4075
     5.4091   5.4452   5.4872   5.4992   5.5039   5.5428   5.6121   5.6822
     5.7128   5.7296   5.7455   5.7543   5.7897   5.8404   5.8743   5.9020
     5.9667   5.9963   6.0007   6.0306   6.0833   6.0959   6.1305   6.1442
     6.1563   6.1666   6.1894   6.1923   6.2401   6.2448   6.3112   6.3290
     6.3403   6.3556   6.3947   6.4210   6.5070   6.5293   6.5302   6.5949
     6.6160   6.6463   6.6900   6.7309   6.7317   6.7387   6.7606   6.7865
     6.7865   6.8130   6.8420   6.8520   6.8530   6.9159   6.9834   7.0136
     7.0179   7.0285   7.0489   7.0596   7.0828   7.1134   7.1304   7.1384
     7.1707   7.1938   7.2039   7.2303   7.2396   7.2688   7.2858   7.2903
     7.3132   7.3656   7.3750   7.4056   7.4452   7.4551   7.5062   7.5106
     7.5310   7.5489   7.5771   7.5905   7.6059   7.6161   7.6541   7.7364
     7.7607   7.7857   7.7861   7.8134   7.8266   7.8490   7.9246   7.9423
     7.9558   7.9656   7.9825   8.0205   8.0251   8.0427   8.0544   8.0760
     8.1035   8.1103   8.1580   8.1759   8.1810   8.2100   8.2175   8.2473
     8.3060   8.3117   8.3195   8.3316   8.3541   8.3661   8.4005   8.4155
     8.4349   8.4399   8.4503   8.4689   8.4812   8.5208   8.5364   8.5465
     8.5751   8.5962   8.6100   8.6305   8.6528   8.6970   8.7062   8.7108
     8.7251   8.7528   8.7825   8.7949   8.8295   8.8361   8.8568   8.8880
     8.9084   8.9292   8.9601   9.0159   9.0317   9.0464   9.1288   9.1324
     9.1409   9.1862   9.2205   9.2306   9.2443   9.2766   9.2947   9.3285
     9.3466   9.3489   9.3628   9.3785   9.3863   9.3900   9.4563   9.4588
     9.4789   9.4876   9.5296   9.5324   9.5513   9.5700   9.5945   9.6061
     9.6340   9.6420   9.6529   9.6642   9.6829   9.7078   9.7095   9.7311
     9.7409   9.7876   9.8179   9.8182   9.8220   9.8331   9.8917   9.9095
     9.9294   9.9352   9.9973   9.9994  10.0170  10.0522  10.0536  10.0663
    10.1073  10.1404  10.1411  10.1900  10.2071  10.2090  10.2195  10.2377
    10.2745  10.3093  10.3289  10.3483  10.4125  10.4501  10.4617  10.4852
    10.5037  10.5217  10.5480  10.5599  10.5949  10.6198  10.6203  10.6373
    10.6555  10.6921  10.6935  10.7345

          k = 0.0000 0.0000-0.0391 (110500 PWs)   bands (ev):

   -21.0683 -20.9811 -20.8202 -20.5052 -20.2526 -20.0458 -19.9040 -19.7655
   -19.7010 -19.5701 -19.4266 -19.2811 -18.8176 -18.7794 -18.7660 -18.5736
   -18.4554 -18.0106 -17.8962 -17.7906 -17.4646 -17.2639 -17.1599 -17.1513
   -16.9457 -16.8990 -16.7357 -16.6250 -16.5957 -16.4564 -16.3996 -16.2072
   -16.1914 -16.0988 -15.9511 -15.7072 -14.6506 -14.5514 -14.5425 -14.3232
   -14.1237 -14.0630 -13.8584 -13.8288 -13.6822 -13.6731 -13.5833 -13.5337
   -13.4280 -13.4065 -12.9210 -12.8905 -12.7249 -12.6305 -12.3979 -12.2462
   -12.2208 -12.0679 -11.7649 -11.6698 -11.6673 -11.4288 -11.1667 -11.1551
   -10.9563 -10.8915 -10.7224 -10.6126 -10.5069 -10.4950 -10.2634 -10.0960
   -10.0589  -9.8923  -9.7933  -9.6717  -9.6603  -9.5441  -9.3597  -9.2185
    -9.2081  -9.1740  -9.1186  -9.0124  -8.9893  -8.9217  -8.8485  -8.8426
    -8.7575  -8.7201  -8.6410  -8.5571  -8.5332  -8.4803  -8.4595  -8.3787
    -8.3475  -8.2842  -8.2404  -8.2077  -8.1410  -8.1180  -8.0259  -7.9673
    -7.9432  -7.9305  -7.8227  -7.7203  -7.6475  -7.5459  -7.5222  -7.4856
    -7.3631  -7.3504  -7.3162  -7.2150  -7.1964  -7.1171  -7.0323  -6.8872
    -6.7044  -6.6627  -6.6519  -6.4838  -6.4064  -6.2951  -6.2615  -6.1618
    -6.1046  -6.0875  -5.9691  -5.7936  -5.7239  -5.7082  -5.6233  -5.4658
    -5.4353  -5.4232  -5.2440  -5.1625  -5.0601  -5.0462  -4.7957  -4.7498
    -4.6809  -4.6044  -4.5302  -4.3904  -4.3509  -4.0782  -3.8378  -3.7539
    -3.6714  -3.6186  -3.4286  -3.1374  -1.1536  -0.8608  -0.7651  -0.3805
    -0.3218  -0.0877   0.0601   0.0639   0.1387   0.2375   0.3323   0.6162
     0.6450   0.7833   0.8719   1.0690   1.1103   1.2377   1.2696   1.3271
     1.3774   1.3779   1.4771   1.6749   1.6912   1.7518   1.8489   1.9006
     2.0679   2.1776   2.2799   2.3569   2.3892   2.4225   2.4497   2.5017
     2.5256   2.5905   2.6639   2.6930   2.7977   2.8121   2.8289   2.8707
     2.9143   2.9299   2.9577   3.0192   3.0430   3.0511   3.1136   3.1325
     3.1948   3.2659   3.3129   3.4156   3.4175   3.4200   3.4282   3.5959
     3.6004   3.6317   3.6430   3.6812   3.8022   3.8051   3.9378   3.9504
     3.9749   4.0208   4.0530   4.1286   4.1457   4.1975   4.2158   4.2455
     4.2476   4.2527   4.3548   4.3591   4.3854   4.3924   4.3955   4.4311
     4.4709   4.4927   4.4940   4.5126   4.6262   4.6502   4.6908   4.7006
     4.7100   4.8070   4.8219   4.8713   4.8810   4.8996   4.9297   4.9678
     4.9694   5.0441   5.0576   5.0646   5.0833   5.0867   5.1351   5.1733
     5.2875   5.2886   5.3377   5.3463   5.3490   5.3587   5.3677   5.4156
     5.4194   5.4340   5.4883   5.4940   5.5027   5.5384   5.6060   5.6831
     5.7150   5.7339   5.7442   5.7585   5.7937   5.8433   5.8773   5.8897
     5.9671   6.0001   6.0017   6.0610   6.0613   6.1292   6.1344   6.1412
     6.1552   6.1582   6.1727   6.2066   6.2097   6.2439   6.3104   6.3286
     6.3387   6.3529   6.3931   6.4185   6.5059   6.5296   6.5341   6.5918
     6.6151   6.6574   6.6831   6.7295   6.7390   6.7577   6.7651   6.7758
     6.7803   6.8130   6.8397   6.8539   6.8554   6.9155   6.9803   7.0276
     7.0337   7.0399   7.0483   7.0539   7.0987   7.1107   7.1214   7.1219
     7.1476   7.2065   7.2108   7.2300   7.2335   7.2615   7.2891   7.2971
     7.3230   7.3438   7.3648   7.3976   7.4599   7.4787   7.4905   7.5151
     7.5326   7.5555   7.5827   7.5857   7.5950   7.6046   7.6574   7.7482
     7.7490   7.7740   7.7883   7.8135   7.8189   7.8523   7.9241   7.9454
     7.9606   7.9637   7.9998   8.0128   8.0362   8.0408   8.0634   8.0668
     8.1091   8.1292   8.1446   8.1561   8.1829   8.1997   8.2227   8.2542
     8.3134   8.3172   8.3211   8.3297   8.3648   8.3899   8.3968   8.3998
     8.4218   8.4441   8.4670   8.4682   8.4935   8.5003   8.5125   8.5499
     8.5703   8.6051   8.6102   8.6224   8.6493   8.6937   8.6996   8.7267
     8.7410   8.7704   8.7724   8.7964   8.8102   8.8122   8.8343   8.9049
     8.9304   8.9316   8.9369   9.0120   9.0173   9.0870   9.1029   9.1337
     9.1377   9.2048   9.2096   9.2511   9.2727   9.2767   9.2829   9.3049
     9.3392   9.3522   9.3673   9.3837   9.3916   9.3987   9.4382   9.4638
     9.4719   9.4823   9.5079   9.5555   9.5601   9.5769   9.6010   9.6232
     9.6312   9.6401   9.6433   9.6597   9.6850   9.7049   9.7068   9.7308
     9.7461   9.7877   9.7898   9.8122   9.8236   9.8286   9.8865   9.9332
     9.9388   9.9487   9.9900  10.0014  10.0069  10.0284  10.0439  10.0689
    10.1067  10.1364  10.1557  10.1840  10.2068  10.2179  10.2203  10.2387
    10.2932  10.3024  10.3044  10.3488  10.4357  10.4359  10.4750  10.4773
    10.4954  10.5275  10.5442  10.5590  10.6072  10.6118  10.6178  10.6380
    10.6544  10.6858  10.6986  10.7353

     the Fermi energy is    -2.2333 ev

     Writing output data file ANTI14-6-12_2.save/

     init_run     :     17.15s CPU     17.56s WALL (       1 calls)
     electrons    :  10125.27s CPU  10379.96s WALL (       1 calls)

     Called by init_run:
     wfcinit      :      0.00s CPU      0.00s WALL (       1 calls)
     potinit      :      1.17s CPU      1.26s WALL (       1 calls)
     hinit0       :     13.63s CPU     13.78s WALL (       1 calls)

     Called by electrons:
     c_bands      :  10125.26s CPU  10379.82s WALL (       1 calls)
     v_of_rho     :      0.87s CPU      0.91s WALL (       1 calls)
     newd         :      0.88s CPU      1.02s WALL (       1 calls)

     Called by c_bands:
     init_us_2    :      0.50s CPU      1.77s WALL (      26 calls)
     cegterg      :   9937.98s CPU  10177.62s WALL (     119 calls)

     Called by sum_band:

     Called by *egterg:
     h_psi        :   2872.68s CPU   2964.68s WALL (    2221 calls)
     s_psi        :    315.83s CPU    319.69s WALL (    2221 calls)
     g_psi        :     13.76s CPU     14.11s WALL (    2076 calls)
     cdiaghg      :   3883.99s CPU   3947.65s WALL (    2102 calls)

     Called by h_psi:
     h_psi:pot    :   2866.72s CPU   2954.58s WALL (    2221 calls)
     h_psi:calbec :    344.14s CPU    353.47s WALL (    2221 calls)
     vloc_psi     :   2207.19s CPU   2281.10s WALL (    2221 calls)
     add_vuspsi   :    315.35s CPU    319.27s WALL (    2221 calls)

     General routines
     calbec       :    344.11s CPU    352.77s WALL (    2221 calls)
     fft          :      1.05s CPU      1.10s WALL (      14 calls)
     ffts         :      0.02s CPU      0.02s WALL (       1 calls)
     fftw         :   2097.69s CPU   2169.39s WALL (  628998 calls)
     interpolate  :      0.11s CPU      0.12s WALL (       1 calls)
     davcio       :      0.00s CPU      4.89s WALL (      52 calls)

     Parallel routines
     fft_scatt_xy :    163.14s CPU    165.53s WALL (  629013 calls)
     fft_scatt_yz :   1383.40s CPU   1440.57s WALL (  629013 calls)

     PWSCF        :     2h49m CPU       49h 2m WALL

      58h

   This run was terminated on:  20:36:11  22Apr2021            

=------------------------------------------------------------------------------=
   JOB DONE.
=------------------------------------------------------------------------------=
