
     Program PWSCF v.6.3 starts on 22Apr2021 at 17:38:59 

     This program is part of the open-source Quantum ESPRESSO suite
     for quantum simulation of materials; please cite
         "P. Giannozzi et al., J. Phys.:Condens. Matter 21 395502 (2009);
         "P. Giannozzi et al., J. Phys.:Condens. Matter 29 465901 (2017);
          URL http://www.quantum-espresso.org", 
     in publications or presentations arising from this work. More details at
     http://www.quantum-espresso.org/quote

     Parallel version (MPI), running on    16 processors
     R & G space division:  proc/nbgrp/npool/nimage =      16
     Waiting for input...
     Reading input from standard input
     Message from routine read_cards :
     DEPRECATED: no units specified in CELL_PARAMETERS card

     Current dimensions of program PWSCF are:
     Max number of different atomic species (ntypx) = 10
     Max number of k-points (npk) =  40000
     Max angular momentum in pseudopotentials (lmaxx) =  3

     Atomic positions and unit cell read from directory:
     /home/zfwang/scratch/GNRDATASET/AGNR/ANTI14-6-12_1/ANTI14-6-12_1.save/


     Subspace diagonalization in iterative solution of the eigenvalue problem:
     a serial algorithm will be used


     Parallelization info
     --------------------
     sticks:   dense  smooth     PW     G-vecs:    dense   smooth      PW
     Min        2556     852    221               287136    55262    7339
     Max        2558     854    222               287139    55263    7342
     Sum       40909   13645   3551              4594185   884201  117443



     bravais-lattice index     =            0
     lattice parameter (alat)  =       1.8897  a.u.
     unit-cell volume          =   25873.1145 (a.u.)^3
     number of atoms/cell      =           96
     number of atomic types    =            2
     number of electrons       =       312.00
     number of Kohn-Sham states=          500
     kinetic-energy cutoff     =      40.0000  Ry
     charge density cutoff     =     480.0000  Ry
     Exchange-correlation      = PBE ( 1  4  3  4 0 0)

     celldm(1)=  18.897261  celldm(2)=   3.000000  celldm(3)=   1.278000
     celldm(4)=   0.000000  celldm(5)=   0.000000  celldm(6)=   0.000000

     crystal axes: (cart. coord. in units of alat)
               a(1) = (  10.000000   0.000000   0.000000 )  
               a(2) = (   0.000000  30.000000   0.000000 )  
               a(3) = (   0.000000   0.000000  12.780000 )  

     reciprocal axes: (cart. coord. in units 2 pi/alat)
               b(1) = (  0.100000  0.000000  0.000000 )  
               b(2) = (  0.000000  0.033333  0.000000 )  
               b(3) = (  0.000000  0.000000  0.078247 )  


     PseudoPot. # 1 for C  read from file:
     /home/zfwang/hp_home/MySoftware/qe-6.3/pseudo/C.pbe-n-rrkjus_psl.0.1.UPF
     MD5 check sum: fff530ed632a789b3b184014e67dd7f1
     Pseudo is Ultrasoft + core correction, Zval =  4.0
     Generated using "atomic" code by A. Dal Corso v.5.0.2 svn rev. 9415
     Using radial grid of 1073 points,  4 beta functions with: 
                l(1) =   0
                l(2) =   0
                l(3) =   1
                l(4) =   1
     Q(r) pseudized with 0 coefficients 


     PseudoPot. # 2 for H  read from file:
     /home/zfwang/hp_home/MySoftware/qe-6.3/pseudo/H.pbe-rrkjus_psl.0.1.UPF
     MD5 check sum: e164a6907b691c6980f16942be34de84
     Pseudo is Ultrasoft, Zval =  1.0
     Generated using "atomic" code by A. Dal Corso v.5.0.2 svn rev. 9415
     Using radial grid of  929 points,  2 beta functions with: 
                l(1) =   0
                l(2) =   0
     Q(r) pseudized with 0 coefficients 


     atomic species   valence    mass     pseudopotential
        C              4.00    12.01070     C ( 1.00)
        H              1.00     1.00794     H ( 1.00)

     No symmetry found



   Cartesian axes

     site n.     atom                  positions (alat units)
         1           C   tau(   1) = (   4.9999996   6.7480485   2.7796263  )
         2           C   tau(   2) = (   4.9999996   6.6582159   7.0754289  )
         3           C   tau(   3) = (   5.0000015   6.7818562  11.3582711  )
         4           C   tau(   4) = (   4.9999991   7.9401717   3.5324701  )
         5           C   tau(   5) = (   4.9999992   7.8708284   7.8201977  )
         6           C   tau(   6) = (   5.0000018   8.0075688  12.0710013  )
         7           C   tau(   7) = (   5.0000008   6.7818546   1.4217154  )
         8           C   tau(   8) = (   4.9999992   6.6582141   5.7045658  )
         9           C   tau(   9) = (   5.0000006   6.7480468  10.0003888  )
        10           C   tau(  10) = (   4.9999994   9.1971645   2.8296169  )
        11           C   tau(  11) = (   4.9999981   9.0848501   7.1076262  )
        12           C   tau(  12) = (   5.0000017   9.2368586  11.3719409  )
        13           C   tau(  13) = (   4.9999984  10.4202135   3.5369257  )
        14           C   tau(  14) = (   4.9999985  10.3080785   7.8386642  )
        15           C   tau(  15) = (   5.0000018  10.4956538  12.0768411  )
        16           C   tau(  16) = (   5.0000014   8.0075724   0.7090011  )
        17           C   tau(  17) = (   4.9999984   7.8708315   4.9597997  )
        18           C   tau(  18) = (   5.0000002   7.9401717   9.2475222  )
        19           C   tau(  19) = (   5.0000008   9.2368576   1.4080451  )
        20           C   tau(  20) = (   4.9999979   9.0848596   5.6723715  )
        21           C   tau(  21) = (   5.0000008   9.1971627   9.9503907  )
        22           C   tau(  22) = (   4.9999992  11.7014127   2.8272852  )
        23           C   tau(  23) = (   4.9999993  11.4425326   7.0524183  )
        24           C   tau(  24) = (   5.0000017  11.7497278  11.3708192  )
        25           C   tau(  25) = (   5.0000004  12.9845615   3.3968390  )
        26           C   tau(  26) = (   5.0000021  13.0246758  12.0755633  )
        27           C   tau(  27) = (   5.0000014  10.4956504   0.7031579  )
        28           C   tau(  28) = (   4.9999978  10.3080320   4.9413097  )
        29           C   tau(  29) = (   5.0000000  10.4202117   9.2430767  )
        30           C   tau(  30) = (   5.0000011  11.7497393   1.4091614  )
        31           C   tau(  31) = (   4.9999988  11.4426047   5.7275901  )
        32           C   tau(  32) = (   5.0000004  11.7014189   9.9527304  )
        33           C   tau(  33) = (   5.0000050  14.1675315   2.7345442  )
        34           C   tau(  34) = (   5.0000014  14.3136467  11.4194350  )
        35           C   tau(  35) = (   5.0000025  15.6315803  12.0832258  )
        36           C   tau(  36) = (   5.0000018  13.0246596   0.7044463  )
        37           C   tau(  37) = (   4.9999971  12.9845191   9.3831073  )
        38           C   tau(  38) = (   5.0000030  14.3136617   1.3605268  )
        39           C   tau(  39) = (   4.9999967  14.1675820  10.0455206  )
        40           C   tau(  40) = (   4.9999956  17.0986947   2.7401184  )
        41           C   tau(  41) = (   5.0000029  16.9491952  11.4160273  )
        42           C   tau(  42) = (   4.9999951  18.2794853   3.4077062  )
        43           C   tau(  43) = (   5.0000009  18.2347864  12.0731258  )
        44           C   tau(  44) = (   5.0000023  15.6315813   0.6967828  )
        45           C   tau(  45) = (   5.0000009  16.9491830   1.3639416  )
        46           C   tau(  46) = (   5.0000058  17.0986574  10.0399319  )
        47           C   tau(  47) = (   4.9999999  19.5641497   2.8364898  )
        48           C   tau(  48) = (   5.0000001  19.8563700   7.0520820  )
        49           C   tau(  49) = (   4.9999998  19.5060999  11.3626386  )
        50           C   tau(  50) = (   5.0000008  20.8563760   3.5359800  )
        51           C   tau(  51) = (   4.9999971  20.9954010   7.8282938  )
        52           C   tau(  52) = (   4.9999997  20.7555528  12.0730412  )
        53           C   tau(  53) = (   5.0000011  18.2347998   0.7068818  )
        54           C   tau(  54) = (   5.0000005  18.2795188   9.3722552  )
        55           C   tau(  55) = (   5.0000009  19.5060902   1.4173482  )
        56           C   tau(  56) = (   5.0000048  19.8563362   5.7279213  )
        57           C   tau(  57) = (   4.9999981  19.5641475   9.9435244  )
        58           C   tau(  58) = (   5.0000004  22.0589541   2.8217936  )
        59           C   tau(  59) = (   4.9999984  22.2266679   7.1142355  )
        60           C   tau(  60) = (   4.9999988  22.0041346  11.3848830  )
        61           C   tau(  61) = (   5.0000003  23.3049575   3.5194441  )
        62           C   tau(  62) = (   4.9999989  23.4017759   7.8958281  )
        63           C   tau(  63) = (   4.9999987  23.2078057  12.1006258  )
        64           C   tau(  64) = (   5.0000004  20.7555561   0.7069616  )
        65           C   tau(  65) = (   5.0000014  20.9954204   4.9516968  )
        66           C   tau(  66) = (   4.9999970  20.8563747   9.2440164  )
        67           C   tau(  67) = (   5.0000000  22.0041347   1.3951108  )
        68           C   tau(  68) = (   4.9999993  22.2266645   5.6657613  )
        69           C   tau(  69) = (   4.9999980  22.0589579   9.9582148  )
        70           C   tau(  70) = (   4.9999993  23.2078043   0.6793751  )
        71           C   tau(  71) = (   4.9999996  23.4017753   4.8841775  )
        72           C   tau(  72) = (   4.9999987  23.3049573   9.2605479  )
        73           H   tau(  73) = (   4.9999990   5.7846278   3.2829085  )
        74           H   tau(  74) = (   5.0000007   5.6972924   7.5852873  )
        75           H   tau(  75) = (   5.0000014   5.8373879  11.8922323  )
        76           H   tau(  76) = (   5.0000013   5.8373900   0.8877740  )
        77           H   tau(  77) = (   4.9999999   5.6972962   5.1947024  )
        78           H   tau(  78) = (   4.9999999   5.7846233   9.4970929  )
        79           H   tau(  79) = (   5.0000004  24.2349072   2.9596549  )
        80           H   tau(  80) = (   4.9999997  24.3875959   7.4319116  )
        81           H   tau(  81) = (   4.9999981  24.1606825  11.5833480  )
        82           H   tau(  82) = (   4.9999991  24.1606827   1.1966518  )
        83           H   tau(  83) = (   4.9999993  24.3875955   5.3480865  )
        84           H   tau(  84) = (   4.9999995  24.2349100   9.8203447  )
        85           H   tau(  85) = (   5.0000026  12.4148084   7.4378472  )
        86           H   tau(  86) = (   4.9999980  13.2287145   4.4279175  )
        87           H   tau(  87) = (   5.0000019  12.4147757   5.3421613  )
        88           H   tau(  88) = (   5.0000114  14.9795480   3.4195454  )
        89           H   tau(  89) = (   4.9999927  13.2287117   8.3520982  )
        90           H   tau(  90) = (   4.9999892  14.9795489   9.3604560  )
        91           H   tau(  91) = (   4.9999884  16.2866112   3.4252300  )
        92           H   tau(  92) = (   4.9999878  18.0330176   4.4403552  )
        93           H   tau(  93) = (   5.0000139  16.2866127   9.3547663  )
        94           H   tau(  94) = (   5.0000018  18.8892266   7.4506995  )
        95           H   tau(  95) = (   4.9999990  18.0330205   8.3396572  )
        96           H   tau(  96) = (   5.0000132  18.8892395   5.3293072  )

     number of k points=    26  Marzari-Vanderbilt smearing, width (Ry)=  0.0100
                       cart. coord. in units 2pi/alat
        k(    1) = (   0.0000000   0.0000000   0.0000000), wk =   0.0400000
        k(    2) = (   0.0000000   0.0000000   0.0015649), wk =   0.0800000
        k(    3) = (   0.0000000   0.0000000   0.0031299), wk =   0.0800000
        k(    4) = (   0.0000000   0.0000000   0.0046948), wk =   0.0800000
        k(    5) = (   0.0000000   0.0000000   0.0062598), wk =   0.0800000
        k(    6) = (   0.0000000   0.0000000   0.0078247), wk =   0.0800000
        k(    7) = (   0.0000000   0.0000000   0.0093897), wk =   0.0800000
        k(    8) = (   0.0000000   0.0000000   0.0109546), wk =   0.0800000
        k(    9) = (   0.0000000   0.0000000   0.0125196), wk =   0.0800000
        k(   10) = (   0.0000000   0.0000000   0.0140845), wk =   0.0800000
        k(   11) = (   0.0000000   0.0000000   0.0156495), wk =   0.0800000
        k(   12) = (   0.0000000   0.0000000   0.0172144), wk =   0.0800000
        k(   13) = (   0.0000000   0.0000000   0.0187793), wk =   0.0800000
        k(   14) = (   0.0000000   0.0000000   0.0203443), wk =   0.0800000
        k(   15) = (   0.0000000   0.0000000   0.0219092), wk =   0.0800000
        k(   16) = (   0.0000000   0.0000000   0.0234742), wk =   0.0800000
        k(   17) = (   0.0000000   0.0000000   0.0250391), wk =   0.0800000
        k(   18) = (   0.0000000   0.0000000   0.0266041), wk =   0.0800000
        k(   19) = (   0.0000000   0.0000000   0.0281690), wk =   0.0800000
        k(   20) = (   0.0000000   0.0000000   0.0297340), wk =   0.0800000
        k(   21) = (   0.0000000   0.0000000   0.0312989), wk =   0.0800000
        k(   22) = (   0.0000000   0.0000000   0.0328638), wk =   0.0800000
        k(   23) = (   0.0000000   0.0000000   0.0344288), wk =   0.0800000
        k(   24) = (   0.0000000   0.0000000   0.0359937), wk =   0.0800000
        k(   25) = (   0.0000000   0.0000000   0.0375587), wk =   0.0800000
        k(   26) = (   0.0000000   0.0000000  -0.0391236), wk =   0.0400000

     Dense  grid:  4594185 G-vectors     FFT dimensions: ( 135, 400, 180)

     Smooth grid:   884201 G-vectors     FFT dimensions: (  80, 240, 100)

     Estimated max dynamical RAM per process >       1.01 GB

     Estimated total dynamical RAM >      16.10 GB

     The potential is recalculated from file :
     /home/zfwang/scratch/GNRDATASET/AGNR/ANTI14-6-12_1/ANTI14-6-12_1.save/charge-density.dat


     negative rho (up, down):  2.000E-04 0.000E+00
     Starting wfcs are  312 randomized atomic wfcs +  188 random wfcs

     Band Structure Calculation
     Davidson diagonalization with overlap
     c_bands:  1 eigenvalues not converged

     ethr =  3.21E-09,  avg # of iterations = 88.5

     total cpu time spent up to now is    10736.4 secs

     End of band structure calculation

          k = 0.0000 0.0000 0.0000 (110425 PWs)   bands (ev):

   -21.0788 -20.9531 -20.5993 -20.3816 -20.3791 -20.2324 -20.2057 -19.9320
   -19.6207 -19.3931 -19.3592 -19.0366 -18.6540 -18.5795 -18.4981 -18.4311
   -18.3262 -18.2797 -18.1307 -18.0036 -17.7378 -17.6920 -17.3804 -17.0710
   -17.0047 -16.9601 -16.7768 -16.6262 -16.5838 -16.3510 -16.3411 -16.0633
   -15.9357 -15.6684 -15.4643 -15.3165 -14.8636 -14.7598 -14.5053 -14.4576
   -14.3734 -14.2433 -14.2324 -14.0321 -13.9563 -13.9076 -13.7368 -13.7075
   -13.4714 -13.3262 -12.8245 -12.4683 -12.3950 -12.2548 -12.2385 -11.9778
   -11.9393 -11.8593 -11.6946 -11.6872 -11.4892 -11.4553 -11.4024 -11.2265
   -11.0308 -10.9960 -10.9252 -10.5516 -10.5477 -10.3945 -10.3623 -10.2072
    -9.9772  -9.8752  -9.8250  -9.7548  -9.7293  -9.6697  -9.5654  -9.4302
    -9.2719  -9.1771  -9.1667  -9.1391  -9.1149  -8.9960  -8.9532  -8.8582
    -8.8075  -8.7490  -8.6136  -8.5797  -8.5568  -8.4611  -8.3639  -8.3279
    -8.3260  -8.3032  -8.2376  -8.1647  -8.1088  -8.0934  -8.0675  -7.9234
    -7.8713  -7.7871  -7.6741  -7.6395  -7.5050  -7.4146  -7.3750  -7.2824
    -7.2309  -7.2241  -7.1662  -7.1177  -7.1007  -7.0537  -6.9907  -6.9744
    -6.8361  -6.8124  -6.6660  -6.4121  -6.3597  -6.3573  -6.2988  -6.1839
    -6.1815  -6.0806  -5.9895  -5.9701  -5.9399  -5.7454  -5.5461  -5.5126
    -5.5021  -5.2999  -5.2951  -5.2347  -5.2093  -5.1918  -5.0496  -4.8104
    -4.6961  -4.6312  -4.4283  -4.4179  -4.2967  -4.1197  -4.0031  -3.9089
    -3.3877  -3.3166  -3.0651  -2.4625  -1.6611  -1.0802  -0.8174  -0.7987
    -0.2667  -0.2417  -0.0360  -0.0036   0.0908   0.1843   0.4255   0.5263
     0.5723   0.7860   1.0272   1.0293   1.1200   1.3998   1.4307   1.4569
     1.5510   1.6590   1.9006   1.9029   1.9250   1.9500   1.9894   1.9924
     2.0290   2.0875   2.1542   2.1695   2.2548   2.3380   2.4013   2.4165
     2.4258   2.5345   2.5349   2.5398   2.6038   2.6603   2.7527   2.8071
     2.8137   2.9209   3.0114   3.0335   3.0876   3.1151   3.1236   3.1578
     3.2309   3.2950   3.3060   3.4108   3.4609   3.4751   3.4983   3.5534
     3.5995   3.6088   3.6265   3.7733   3.7804   3.8215   3.8288   3.8714
     3.9329   3.9558   4.0074   4.0849   4.1301   4.1378   4.1573   4.1652
     4.2335   4.2541   4.3161   4.3254   4.3440   4.3498   4.3569   4.3625
     4.4434   4.4610   4.4960   4.5339   4.5748   4.6532   4.7096   4.7542
     4.7726   4.7749   4.8037   4.8658   4.9092   4.9259   5.0249   5.0331
     5.0438   5.0838   5.0878   5.0934   5.0955   5.1163   5.1196   5.1355
     5.1616   5.2204   5.2982   5.3088   5.3773   5.4630   5.4699   5.4927
     5.4999   5.5629   5.5893   5.6261   5.6447   5.6467   5.6813   5.7137
     5.7449   5.7465   5.8112   5.8375   5.8631   5.9304   5.9762   5.9769
     6.0274   6.0275   6.0292   6.0413   6.0440   6.0856   6.0901   6.0909
     6.0947   6.1931   6.2192   6.2204   6.2429   6.2458   6.2717   6.2950
     6.3483   6.3702   6.4181   6.4289   6.4318   6.4373   6.4846   6.5206
     6.5376   6.5395   6.5432   6.5762   6.6092   6.6329   6.6696   6.6809
     6.6832   6.7295   6.7649   6.7782   6.8462   6.8570   6.9221   6.9279
     6.9382   6.9555   6.9638   6.9649   7.0129   7.0509   7.0801   7.0823
     7.1638   7.1801   7.1829   7.2091   7.2327   7.2555   7.2869   7.3165
     7.3336   7.3340   7.3685   7.4090   7.4172   7.4371   7.4946   7.5039
     7.5200   7.5278   7.5386   7.5423   7.5799   7.6126   7.6236   7.6755
     7.6903   7.7574   7.7800   7.7988   7.8026   7.8032   7.8079   7.8438
     7.9104   7.9118   7.9444   7.9519   7.9671   7.9722   8.0160   8.0601
     8.0633   8.0638   8.1277   8.1302   8.1399   8.1743   8.1851   8.1880
     8.2434   8.2706   8.2764   8.2857   8.2884   8.3674   8.4168   8.4285
     8.4439   8.4560   8.4860   8.5169   8.5359   8.5588   8.5637   8.5772
     8.6421   8.6605   8.6692   8.7050   8.7183   8.7727   8.7741   8.7766
     8.7881   8.8200   8.8745   8.8828   8.9017   8.9462   8.9486   8.9901
     8.9929   9.0139   9.0425   9.0671   9.0759   9.1207   9.1322   9.1588
     9.1708   9.1722   9.2364   9.2604   9.2666   9.2706   9.3104   9.3260
     9.3382   9.3409   9.3537   9.3813   9.3885   9.4000   9.4174   9.4237
     9.4390   9.4621   9.4901   9.5147   9.5614   9.6127   9.6236   9.6266
     9.7610   9.7676   9.7705   9.7955   9.8158   9.8453   9.8547   9.8717
     9.9139   9.9369   9.9452   9.9735   9.9882  10.0043  10.0090  10.0141
    10.0366  10.0603  10.0634  10.0756  10.0865  10.0924  10.0932  10.1550
    10.1942  10.2020  10.2183  10.2232  10.2563  10.2747  10.2848  10.3114
    10.3390  10.3417  10.3437  10.3522  10.4246  10.4339  10.4388  10.4643
    10.5294  10.5361  10.5785  10.5891  10.5909  10.6268  10.7054  10.7146
    10.7187  10.7529  10.7583  10.7589

          k = 0.0000 0.0000 0.0016 (110415 PWs)   bands (ev):

   -21.0786 -20.9529 -20.6003 -20.3943 -20.3673 -20.2360 -20.1997 -19.9316
   -19.6211 -19.3931 -19.3589 -19.0366 -18.6563 -18.5874 -18.4930 -18.4344
   -18.3256 -18.2768 -18.1273 -18.0024 -17.7375 -17.6913 -17.3803 -17.0736
   -17.0101 -16.9533 -16.7744 -16.6293 -16.5825 -16.3514 -16.3392 -16.0641
   -15.9356 -15.6731 -15.4697 -15.3172 -14.8579 -14.7539 -14.5098 -14.4549
   -14.3728 -14.2624 -14.2135 -14.0334 -13.9584 -13.9017 -13.7422 -13.7035
   -13.4709 -13.3256 -12.8265 -12.4677 -12.3954 -12.2664 -12.2288 -11.9780
   -11.9411 -11.8576 -11.7156 -11.6729 -11.4958 -11.4469 -11.3996 -11.2255
   -11.0494 -10.9770 -10.9241 -10.5525 -10.5444 -10.3970 -10.3625 -10.2047
    -9.9767  -9.8834  -9.8304  -9.7534  -9.7240  -9.6707  -9.5575  -9.4302
    -9.2777  -9.1890  -9.1588  -9.1389  -9.1057  -8.9958  -8.9521  -8.8571
    -8.8095  -8.7484  -8.6147  -8.5806  -8.5545  -8.4622  -8.3643  -8.3361
    -8.3272  -8.2947  -8.2370  -8.1660  -8.1082  -8.0890  -8.0681  -7.9255
    -7.8689  -7.7866  -7.6750  -7.6393  -7.5083  -7.4151  -7.3757  -7.2878
    -7.2317  -7.2303  -7.1726  -7.1218  -7.1008  -7.0404  -6.9933  -6.9650
    -6.8317  -6.8122  -6.6657  -6.4134  -6.3603  -6.3574  -6.3052  -6.1821
    -6.1808  -6.0860  -5.9937  -5.9612  -5.9390  -5.7418  -5.5477  -5.5086
    -5.5019  -5.3033  -5.2947  -5.2348  -5.2124  -5.1868  -5.0494  -4.8105
    -4.7000  -4.6287  -4.4270  -4.4191  -4.2959  -4.1196  -4.0019  -3.9090
    -3.3893  -3.3169  -3.0669  -2.4651  -1.6589  -1.0785  -0.8179  -0.7962
    -0.2737  -0.2354  -0.0359  -0.0037   0.0904   0.1847   0.4240   0.5274
     0.5752   0.7860   1.0261   1.0296   1.1204   1.3985   1.4308   1.4547
     1.5512   1.6574   1.8696   1.9171   1.9414   1.9514   1.9572   2.0252
     2.0257   2.0882   2.1547   2.1692   2.2546   2.3372   2.3829   2.4178
     2.4404   2.5323   2.5374   2.5433   2.6045   2.6630   2.7482   2.8054
     2.8197   2.9183   3.0098   3.0348   3.0855   3.1056   3.1265   3.1743
     3.2276   3.2878   3.3086   3.4189   3.4474   3.4904   3.4987   3.5427
     3.5759   3.6283   3.6413   3.7439   3.8085   3.8255   3.8301   3.8709
     3.9142   3.9747   4.0070   4.0853   4.1146   4.1351   4.1654   4.1722
     4.2332   4.2501   4.3140   4.3314   4.3334   4.3482   4.3526   4.3570
     4.4315   4.4597   4.5189   4.5416   4.5845   4.6543   4.6977   4.7535
     4.7608   4.7865   4.8092   4.8419   4.9249   4.9260   5.0184   5.0240
     5.0307   5.0748   5.0789   5.1001   5.1016   5.1181   5.1396   5.1399
     5.1792   5.2215   5.2991   5.3191   5.3663   5.4429   5.4765   5.4905
     5.5017   5.5629   5.5861   5.6283   5.6463   5.6517   5.6591   5.7285
     5.7424   5.7668   5.8087   5.8378   5.8646   5.9118   5.9557   5.9953
     6.0070   6.0265   6.0321   6.0350   6.0420   6.0732   6.0992   6.1186
     6.1191   6.1778   6.2133   6.2264   6.2362   6.2570   6.2709   6.3033
     6.3351   6.3582   6.3996   6.4184   6.4380   6.4518   6.5054   6.5091
     6.5268   6.5437   6.5552   6.5762   6.6147   6.6335   6.6676   6.6760
     6.7004   6.7280   6.7694   6.7757   6.8332   6.8560   6.9174   6.9175
     6.9452   6.9630   6.9644   6.9906   7.0138   7.0276   7.0712   7.1069
     7.1563   7.1722   7.1887   7.2150   7.2438   7.2515   7.2955   7.3162
     7.3261   7.3334   7.3474   7.4014   7.4344   7.4464   7.4762   7.4993
     7.5019   7.5245   7.5305   7.5544   7.5876   7.6326   7.6452   7.6662
     7.6706   7.7704   7.7797   7.7832   7.7993   7.8103   7.8170   7.8441
     7.9071   7.9189   7.9363   7.9404   7.9853   7.9858   8.0087   8.0614
     8.0617   8.0770   8.1100   8.1300   8.1328   8.1748   8.1772   8.2165
     8.2390   8.2581   8.2652   8.3059   8.3070   8.3653   8.4112   8.4231
     8.4403   8.4497   8.4836   8.5196   8.5333   8.5508   8.5668   8.5889
     8.6390   8.6441   8.6708   8.6859   8.7227   8.7675   8.7680   8.7951
     8.8075   8.8268   8.8686   8.8914   8.9061   8.9394   8.9521   8.9819
     8.9914   9.0193   9.0304   9.0663   9.0922   9.1213   9.1237   9.1609
     9.1708   9.1804   9.2375   9.2430   9.2478   9.2869   9.3056   9.3166
     9.3284   9.3304   9.3536   9.3551   9.3819   9.3984   9.4131   9.4513
     9.4756   9.4823   9.5046   9.5179   9.5322   9.6103   9.6292   9.6566
     9.7281   9.7620   9.7860   9.7861   9.8115   9.8366   9.8542   9.8819
     9.9069   9.9304   9.9341   9.9815   9.9979  10.0029  10.0067  10.0269
    10.0348  10.0357  10.0527  10.0551  10.0784  10.0915  10.1383  10.1636
    10.1960  10.1972  10.2089  10.2226  10.2449  10.2658  10.3077  10.3232
    10.3310  10.3360  10.3544  10.3576  10.4334  10.4341  10.4445  10.4703
    10.5300  10.5351  10.5742  10.5876  10.5974  10.6219  10.6640  10.6929
    10.7452  10.7500  10.7579  10.7595

          k = 0.0000 0.0000 0.0031 (110415 PWs)   bands (ev):

   -21.0779 -20.9524 -20.6033 -20.4083 -20.3568 -20.2408 -20.1871 -19.9304
   -19.6220 -19.3930 -19.3580 -19.0365 -18.6652 -18.6032 -18.4860 -18.4412
   -18.3238 -18.2682 -18.1179 -17.9986 -17.7361 -17.6893 -17.3798 -17.0808
   -17.0211 -16.9387 -16.7672 -16.6376 -16.5796 -16.3523 -16.3339 -16.0666
   -15.9353 -15.6869 -15.4854 -15.3192 -14.8413 -14.7368 -14.5205 -14.4494
   -14.3717 -14.2847 -14.1910 -14.0373 -13.9620 -13.8871 -13.7539 -13.6959
   -13.4695 -13.3236 -12.8324 -12.4661 -12.3965 -12.2846 -12.2162 -11.9794
   -11.9455 -11.8535 -11.7424 -11.6670 -11.5019 -11.4363 -11.3893 -11.2226
   -11.0772 -10.9499 -10.9191 -10.5552 -10.5348 -10.4039 -10.3621 -10.1984
    -9.9751  -9.9034  -9.8418  -9.7547  -9.7210  -9.6601  -9.5381  -9.4301
    -9.2935  -9.2032  -9.1525  -9.1381  -9.0837  -8.9952  -8.9486  -8.8538
    -8.8148  -8.7473  -8.6173  -8.5832  -8.5485  -8.4654  -8.3652  -8.3532
    -8.3256  -8.2835  -8.2350  -8.1674  -8.1063  -8.0777  -8.0700  -7.9308
    -7.8629  -7.7851  -7.6777  -7.6388  -7.5176  -7.4166  -7.3781  -7.3046
    -7.2485  -7.2288  -7.1936  -7.1219  -7.1011  -7.0191  -6.9916  -6.9425
    -6.8191  -6.8116  -6.6651  -6.4167  -6.3629  -6.3581  -6.3221  -6.1786
    -6.1777  -6.1001  -6.0013  -5.9412  -5.9364  -5.7322  -5.5506  -5.5013
    -5.4983  -5.3125  -5.2938  -5.2391  -5.2132  -5.1776  -5.0490  -4.8110
    -4.7102  -4.6229  -4.4234  -4.4224  -4.2934  -4.1193  -3.9981  -3.9093
    -3.3941  -3.3178  -3.0724  -2.4728  -1.6523  -1.0734  -0.8188  -0.7892
    -0.2867  -0.2242  -0.0355  -0.0039   0.0892   0.1856   0.4200   0.5306
     0.5834   0.7861   1.0226   1.0307   1.1214   1.3948   1.4313   1.4481
     1.5521   1.6525   1.8367   1.9155   1.9239   1.9556   1.9748   2.0171
     2.0594   2.0907   2.1555   2.1684   2.2541   2.3350   2.3595   2.4090
     2.4663   2.5291   2.5453   2.5491   2.6065   2.6713   2.7381   2.8002
     2.8339   2.9120   3.0057   3.0328   3.0752   3.1053   3.1342   3.2042
     3.2187   3.2702   3.3150   3.4322   3.4389   3.4996   3.5063   3.5177
     3.5591   3.6405   3.6765   3.7116   3.8232   3.8369   3.8459   3.8689
     3.8903   4.0007   4.0060   4.0867   4.0949   4.1218   4.1659   4.1958
     4.2315   4.2432   4.2989   4.3144   4.3201   4.3383   4.3487   4.3645
     4.4211   4.4672   4.5496   4.5571   4.6122   4.6582   4.6791   4.7382
     4.7426   4.8018   4.8120   4.8180   4.9292   4.9345   4.9661   5.0111
     5.0432   5.0643   5.0798   5.1069   5.1073   5.1163   5.1525   5.1654
     5.2114   5.2404   5.3012   5.3336   5.3506   5.4198   5.4673   5.4707
     5.5117   5.5610   5.5786   5.6089   5.6358   5.6666   5.6828   5.7306
     5.7446   5.7989   5.8029   5.8390   5.8584   5.8883   5.9476   5.9620
     6.0005   6.0127   6.0188   6.0423   6.0430   6.0831   6.1184   6.1469
     6.1581   6.1674   6.2066   6.2126   6.2451   6.2491   6.2808   6.3117
     6.3172   6.3378   6.3623   6.4085   6.4426   6.4875   6.4884   6.5201
     6.5231   6.5567   6.5602   6.5801   6.6134   6.6466   6.6681   6.6759
     6.7245   6.7337   6.7600   6.7804   6.8151   6.8551   6.8984   6.9220
     6.9473   6.9662   6.9867   6.9961   7.0175   7.0263   7.0777   7.1168
     7.1490   7.1609   7.1884   7.2276   7.2558   7.2656   7.2980   7.3036
     7.3194   7.3265   7.3343   7.3915   7.4237   7.4529   7.4558   7.4849
     7.4983   7.5079   7.5312   7.5626   7.6228   7.6353   7.6436   7.6605
     7.6909   7.7549   7.7711   7.7974   7.8011   7.8125   7.8221   7.8512
     7.8961   7.9268   7.9273   7.9548   7.9914   8.0085   8.0105   8.0547
     8.0694   8.0761   8.1012   8.1218   8.1298   8.1750   8.1846   8.2128
     8.2362   8.2549   8.2893   8.3237   8.3306   8.3602   8.3936   8.4059
     8.4377   8.4410   8.4818   8.5208   8.5267   8.5289   8.5684   8.6151
     8.6187   8.6302   8.6424   8.7020   8.7136   8.7584   8.7588   8.8101
     8.8476   8.8486   8.8640   8.9078   8.9113   8.9225   8.9486   8.9772
     8.9955   9.0130   9.0386   9.0644   9.0794   9.1231   9.1423   9.1563
     9.1706   9.1784   9.2102   9.2270   9.2476   9.2606   9.2983   9.2987
     9.3159   9.3248   9.3527   9.3638   9.3846   9.3958   9.4057   9.4556
     9.4807   9.5230   9.5259   9.5331   9.5679   9.6060   9.6334   9.6811
     9.7077   9.7551   9.7622   9.7640   9.8190   9.8250   9.8478   9.8657
     9.9005   9.9117   9.9381   9.9781   9.9861   9.9972  10.0066  10.0127
    10.0345  10.0406  10.0471  10.0477  10.0697  10.1092  10.1671  10.1747
    10.1771  10.1873  10.1993  10.2303  10.2469  10.2803  10.2957  10.3161
    10.3323  10.3405  10.3630  10.4031  10.4441  10.4538  10.4560  10.4821
    10.5300  10.5330  10.5695  10.5697  10.5942  10.6092  10.6453  10.6679
    10.7176  10.7197  10.7534  10.7616

          k = 0.0000 0.0000 0.0047 (110415 PWs)   bands (ev):

   -21.0768 -20.9516 -20.6082 -20.4221 -20.3503 -20.2415 -20.1721 -19.9283
   -19.6236 -19.3928 -19.3564 -19.0364 -18.6841 -18.6157 -18.4917 -18.4422
   -18.3211 -18.2548 -18.1044 -17.9923 -17.7330 -17.6864 -17.3789 -17.0918
   -17.0327 -16.9217 -16.7555 -16.6494 -16.5765 -16.3536 -16.3258 -16.0709
   -15.9349 -15.7084 -15.5098 -15.3228 -14.8150 -14.7099 -14.5340 -14.4448
   -14.3727 -14.3020 -14.1697 -14.0433 -13.9643 -13.8674 -13.7676 -13.6883
   -13.4674 -13.3201 -12.8419 -12.4646 -12.3979 -12.3043 -12.2060 -11.9841
   -11.9495 -11.8488 -11.7687 -11.6750 -11.4985 -11.4318 -11.3708 -11.2176
   -11.1034 -10.9335 -10.9022 -10.5598 -10.5209 -10.4123 -10.3605 -10.1920
    -9.9730  -9.9263  -9.8564  -9.7616  -9.7286  -9.6306  -9.5133  -9.4302
    -9.3157  -9.2149  -9.1473  -9.1369  -9.0579  -8.9942  -8.9422  -8.8486
    -8.8219  -8.7468  -8.6199  -8.5877  -8.5401  -8.4702  -8.3710  -8.3665
    -8.3238  -8.2774  -8.2319  -8.1642  -8.1029  -8.0732  -8.0621  -7.9374
    -7.8551  -7.7826  -7.6820  -7.6385  -7.5323  -7.4191  -7.3834  -7.3324
    -7.2672  -7.2263  -7.2216  -7.1160  -7.1016  -7.0186  -6.9665  -6.9126
    -6.8107  -6.7998  -6.6642  -6.4213  -6.3715  -6.3598  -6.3422  -6.1748
    -6.1727  -6.1204  -6.0091  -5.9323  -5.9158  -5.7193  -5.5518  -5.5002
    -5.4838  -5.3254  -5.2922  -5.2491  -5.2083  -5.1676  -5.0480  -4.8116
    -4.7239  -4.6160  -4.4278  -4.4179  -4.2891  -4.1188  -3.9920  -3.9095
    -3.4019  -3.3192  -3.0815  -2.4853  -1.6417  -1.0650  -0.8194  -0.7785
    -0.3010  -0.2135  -0.0347  -0.0040   0.0875   0.1868   0.4144   0.5361
     0.5958   0.7861   1.0170   1.0324   1.1232   1.3886   1.4321   1.4374
     1.5535   1.6440   1.8042   1.8908   1.9122   1.9621   2.0050   2.0091
     2.0872   2.1013   2.1549   2.1670   2.2527   2.3315   2.3385   2.3963
     2.4917   2.5269   2.5556   2.5571   2.6096   2.6848   2.7273   2.7913
     2.8511   2.9049   3.0011   3.0169   3.0708   3.1179   3.1452   3.2061
     3.2371   3.2487   3.3228   3.4212   3.4649   3.4875   3.5013   3.5020
     3.5670   3.6527   3.6801   3.7142   3.8201   3.8539   3.8563   3.8647
     3.8898   4.0052   4.0243   4.0785   4.0890   4.1025   4.1658   4.2101
     4.2252   4.2465   4.2702   4.2804   4.2942   4.3285   4.3598   4.3901
     4.4172   4.4799   4.5600   4.5802   4.6389   4.6665   4.6788   4.7128
     4.7180   4.7789   4.8048   4.8472   4.9053   4.9312   4.9375   5.0019
     5.0422   5.0675   5.0736   5.1100   5.1101   5.1443   5.1705   5.1709
     5.2449   5.2730   5.2909   5.3282   5.3819   5.3983   5.4372   5.4508
     5.5111   5.5447   5.5742   5.5949   5.6476   5.6773   5.7130   5.7156
     5.7572   5.7996   5.7998   5.8376   5.8434   5.9102   5.9171   5.9415
     5.9855   5.9963   6.0086   6.0356   6.0546   6.0958   6.1450   6.1540
     6.1695   6.1889   6.2066   6.2081   6.2184   6.2722   6.2760   6.2920
     6.2932   6.3396   6.3588   6.3905   6.4461   6.4744   6.5206   6.5213
     6.5296   6.5542   6.5659   6.5866   6.6073   6.6646   6.6731   6.6815
     6.7259   6.7407   6.7575   6.7992   6.8213   6.8565   6.8688   6.9300
     6.9323   6.9696   6.9921   7.0198   7.0206   7.0430   7.0893   7.1117
     7.1518   7.1648   7.1840   7.2242   7.2638   7.2716   7.2804   7.2888
     7.3161   7.3395   7.3524   7.3701   7.3875   7.4428   7.4487   7.4619
     7.4945   7.5136   7.5559   7.5568   7.6101   7.6284   7.6531   7.6868
     7.7246   7.7390   7.7548   7.8012   7.8118   7.8139   7.8279   7.8693
     7.8833   7.9244   7.9349   7.9745   7.9936   8.0139   8.0321   8.0506
     8.0566   8.0804   8.0889   8.1308   8.1454   8.1716   8.1792   8.2113
     8.2176   8.2898   8.3152   8.3271   8.3427   8.3520   8.3767   8.3945
     8.4371   8.4392   8.4806   8.4992   8.5058   8.5266   8.5594   8.5828
     8.6271   8.6351   8.6531   8.7016   8.7018   8.7448   8.7612   8.8105
     8.8593   8.8705   8.8769   8.8978   8.9199   8.9350   8.9387   8.9885
     9.0024   9.0226   9.0333   9.0622   9.0647   9.1083   9.1261   9.1578
     9.1702   9.1777   9.2077   9.2143   9.2193   9.2434   9.2957   9.3012
     9.3141   9.3229   9.3488   9.3792   9.3873   9.3914   9.4003   9.4516
     9.4652   9.5353   9.5575   9.5754   9.6014   9.6245   9.6355   9.6611
     9.7163   9.7333   9.7350   9.7746   9.7930   9.8337   9.8393   9.8399
     9.8671   9.8896   9.9293   9.9672   9.9751   9.9814   9.9867  10.0096
    10.0248  10.0494  10.0613  10.0645  10.0897  10.1164  10.1475  10.1598
    10.1743  10.1893  10.2140  10.2485  10.2584  10.2669  10.2902  10.3336
    10.3343  10.3383  10.3777  10.4415  10.4616  10.4733  10.4792  10.4990
    10.5194  10.5287  10.5436  10.5630  10.5695  10.6052  10.6486  10.6542
    10.6786  10.6899  10.7400  10.7482

          k = 0.0000 0.0000 0.0063 (110399 PWs)   bands (ev):

   -21.0753 -20.9505 -20.6149 -20.4353 -20.3488 -20.2360 -20.1561 -19.9253
   -19.6257 -19.3928 -19.3540 -19.0363 -18.7127 -18.6220 -18.5115 -18.4364
   -18.3175 -18.2378 -18.0890 -17.9829 -17.7273 -17.6830 -17.3775 -17.1052
   -17.0441 -16.9043 -16.7399 -16.6636 -16.5737 -16.3553 -16.3153 -16.0771
   -15.9344 -15.7359 -15.5408 -15.3280 -14.7803 -14.6752 -14.5486 -14.4427
   -14.3810 -14.3087 -14.1499 -14.0509 -13.9647 -13.8451 -13.7812 -13.6818
   -13.4651 -13.3152 -12.8545 -12.4645 -12.3992 -12.3245 -12.1996 -11.9949
   -11.9499 -11.8466 -11.7914 -11.6926 -11.4888 -11.4298 -11.3488 -11.2110
   -11.1253 -10.9278 -10.8761 -10.5666 -10.5061 -10.4161 -10.3582 -10.1891
    -9.9711  -9.9460  -9.8732  -9.7745  -9.7357  -9.5950  -9.4863  -9.4304
    -9.3399  -9.2251  -9.1413  -9.1352  -9.0342  -8.9928  -8.9318  -8.8439
    -8.8273  -8.7480  -8.6216  -8.5939  -8.5302  -8.4760  -8.3884  -8.3678
    -8.3226  -8.2783  -8.2282  -8.1541  -8.0982  -8.0773  -8.0444  -7.9441
    -7.8468  -7.7789  -7.6880  -7.6391  -7.5510  -7.4223  -7.3938  -7.3670
    -7.2862  -7.2488  -7.2230  -7.1080  -7.1022  -7.0271  -6.9327  -6.8783
    -6.8095  -6.7756  -6.6635  -6.4263  -6.3951  -6.3633  -6.3533  -6.1700
    -6.1690  -6.1429  -6.0154  -5.9269  -5.8880  -5.7065  -5.5495  -5.4988
    -5.4657  -5.3407  -5.2903  -5.2620  -5.2014  -5.1576  -5.0465  -4.8126
    -4.7393  -4.6092  -4.4351  -4.4115  -4.2831  -4.1178  -3.9840  -3.9097
    -3.4126  -3.3214  -3.0939  -2.5023  -1.6273  -1.0538  -0.8194  -0.7645
    -0.3155  -0.2047  -0.0332  -0.0034   0.0857   0.1876   0.4082   0.5439
     0.6111   0.7862   1.0092   1.0348   1.1257   1.3800   1.4233   1.4331
     1.5555   1.6312   1.7722   1.8588   1.9070   1.9700   1.9924   2.0424
     2.0958   2.1317   2.1518   2.1660   2.2501   2.3216   2.3268   2.3823
     2.5135   2.5258   2.5625   2.5734   2.6135   2.7031   2.7176   2.7788
     2.8687   2.8989   2.9928   2.9981   3.0716   3.1378   3.1579   3.1914
     3.2259   3.2719   3.3294   3.4141   3.4600   3.4813   3.4923   3.5045
     3.5923   3.6497   3.6646   3.7533   3.8061   3.8479   3.8564   3.8748
     3.9196   4.0061   4.0413   4.0658   4.0813   4.0921   4.1630   4.2062
     4.2089   4.2356   4.2440   4.2683   4.2780   4.3276   4.3707   4.4163
     4.4221   4.4860   4.5715   4.5803   4.6417   4.6731   4.6866   4.6964
     4.7166   4.7648   4.7903   4.8464   4.8828   4.9211   4.9458   4.9837
     5.0365   5.0521   5.0902   5.1173   5.1213   5.1633   5.1776   5.1920
     5.2498   5.2870   5.3003   5.3623   5.3779   5.4047   5.4156   5.4204
     5.4963   5.5328   5.5775   5.5945   5.6635   5.6722   5.6921   5.7182
     5.7631   5.8051   5.8071   5.8342   5.8502   5.8750   5.9280   5.9364
     5.9602   5.9763   6.0112   6.0338   6.0683   6.1061   6.1481   6.1519
     6.1736   6.1799   6.1981   6.2039   6.2309   6.2536   6.2631   6.2894
     6.3159   6.3336   6.3732   6.3875   6.4419   6.4752   6.5184   6.5194
     6.5457   6.5530   6.5770   6.5913   6.6041   6.6558   6.6802   6.6825
     6.7323   6.7526   6.7746   6.8258   6.8383   6.8394   6.8600   6.9186
     6.9406   6.9722   7.0010   7.0197   7.0242   7.0694   7.1010   7.1059
     7.1470   7.1780   7.2001   7.2139   7.2298   7.2541   7.2769   7.3016
     7.3079   7.3215   7.3603   7.3803   7.3974   7.4179   7.4240   7.4502
     7.4992   7.5153   7.5412   7.5854   7.5895   7.6293   7.6685   7.7086
     7.7205   7.7413   7.7466   7.8081   7.8157   7.8232   7.8507   7.8624
     7.8963   7.9288   7.9380   7.9792   7.9911   8.0254   8.0255   8.0532
     8.0723   8.0793   8.0992   8.1334   8.1579   8.1625   8.1678   8.2034
     8.2427   8.2986   8.3061   8.3242   8.3470   8.3601   8.3751   8.4017
     8.4347   8.4429   8.4618   8.4831   8.4850   8.5316   8.5487   8.5616
     8.6299   8.6324   8.6830   8.6844   8.6940   8.7279   8.7798   8.7972
     8.8319   8.8593   8.8876   8.9079   8.9252   8.9572   8.9578   8.9707
     9.0122   9.0168   9.0478   9.0619   9.0621   9.0715   9.1302   9.1499
     9.1695   9.1883   9.1916   9.2000   9.2121   9.2441   9.2952   9.3024
     9.3145   9.3232   9.3406   9.3720   9.3879   9.4002   9.4146   9.4436
     9.4759   9.5423   9.5704   9.5862   9.5943   9.6338   9.6391   9.6802
     9.6962   9.7079   9.7533   9.7602   9.7862   9.8210   9.8332   9.8352
     9.8410   9.8571   9.9006   9.9483   9.9599   9.9673   9.9777  10.0025
    10.0215  10.0520  10.0683  10.0875  10.1144  10.1173  10.1351  10.1518
    10.1778  10.1945  10.2303  10.2321  10.2706  10.2761  10.2940  10.3301
    10.3407  10.3589  10.3994  10.4481  10.4598  10.4740  10.4967  10.5044
    10.5195  10.5220  10.5428  10.5575  10.5712  10.6046  10.6335  10.6380
    10.6669  10.6694  10.7236  10.7548

          k = 0.0000 0.0000 0.0078 (110397 PWs)   bands (ev):

   -21.0734 -20.9490 -20.6234 -20.4479 -20.3518 -20.2248 -20.1396 -19.9213
   -19.6282 -19.3930 -19.3509 -19.0363 -18.7467 -18.6246 -18.5383 -18.4296
   -18.3132 -18.2192 -18.0736 -17.9702 -17.7185 -17.6794 -17.3753 -17.1196
   -17.0552 -16.8872 -16.7209 -16.6795 -16.5714 -16.3573 -16.3030 -16.0856
   -15.9342 -15.7676 -15.5765 -15.3350 -14.7389 -14.6347 -14.5634 -14.4437
   -14.3970 -14.3037 -14.1315 -14.0594 -13.9639 -13.8244 -13.7907 -13.6764
   -13.4630 -13.3087 -12.8696 -12.4677 -12.3997 -12.3444 -12.1982 -12.0112
   -11.9468 -11.8507 -11.8087 -11.7117 -11.4811 -11.4240 -11.3264 -11.2038
   -11.1404 -10.9245 -10.8508 -10.5767 -10.4944 -10.4089 -10.3563 -10.1918
    -9.9703  -9.9622  -9.8880  -9.7911  -9.7394  -9.5612  -9.4586  -9.4301
    -9.3626  -9.2339  -9.1335  -9.1330  -9.0161  -8.9910  -8.9166  -8.8471
    -8.8223  -8.7513  -8.6219  -8.6019  -8.5196  -8.4822  -8.4050  -8.3690
    -8.3225  -8.2847  -8.2244  -8.1380  -8.0947  -8.0794  -8.0255  -7.9503
    -7.8389  -7.7741  -7.6958  -7.6419  -7.5714  -7.4261  -7.4145  -7.4014
    -7.3063  -7.2702  -7.2191  -7.1029  -7.0998  -7.0366  -6.8987  -6.8419
    -6.8082  -6.7477  -6.6633  -6.4309  -6.4296  -6.3687  -6.3578  -6.1841
    -6.1613  -6.1522  -6.0199  -5.9206  -5.8601  -5.6964  -5.5420  -5.4970
    -5.4445  -5.3577  -5.2880  -5.2763  -5.1943  -5.1478  -5.0441  -4.8137
    -4.7554  -4.6030  -4.4440  -4.4050  -4.2755  -4.1164  -3.9747  -3.9092
    -3.4259  -3.3242  -3.1093  -2.5233  -1.6098  -1.0401  -0.8185  -0.7472
    -0.3300  -0.1987  -0.0312  -0.0011   0.0842   0.1877   0.4024   0.5539
     0.6283   0.7863   0.9994   1.0379   1.1288   1.3688   1.4066   1.4345
     1.5581   1.6136   1.7408   1.8274   1.9006   1.9730   1.9866   2.0701
     2.1066   2.1454   2.1505   2.1788   2.2460   2.3100   2.3211   2.3684
     2.5258   2.5294   2.5699   2.5957   2.6178   2.7098   2.7249   2.7638
     2.8845   2.8941   2.9679   2.9986   3.0724   3.1616   3.1696   3.1768
     3.2054   3.3073   3.3334   3.4027   3.4445   3.4576   3.5032   3.5252
     3.6216   3.6223   3.6763   3.7828   3.7933   3.8444   3.8460   3.8953
     3.9518   4.0107   4.0437   4.0514   4.0662   4.0963   4.1554   4.1763
     4.1970   4.2089   4.2191   4.2750   4.2952   4.3285   4.3831   4.4167
     4.4571   4.4798   4.5521   4.5982   4.6312   4.6552   4.6605   4.7168
     4.7488   4.7613   4.7725   4.7999   4.9098   4.9213   4.9463   4.9635
     5.0301   5.0398   5.0951   5.1373   5.1374   5.1559   5.1779   5.2160
     5.2605   5.2961   5.3283   5.3491   5.3722   5.3849   5.4128   5.4483
     5.4801   5.5376   5.5834   5.5973   5.6492   5.6693   5.6713   5.6822
     5.7946   5.8141   5.8251   5.8370   5.8442   5.8573   5.9171   5.9195
     5.9261   5.9834   6.0156   6.0474   6.0760   6.1145   6.1145   6.1294
     6.1725   6.1848   6.1941   6.1965   6.2086   6.2539   6.2725   6.2936
     6.3199   6.3686   6.3843   6.3992   6.4374   6.4836   6.5071   6.5208
     6.5380   6.5543   6.5858   6.5878   6.6090   6.6470   6.6816   6.6953
     6.7469   6.7671   6.7722   6.8219   6.8530   6.8679   6.8728   6.9129
     6.9564   6.9743   6.9928   7.0092   7.0295   7.0964   7.1027   7.1219
     7.1461   7.1716   7.1957   7.2026   7.2180   7.2370   7.2693   7.2947
     7.3047   7.3134   7.3609   7.3720   7.3993   7.4173   7.4386   7.4446
     7.4869   7.5171   7.5330   7.5776   7.6119   7.6309   7.6683   7.7003
     7.7311   7.7456   7.7538   7.8084   7.8202   7.8281   7.8560   7.8972
     7.9085   7.9301   7.9419   7.9671   7.9957   8.0132   8.0391   8.0531
     8.0750   8.0945   8.1309   8.1342   8.1430   8.1561   8.1851   8.1896
     8.2670   8.2771   8.2841   8.3256   8.3628   8.3706   8.3773   8.3978
     8.4308   8.4465   8.4525   8.4597   8.4947   8.5413   8.5433   8.5519
     8.6227   8.6409   8.6632   8.6727   8.7023   8.7284   8.7651   8.8019
     8.8122   8.8355   8.8627   8.9158   8.9256   8.9358   8.9740   8.9829
     9.0052   9.0243   9.0331   9.0668   9.0792   9.0994   9.1354   9.1528
     9.1676   9.1679   9.1816   9.1954   9.2173   9.2495   9.2837   9.3067
     9.3150   9.3287   9.3289   9.3722   9.3898   9.4136   9.4306   9.4426
     9.4940   9.5385   9.5452   9.5783   9.5885   9.6284   9.6394   9.6706
     9.6899   9.7050   9.7267   9.7603   9.7904   9.8053   9.8077   9.8315
     9.8432   9.8653   9.8952   9.9100   9.9329   9.9544   9.9744   9.9784
    10.0282  10.0454  10.0557  10.0914  10.1225  10.1353  10.1524  10.1705
    10.1801  10.2006  10.2187  10.2464  10.2700  10.2891  10.2941  10.3395
    10.3423  10.3766  10.4086  10.4286  10.4426  10.4790  10.4828  10.4969
    10.5089  10.5257  10.5584  10.5608  10.5725  10.6132  10.6290  10.6432
    10.6647  10.6846  10.7075  10.7495

          k = 0.0000 0.0000 0.0094 (110397 PWs)   bands (ev):

   -21.0711 -20.9473 -20.6333 -20.4599 -20.3576 -20.2096 -20.1230 -19.9162
   -19.6310 -19.3935 -19.3471 -19.0365 -18.7834 -18.6255 -18.5684 -18.4238
   -18.3083 -18.2008 -18.0601 -17.9534 -17.7067 -17.6751 -17.3723 -17.1343
   -17.0662 -16.8708 -16.6994 -16.6965 -16.5695 -16.3598 -16.2895 -16.0966
   -15.9345 -15.8015 -15.6150 -15.3437 -14.6922 -14.5933 -14.5753 -14.4483
   -14.4144 -14.2919 -14.1145 -14.0680 -13.9631 -13.8201 -13.7807 -13.6719
   -13.4615 -13.3007 -12.8867 -12.4754 -12.3992 -12.3635 -12.2035 -12.0300
   -11.9413 -11.8611 -11.8244 -11.7241 -11.4809 -11.4119 -11.3050 -11.1975
   -11.1456 -10.9218 -10.8300 -10.5910 -10.4847 -10.3899 -10.3560 -10.1992
    -9.9821  -9.9689  -9.8943  -9.8088  -9.7412  -9.5354  -9.4362  -9.4222
    -9.3805  -9.2407  -9.1304  -9.1238  -9.0046  -8.9889  -8.8978  -8.8554
    -8.8088  -8.7565  -8.6209  -8.6115  -8.5087  -8.4882  -8.4208  -8.3699
    -8.3237  -8.2942  -8.2212  -8.1179  -8.0987  -8.0731  -8.0061  -7.9556
    -7.8324  -7.7679  -7.7060  -7.6494  -7.5896  -7.4502  -7.4303  -7.4295
    -7.3274  -7.2839  -7.2147  -7.1036  -7.0937  -7.0445  -6.8664  -6.8069
    -6.8046  -6.7172  -6.6639  -6.4682  -6.4341  -6.3759  -6.3608  -6.2138
    -6.1516  -6.1483  -6.0227  -5.9137  -5.8339  -5.6903  -5.5285  -5.4948
    -5.4207  -5.3758  -5.2917  -5.2855  -5.1877  -5.1382  -5.0405  -4.8152
    -4.7712  -4.5975  -4.4541  -4.3991  -4.2669  -4.1143  -3.9647  -3.9076
    -3.4415  -3.3277  -3.1276  -2.5477  -1.5895  -1.0246  -0.8166  -0.7270
    -0.3442  -0.1961  -0.0291   0.0041   0.0831   0.1869   0.3974   0.5659
     0.6466   0.7864   0.9877   1.0417   1.1327   1.3540   1.3890   1.4361
     1.5612   1.5909   1.7102   1.7967   1.8935   1.9641   1.9951   2.0838
     2.1260   2.1358   2.1514   2.2124   2.2412   2.3035   2.3147   2.3557
     2.5268   2.5401   2.5775   2.6221   2.6231   2.7042   2.7399   2.7566
     2.8884   2.8972   2.9461   3.0045   3.0715   3.1577   3.1753   3.1846
     3.2003   3.3344   3.3434   3.3790   3.4342   3.4496   3.5045   3.5514
     3.5996   3.6532   3.6888   3.7567   3.8282   3.8343   3.8475   3.9127
     3.9812   4.0189   4.0236   4.0329   4.0631   4.1025   4.1309   4.1482
     4.1875   4.1926   4.2128   4.2796   4.3213   4.3299   4.3978   4.4180
     4.4601   4.4940   4.5218   4.5980   4.6349   4.6355   4.6537   4.7118
     4.7211   4.7539   4.7892   4.8058   4.9084   4.9370   4.9491   4.9532
     5.0070   5.0526   5.0924   5.1130   5.1511   5.1647   5.1959   5.2422
     5.2870   5.3009   5.3060   5.3349   5.3417   5.3965   5.4425   5.4631
     5.4843   5.5567   5.5887   5.6047   5.6156   5.6256   5.6433   5.7023
     5.8005   5.8016   5.8298   5.8503   5.8625   5.8645   5.8718   5.9003
     5.9253   5.9792   6.0204   6.0494   6.0683   6.0867   6.1012   6.1361
     6.1558   6.1560   6.1894   6.2089   6.2094   6.2713   6.2714   6.2827
     6.3525   6.3941   6.3947   6.4026   6.4608   6.4903   6.4913   6.5267
     6.5392   6.5519   6.5580   6.5820   6.6138   6.6845   6.6897   6.6970
     6.7236   6.7585   6.8123   6.8338   6.8590   6.8798   6.8902   6.9279
     6.9720   6.9761   6.9762   7.0013   7.0488   7.0945   7.1088   7.1319
     7.1500   7.1583   7.1671   7.1934   7.2184   7.2270   7.2594   7.2779
     7.3174   7.3263   7.3458   7.3580   7.3852   7.4312   7.4484   7.4584
     7.4846   7.5239   7.5307   7.5717   7.6260   7.6273   7.6697   7.6974
     7.7355   7.7550   7.7621   7.7967   7.8288   7.8417   7.8621   7.9010
     7.9280   7.9308   7.9613   7.9684   8.0013   8.0099   8.0296   8.0448
     8.1034   8.1046   8.1236   8.1248   8.1562   8.1596   8.1818   8.2054
     8.2451   8.2530   8.3051   8.3145   8.3485   8.3788   8.3884   8.4077
     8.4231   8.4335   8.4547   8.4734   8.5096   8.5309   8.5574   8.5603
     8.6141   8.6405   8.6536   8.6604   8.6751   8.7249   8.7528   8.7793
     8.8195   8.8217   8.8417   8.8838   8.8871   8.9574   8.9835   8.9859
     8.9996   9.0331   9.0362   9.0790   9.0984   9.1266   9.1403   9.1496
     9.1653   9.1696   9.1812   9.1905   9.2256   9.2595   9.2691   9.3078
     9.3148   9.3169   9.3457   9.3813   9.3929   9.4152   9.4424   9.4470
     9.4898   9.5393   9.5454   9.5522   9.5659   9.6022   9.6169   9.6670
     9.6880   9.7046   9.7097   9.7300   9.7741   9.7821   9.8125   9.8323
     9.8659   9.8723   9.8889   9.8968   9.9099   9.9494   9.9545   9.9671
    10.0043  10.0354  10.0686  10.0725  10.1300  10.1486  10.1602  10.1854
    10.1908  10.2201  10.2278  10.2531  10.2654  10.2862  10.3129  10.3351
    10.3548  10.3756  10.3991  10.4203  10.4344  10.4412  10.4704  10.4928
    10.5057  10.5358  10.5537  10.5675  10.5789  10.6275  10.6536  10.6608
    10.6831  10.6870  10.7024  10.7303

          k = 0.0000 0.0000 0.0110 (110427 PWs)   bands (ev):

   -21.0683 -20.9452 -20.6445 -20.4716 -20.3646 -20.1917 -20.1065 -19.9100
   -19.6339 -19.3942 -19.3425 -19.0370 -18.8212 -18.6262 -18.5994 -18.4190
   -18.3030 -18.1840 -18.0496 -17.9318 -17.6949 -17.6671 -17.3681 -17.1485
   -17.0770 -16.8552 -16.7144 -16.6763 -16.5676 -16.3626 -16.2754 -16.1109
   -15.9355 -15.8359 -15.6546 -15.3544 -14.6416 -14.5956 -14.5430 -14.4565
   -14.4273 -14.2769 -14.0986 -14.0765 -13.9635 -13.8274 -13.7557 -13.6680
   -13.4611 -13.2913 -12.9055 -12.4882 -12.3985 -12.3814 -12.2176 -12.0478
   -11.9344 -11.8764 -11.8420 -11.7255 -11.4866 -11.3969 -11.2845 -11.1920
   -11.1405 -10.9197 -10.8150 -10.6098 -10.4727 -10.3644 -10.3587 -10.2072
   -10.0104  -9.9654  -9.8905  -9.8263  -9.7416  -9.5227  -9.4331  -9.3977
    -9.3849  -9.2444  -9.1272  -9.1121  -8.9984  -8.9864  -8.8792  -8.8635
    -8.7912  -8.7622  -8.6227  -8.6190  -8.4999  -8.4915  -8.4357  -8.3705
    -8.3263  -8.3049  -8.2192  -8.1076  -8.0957  -8.0616  -7.9864  -7.9596
    -7.8281  -7.7603  -7.7194  -7.6637  -7.6017  -7.4896  -7.4596  -7.4347
    -7.3494  -7.2907  -7.2101  -7.1041  -7.0931  -7.0475  -6.8366  -6.8058
    -6.7672  -6.6854  -6.6653  -6.5088  -6.4357  -6.3843  -6.3638  -6.2467
    -6.1424  -6.1400  -6.0240  -5.9064  -5.8106  -5.6879  -5.5091  -5.4923
    -5.3950  -5.3949  -5.3080  -5.2825  -5.1818  -5.1290  -5.0354  -4.8173
    -4.7860  -4.5927  -4.4653  -4.3941  -4.2579  -4.1115  -3.9551  -3.9037
    -3.4592  -3.3318  -3.1482  -2.5752  -1.5669  -1.0079  -0.8132  -0.7042
    -0.3581  -0.1967  -0.0273   0.0129   0.0824   0.1850   0.3935   0.5798
     0.6655   0.7866   0.9744   1.0462   1.1372   1.3346   1.3723   1.4380
     1.5632   1.5648   1.6803   1.7665   1.8856   1.9548   2.0058   2.0869
     2.1240   2.1292   2.1725   2.2368   2.2500   2.3005   2.3080   2.3455
     2.5283   2.5475   2.5854   2.6258   2.6538   2.7008   2.7238   2.7813
     2.8777   2.9062   2.9321   3.0164   3.0679   3.1406   3.1641   3.1957
     3.2261   3.3330   3.3510   3.3797   3.4141   3.4653   3.5021   3.5583
     3.6021   3.6804   3.7046   3.7304   3.8091   3.8498   3.8758   3.9229
     3.9865   4.0003   4.0145   4.0321   4.0688   4.0926   4.1115   4.1353
     4.1799   4.1842   4.2201   4.2886   4.3314   4.3440   4.4155   4.4192
     4.4280   4.4904   4.5320   4.5824   4.6103   4.6439   4.6579   4.6891
     4.6981   4.7365   4.7968   4.8482   4.9017   4.9213   4.9493   4.9701
     5.0033   5.0686   5.0698   5.0874   5.1579   5.1945   5.2196   5.2473
     5.2685   5.2997   5.3156   5.3163   5.3390   5.4209   5.4373   5.4790
     5.5190   5.5601   5.5757   5.5781   5.6099   5.6149   5.6356   5.7231
     5.7686   5.7877   5.8234   5.8527   5.8630   5.8775   5.8775   5.8827
     5.9361   5.9707   5.9995   6.0215   6.0525   6.0709   6.0945   6.1338
     6.1477   6.1495   6.1742   6.2141   6.2283   6.2706   6.2777   6.3133
     6.3596   6.3948   6.4059   6.4151   6.4731   6.4931   6.5075   6.5282
     6.5347   6.5497   6.5643   6.5824   6.6061   6.6809   6.6907   6.7151
     6.7394   6.7588   6.8417   6.8440   6.8605   6.8804   6.8886   6.9346
     6.9718   6.9835   6.9891   7.0190   7.0651   7.0843   7.0951   7.1145
     7.1362   7.1515   7.1663   7.1792   7.2317   7.2397   7.2428   7.2705
     7.3069   7.3111   7.3310   7.3825   7.4054   7.4145   7.4410   7.4869
     7.5038   7.5147   7.5267   7.5937   7.6185   7.6210   7.6875   7.6946
     7.7367   7.7661   7.7722   7.7934   7.8388   7.8402   7.8742   7.8835
     7.9344   7.9470   7.9575   7.9903   7.9989   8.0241   8.0346   8.0414
     8.0958   8.1079   8.1167   8.1338   8.1372   8.1684   8.1905   8.2038
     8.2414   8.2653   8.2763   8.2991   8.3801   8.3812   8.3819   8.4136
     8.4182   8.4357   8.4598   8.4973   8.5120   8.5286   8.5725   8.5728
     8.6030   8.6267   8.6324   8.6611   8.6622   8.6930   8.7164   8.7729
     8.8164   8.8295   8.8358   8.8477   8.8704   8.9719   8.9761   8.9869
     8.9886   9.0277   9.0436   9.0963   9.1080   9.1365   9.1416   9.1601
     9.1655   9.1681   9.1914   9.2054   9.2479   9.2529   9.2781   9.3000
     9.3073   9.3272   9.3637   9.3854   9.3968   9.4059   9.4439   9.4571
     9.4729   9.5199   9.5224   9.5473   9.5595   9.5861   9.5969   9.6342
     9.6696   9.6877   9.7106   9.7154   9.7688   9.7894   9.8105   9.8253
     9.8484   9.8530   9.8537   9.9098   9.9292   9.9315   9.9449   9.9871
     9.9902  10.0275  10.0569  10.0759  10.1241  10.1264  10.1430  10.2050
    10.2151  10.2253  10.2453  10.2525  10.2785  10.3119  10.3166  10.3461
    10.3477  10.3546  10.3927  10.3969  10.4326  10.4332  10.4524  10.4718
    10.5155  10.5315  10.5720  10.5786  10.6039  10.6475  10.6506  10.6535
    10.6909  10.6997  10.7048  10.7148

          k = 0.0000 0.0000 0.0125 (110403 PWs)   bands (ev):

   -21.0652 -20.9429 -20.6568 -20.4829 -20.3719 -20.1726 -20.0903 -19.9024
   -19.6369 -19.3951 -19.3373 -19.0381 -18.8595 -18.6383 -18.6194 -18.4149
   -18.2974 -18.1696 -18.0430 -17.9050 -17.6888 -17.6498 -17.3627 -17.1620
   -17.0875 -16.8404 -16.7329 -16.6530 -16.5649 -16.3659 -16.2615 -16.1286
   -15.9379 -15.8692 -15.6935 -15.3670 -14.6111 -14.5871 -14.5126 -14.4535
   -14.4347 -14.2606 -14.0857 -14.0826 -13.9662 -13.8335 -13.7283 -13.6638
   -13.4617 -13.2807 -12.9254 -12.5057 -12.4006 -12.3962 -12.2412 -12.0619
   -11.9268 -11.9001 -11.8552 -11.7185 -11.4948 -11.3837 -11.2639 -11.1842
   -11.1282 -10.9185 -10.8059 -10.6317 -10.4577 -10.3647 -10.3379 -10.2101
   -10.0448  -9.9606  -9.8813  -9.8429  -9.7406  -9.5213  -9.4398  -9.3889
    -9.3551  -9.2438  -9.1237  -9.0983  -8.9958  -8.9835  -8.8751  -8.8590
    -8.7797  -8.7584  -8.6353  -8.6167  -8.5009  -8.4838  -8.4498  -8.3710
    -8.3298  -8.3159  -8.2185  -8.1186  -8.0725  -8.0488  -7.9668  -7.9617
    -7.8276  -7.7512  -7.7364  -7.6825  -7.6082  -7.5285  -7.4915  -7.4392
    -7.3720  -7.2925  -7.2055  -7.1044  -7.0996  -7.0441  -6.8098  -6.8053
    -6.7307  -6.6682  -6.6520  -6.5504  -6.4351  -6.3932  -6.3678  -6.2795
    -6.1362  -6.1267  -6.0242  -5.8991  -5.7914  -5.6881  -5.4896  -5.4849
    -5.4146  -5.3692  -5.3251  -5.2783  -5.1769  -5.1202  -5.0284  -4.8211
    -4.7981  -4.5885  -4.4773  -4.3901  -4.2496  -4.1080  -3.9467  -3.8963
    -3.4785  -3.3366  -3.1707  -2.6051  -1.5427  -0.9911  -0.8080  -0.6790
    -0.3716  -0.2002  -0.0261   0.0256   0.0822   0.1821   0.3909   0.5953
     0.6843   0.7867   0.9597   1.0514   1.1425   1.3105   1.3573   1.4400
     1.5310   1.5689   1.6513   1.7371   1.8772   1.9470   2.0150   2.0831
     2.1115   2.1217   2.2061   2.2353   2.2870   2.2997   2.3012   2.3396
     2.5300   2.5531   2.5933   2.6290   2.6861   2.6995   2.7040   2.8099
     2.8603   2.9125   2.9283   3.0333   3.0604   3.1234   3.1542   3.2041
     3.2574   3.3205   3.3319   3.3988   3.4162   3.4865   3.4919   3.5511
     3.6262   3.6971   3.7057   3.7284   3.7897   3.8509   3.9173   3.9222
     3.9453   3.9871   4.0080   4.0397   4.0807   4.0838   4.1111   4.1272
     4.1766   4.1877   4.2305   4.3003   4.3321   4.3616   4.3838   4.4238
     4.4367   4.4613   4.5658   4.5679   4.5897   4.6137   4.6558   4.6803
     4.7121   4.7216   4.7920   4.8815   4.9006   4.9025   4.9334   4.9768
     5.0296   5.0404   5.0696   5.0951   5.1630   5.1929   5.2259   5.2436
     5.2769   5.2900   5.3149   5.3241   5.3603   5.4115   5.4629   5.4802
     5.5213   5.5319   5.5742   5.5851   5.5863   5.6168   5.6764   5.7390
     5.7429   5.7730   5.7777   5.8397   5.8684   5.8819   5.8886   5.8978
     5.9464   5.9499   5.9605   6.0122   6.0227   6.0618   6.0925   6.1208
     6.1246   6.1424   6.1917   6.2117   6.2436   6.2844   6.2985   6.3360
     6.3629   6.3931   6.4040   6.4135   6.4862   6.4870   6.5301   6.5347
     6.5457   6.5604   6.5681   6.5948   6.5981   6.6812   6.6939   6.7090
     6.7656   6.7841   6.8399   6.8471   6.8692   6.8703   6.8936   6.9206
     6.9722   6.9986   7.0114   7.0418   7.0502   7.0710   7.0937   7.0968
     7.1252   7.1531   7.1640   7.1799   7.2200   7.2327   7.2467   7.2729
     7.2930   7.3019   7.3531   7.3865   7.3927   7.4309   7.4564   7.4938
     7.5159   7.5202   7.5288   7.5938   7.6046   7.6472   7.6878   7.7090
     7.7418   7.7704   7.7858   7.7969   7.8386   7.8455   7.8640   7.8894
     7.9303   7.9447   7.9614   7.9947   8.0018   8.0184   8.0538   8.0610
     8.0809   8.0940   8.1078   8.1347   8.1366   8.1627   8.1871   8.2176
     8.2301   8.2551   8.2807   8.3288   8.3599   8.3829   8.3998   8.4059
     8.4246   8.4593   8.4658   8.4878   8.5280   8.5365   8.5673   8.5683
     8.5828   8.5916   8.6459   8.6491   8.6697   8.6714   8.6929   8.7642
     8.8006   8.8168   8.8424   8.8471   8.8709   8.9550   8.9795   8.9801
     8.9929   8.9979   9.0449   9.1148   9.1163   9.1319   9.1351   9.1658
     9.1688   9.1897   9.2107   9.2233   9.2353   9.2704   9.2892   9.2995
     9.3095   9.3499   9.3628   9.3877   9.3987   9.4042   9.4321   9.4571
     9.4738   9.4873   9.4937   9.5321   9.5494   9.5718   9.5969   9.6035
     9.6460   9.6643   9.7096   9.7293   9.7657   9.7900   9.7990   9.8099
     9.8161   9.8309   9.8538   9.9065   9.9102   9.9381   9.9574   9.9851
     9.9983  10.0449  10.0455  10.0709  10.0841  10.1061  10.1309  10.2014
    10.2247  10.2293  10.2394  10.2640  10.3135  10.3184  10.3244  10.3320
    10.3547  10.3571  10.3694  10.3827  10.4318  10.4463  10.4509  10.4638
    10.5267  10.5342  10.5685  10.5947  10.6030  10.6334  10.6531  10.6586
    10.6867  10.7060  10.7225  10.7273

          k = 0.0000 0.0000 0.0141 (110411 PWs)   bands (ev):

   -21.0617 -20.9402 -20.6698 -20.4941 -20.3788 -20.1528 -20.0743 -19.8936
   -19.6397 -19.3962 -19.3317 -19.0402 -18.8973 -18.6696 -18.6200 -18.4111
   -18.2917 -18.1578 -18.0402 -17.8735 -17.6881 -17.6244 -17.3557 -17.1747
   -17.0975 -16.8265 -16.7519 -16.6316 -16.5601 -16.3695 -16.2492 -16.1494
   -15.9427 -15.8997 -15.7301 -15.3815 -14.6253 -14.5377 -14.5110 -14.4393
   -14.4153 -14.2441 -14.0925 -14.0691 -13.9717 -13.8359 -13.7029 -13.6573
   -13.4636 -13.2694 -12.9463 -12.5273 -12.4169 -12.3986 -12.2726 -12.0715
   -11.9319 -11.9185 -11.8608 -11.7067 -11.5034 -11.3739 -11.2417 -11.1728
   -11.1123 -10.9188 -10.8012 -10.6553 -10.4454 -10.3701 -10.3148 -10.2031
   -10.0824  -9.9570  -9.8715  -9.8571  -9.7376  -9.5245  -9.4521  -9.3779
    -9.3198  -9.2383  -9.1197  -9.0822  -8.9955  -8.9803  -8.8818  -8.8465
    -8.7842  -8.7356  -8.6490  -8.6139  -8.5041  -8.4728  -8.4633  -8.3719
    -8.3335  -8.3264  -8.2194  -8.1309  -8.0493  -8.0380  -7.9602  -7.9472
    -7.8334  -7.7550  -7.7406  -7.7020  -7.6138  -7.5649  -7.5225  -7.4434
    -7.3950  -7.2910  -7.2009  -7.1108  -7.1044  -7.0370  -6.8056  -6.7872
    -6.6963  -6.6694  -6.6197  -6.5920  -6.4325  -6.4015  -6.3753  -6.3089
    -6.1301  -6.1119  -6.0235  -5.8922  -5.7769  -5.6894  -5.4867  -5.4569
    -5.4349  -5.3460  -5.3429  -5.2709  -5.1727  -5.1119  -5.0191  -4.8284
    -4.8053  -4.5849  -4.4896  -4.3871  -4.2431  -4.1043  -3.9397  -3.8850
    -3.4991  -3.3421  -3.1948  -2.6372  -1.5170  -0.9750  -0.8004  -0.6521
    -0.3846  -0.2057  -0.0251   0.0414   0.0822   0.1786   0.3894   0.6122
     0.7024   0.7869   0.9438   1.0573   1.1485   1.2827   1.3436   1.4423
     1.4950   1.5731   1.6235   1.7083   1.8684   1.9405   2.0196   2.0721
     2.1019   2.1159   2.2294   2.2474   2.2948   2.2962   2.3241   2.3423
     2.5313   2.5577   2.6010   2.6319   2.6835   2.6999   2.7194   2.8272
     2.8512   2.9177   2.9316   3.0491   3.0530   3.1070   3.1496   3.2080
     3.2903   3.2927   3.3277   3.3901   3.4517   3.4739   3.5110   3.5500
     3.6448   3.6891   3.7037   3.7509   3.7784   3.8449   3.9103   3.9107
     3.9473   3.9592   4.0101   4.0457   4.0823   4.0935   4.1030   4.1458
     4.1816   4.1967   4.2401   4.3119   4.3239   4.3459   4.3738   4.4236
     4.4381   4.4601   4.5407   4.5609   4.5868   4.6139   4.6454   4.6743
     4.7107   4.7424   4.7789   4.8796   4.8820   4.9030   4.9320   4.9653
     5.0403   5.0558   5.0657   5.1132   5.1390   5.1714   5.2572   5.2630
     5.2637   5.2778   5.3292   5.3431   5.3746   5.3992   5.4626   5.4859
     5.5029   5.5120   5.5543   5.5936   5.6087   5.6408   5.7062   5.7106
     5.7343   5.7419   5.7858   5.8148   5.8587   5.8897   5.8966   5.9005
     5.9007   5.9481   5.9639   5.9880   6.0270   6.0472   6.0810   6.1058
     6.1170   6.1227   6.2156   6.2177   6.2531   6.2695   6.3389   6.3446
     6.3763   6.3848   6.4101   6.4205   6.4700   6.5134   6.5326   6.5424
     6.5482   6.5634   6.5740   6.6168   6.6311   6.6843   6.6923   6.7195
     6.7743   6.7966   6.8138   6.8582   6.8687   6.8889   6.8967   6.9094
     6.9691   6.9703   7.0184   7.0356   7.0673   7.0745   7.0852   7.1170
     7.1183   7.1363   7.1562   7.1914   7.2182   7.2264   7.2297   7.2516
     7.3127   7.3211   7.3719   7.3872   7.3975   7.4230   7.4782   7.4995
     7.5080   7.5272   7.5738   7.5738   7.5938   7.6798   7.6862   7.7272
     7.7441   7.7792   7.7895   7.8046   7.8365   7.8453   7.8654   7.8971
     7.9289   7.9311   7.9610   7.9910   7.9975   8.0252   8.0358   8.0614
     8.0701   8.0981   8.1006   8.1186   8.1512   8.1690   8.1792   8.2252
     8.2277   8.2808   8.2833   8.3353   8.3699   8.3780   8.3997   8.4012
     8.4454   8.4599   8.4726   8.4768   8.5025   8.5390   8.5519   8.5523
     8.5700   8.5809   8.6381   8.6688   8.6702   8.6844   8.7010   8.7351
     8.7930   8.8222   8.8416   8.8474   8.8764   8.9323   8.9551   8.9822
     8.9902   8.9976   9.0435   9.1040   9.1206   9.1313   9.1338   9.1693
     9.1724   9.2138   9.2149   9.2344   9.2354   9.2878   9.2904   9.3038
     9.3119   9.3496   9.3796   9.3844   9.4022   9.4134   9.4234   9.4419
     9.4516   9.4786   9.4952   9.5167   9.5464   9.5503   9.5690   9.5778
     9.6160   9.6894   9.7038   9.7370   9.7448   9.7749   9.7787   9.7946
     9.8027   9.8415   9.8624   9.8926   9.8948   9.9343   9.9730   9.9816
     9.9954  10.0310  10.0360  10.0594  10.0785  10.0817  10.1200  10.1868
    10.2196  10.2262  10.2423  10.2632  10.2983  10.3064  10.3072  10.3438
    10.3561  10.3670  10.3774  10.4170  10.4252  10.4678  10.4689  10.4791
    10.5039  10.5218  10.5622  10.5789  10.6095  10.6491  10.6642  10.6757
    10.6851  10.6986  10.7352  10.7358

          k = 0.0000 0.0000 0.0156 (110441 PWs)   bands (ev):

   -21.0578 -20.9374 -20.6833 -20.5052 -20.3852 -20.1333 -20.0585 -19.8833
   -19.6422 -19.3974 -19.3257 -19.0441 -18.9338 -18.7029 -18.6183 -18.4075
   -18.2860 -18.1483 -18.0405 -17.8382 -17.6901 -17.5941 -17.3471 -17.1864
   -17.1069 -16.8134 -16.7711 -16.6152 -16.5509 -16.3733 -16.2415 -16.1710
   -15.9539 -15.9231 -15.7627 -15.3980 -14.6399 -14.5386 -14.4714 -14.4396
   -14.3641 -14.2280 -14.0997 -14.0554 -13.9793 -13.8341 -13.6849 -13.6436
   -13.4666 -13.2577 -12.9678 -12.5523 -12.4362 -12.4020 -12.3078 -12.0780
   -11.9662 -11.9111 -11.8612 -11.6924 -11.5112 -11.3668 -11.2178 -11.1586
   -11.0944 -10.9216 -10.7988 -10.6793 -10.4458 -10.3670 -10.2962 -10.1858
   -10.1205  -9.9575  -9.8670  -9.8648  -9.7317  -9.5269  -9.4657  -9.3666
    -9.2867  -9.2275  -9.1153  -9.0632  -8.9966  -8.9767  -8.8878  -8.8391
    -8.7891  -8.7095  -8.6636  -8.6102  -8.5063  -8.4762  -8.4616  -8.3743
    -8.3363  -8.3362  -8.2217  -8.1443  -8.0328  -8.0267  -7.9539  -7.9275
    -7.8471  -7.7709  -7.7282  -7.7219  -7.6265  -7.5932  -7.5491  -7.4473
    -7.4180  -7.2872  -7.1966  -7.1240  -7.1039  -7.0286  -6.8074  -6.7709
    -6.6720  -6.6608  -6.6330  -6.5884  -6.4278  -6.4075  -6.3911  -6.3294
    -6.1242  -6.0958  -6.0221  -5.8857  -5.7673  -5.6905  -5.4838  -5.4554
    -5.4269  -5.3613  -5.3291  -5.2568  -5.1695  -5.1040  -5.0070  -4.8387
    -4.8080  -4.5821  -4.5020  -4.3850  -4.2390  -4.1013  -3.9328  -3.8704
    -3.5206  -3.3482  -3.2199  -2.6710  -1.4905  -0.9606  -0.7900  -0.6239
    -0.3971  -0.2123  -0.0239   0.0594   0.0825   0.1748   0.3889   0.6302
     0.7192   0.7870   0.9273   1.0639   1.1552   1.2523   1.3306   1.4446
     1.4563   1.5753   1.5992   1.6802   1.8594   1.9346   2.0155   2.0555
     2.0994   2.1126   2.2320   2.2796   2.2891   2.2944   2.3405   2.3715
     2.5318   2.5618   2.6083   2.6352   2.6630   2.7017   2.7529   2.8084
     2.8769   2.9230   2.9393   3.0356   3.0682   3.0972   3.1497   3.2057
     3.2653   3.3240   3.3255   3.3880   3.4490   3.4886   3.5377   3.5543
     3.6369   3.6951   3.6988   3.7529   3.7949   3.8227   3.8944   3.8957
     3.9025   3.9944   4.0210   4.0518   4.0578   4.1021   4.1217   4.1671
     4.1983   4.2106   4.2411   4.2892   4.3197   4.3362   4.3813   4.4063
     4.4370   4.4826   4.5126   4.5414   4.5706   4.6291   4.6524   4.6759
     4.7060   4.7481   4.7835   4.8610   4.8670   4.8764   4.9381   4.9639
     5.0376   5.0584   5.0726   5.1224   5.1314   5.1788   5.2465   5.2629
     5.2807   5.2922   5.3257   5.3751   5.3778   5.3871   5.4402   5.4750
     5.5009   5.5230   5.5453   5.6007   5.6225   5.6797   5.6801   5.6969
     5.7011   5.7424   5.7909   5.8184   5.8367   5.8540   5.8671   5.8994
     5.9125   5.9410   5.9831   5.9929   6.0204   6.0319   6.0773   6.0794
     6.1023   6.1285   6.2278   6.2319   6.2337   6.2664   6.3361   6.3639
     6.3826   6.4151   6.4257   6.4389   6.4527   6.5255   6.5336   6.5336
     6.5675   6.5745   6.5929   6.6368   6.6543   6.6842   6.7003   6.7495
     6.7751   6.7814   6.7864   6.8609   6.8724   6.8976   6.9063   6.9158
     6.9306   6.9692   6.9944   7.0452   7.0492   7.0709   7.1102   7.1188
     7.1279   7.1447   7.1562   7.1730   7.1992   7.2102   7.2385   7.2726
     7.3236   7.3472   7.3628   7.4075   7.4151   7.4263   7.4709   7.5001
     7.5275   7.5358   7.5547   7.5920   7.6210   7.6739   7.7056   7.7429
     7.7433   7.7849   7.7932   7.8158   7.8364   7.8400   7.8714   7.8976
     7.9332   7.9357   7.9544   7.9687   7.9872   8.0219   8.0303   8.0423
     8.0521   8.0692   8.1125   8.1151   8.1615   8.1707   8.2209   8.2217
     8.2468   8.2795   8.3038   8.3248   8.3605   8.3814   8.3905   8.4098
     8.4259   8.4524   8.4649   8.4798   8.4874   8.5291   8.5367   8.5541
     8.5684   8.5904   8.6345   8.6675   8.6790   8.7086   8.7130   8.7420
     8.7864   8.8182   8.8358   8.8500   8.8632   8.9226   8.9459   8.9772
     8.9976   9.0005   9.0430   9.0925   9.1002   9.1186   9.1443   9.1627
     9.1839   9.1898   9.2203   9.2522   9.2583   9.2742   9.3060   9.3069
     9.3124   9.3530   9.3609   9.3694   9.4052   9.4205   9.4332   9.4367
     9.4450   9.4826   9.5054   9.5179   9.5285   9.5407   9.5454   9.5688
     9.5832   9.6672   9.7105   9.7268   9.7369   9.7585   9.7765   9.7944
     9.8186   9.8452   9.8684   9.8838   9.8845   9.9128   9.9450   9.9870
     9.9920   9.9988  10.0354  10.0638  10.0662  10.0710  10.1002  10.1890
    10.1968  10.2281  10.2342  10.2377  10.2808  10.2887  10.3052  10.3358
    10.3664  10.3730  10.4129  10.4208  10.4357  10.4604  10.4672  10.5037
    10.5044  10.5281  10.5564  10.5974  10.6253  10.6337  10.6677  10.6808
    10.7028  10.7112  10.7388  10.7524

          k = 0.0000 0.0000 0.0172 (110449 PWs)   bands (ev):

   -21.0535 -20.9343 -20.6973 -20.5162 -20.3907 -20.1146 -20.0426 -19.8717
   -19.6443 -19.3986 -19.3195 -19.0515 -18.9670 -18.7361 -18.6158 -18.4039
   -18.2805 -18.1409 -18.0432 -17.8003 -17.6933 -17.5608 -17.3366 -17.1971
   -17.1155 -16.8012 -16.7903 -16.6058 -16.5368 -16.3771 -16.2459 -16.1854
   -15.9760 -15.9352 -15.7898 -15.4165 -14.6544 -14.5556 -14.4503 -14.4046
   -14.3102 -14.2127 -14.1066 -14.0419 -13.9874 -13.8288 -13.6766 -13.6208
   -13.4705 -13.2460 -12.9898 -12.5806 -12.4602 -12.4085 -12.3411 -12.0830
   -12.0010 -11.9042 -11.8578 -11.6767 -11.5174 -11.3601 -11.1938 -11.1424
   -11.0756 -10.9276 -10.7965 -10.7026 -10.4601 -10.3569 -10.2799 -10.1705
   -10.1478  -9.9645  -9.8702  -9.8643  -9.7220  -9.5261  -9.4773  -9.3564
    -9.2593  -9.2116  -9.1106  -9.0411  -8.9987  -8.9729  -8.8920  -8.8396
    -8.7888  -8.6859  -8.6788  -8.6041  -8.5073  -8.4888  -8.4502  -8.3794
    -8.3450  -8.3370  -8.2254  -8.1586  -8.0351  -8.0055  -7.9448  -7.9076
    -7.8649  -7.7833  -7.7431  -7.7143  -7.6530  -7.6097  -7.5672  -7.4505
    -7.4406  -7.2821  -7.1927  -7.1380  -7.1030  -7.0203  -6.8119  -6.7632
    -6.6721  -6.6642  -6.6349  -6.5590  -6.4214  -6.4172  -6.4093  -6.3386
    -6.1188  -6.0785  -6.0201  -5.8801  -5.7623  -5.6907  -5.4818  -5.4753
    -5.3971  -5.3800  -5.3189  -5.2351  -5.1671  -5.0966  -4.9922  -4.8496
    -4.8082  -4.5802  -4.5139  -4.3837  -4.2379  -4.0999  -3.9245  -3.8532
    -3.5425  -3.3551  -3.2455  -2.7063  -1.4633  -0.9486  -0.7767  -0.5951
    -0.4088  -0.2190  -0.0223   0.0778   0.0840   0.1714   0.3893   0.6490
     0.7337   0.7872   0.9107   1.0712   1.1625   1.2203   1.3179   1.4159
     1.4469   1.5625   1.5913   1.6528   1.8503   1.9287   2.0025   2.0359
     2.1044   2.1100   2.2337   2.2843   2.2906   2.3092   2.3579   2.4109
     2.5311   2.5656   2.6150   2.6397   2.6427   2.7043   2.7828   2.7878
     2.9050   2.9296   2.9511   3.0228   3.0613   3.1102   3.1535   3.1968
     3.2393   3.3269   3.3575   3.3911   3.4256   3.5209   3.5617   3.5659
     3.6156   3.6817   3.6987   3.7534   3.8016   3.8178   3.8547   3.8800
     3.9005   4.0079   4.0312   4.0508   4.0589   4.1106   4.1421   4.1844
     4.2094   4.2252   4.2337   4.2769   4.3151   4.3252   4.3846   4.3969
     4.4384   4.4950   4.4969   4.5310   4.5555   4.6140   4.6798   4.6845
     4.7144   4.7243   4.8044   4.8334   4.8404   4.8747   4.9204   4.9848
     5.0118   5.0168   5.1009   5.1457   5.1486   5.1914   5.2344   5.2429
     5.2898   5.3167   5.3251   5.3693   5.3812   5.3997   5.4210   5.4825
     5.4926   5.5211   5.5734   5.6085   5.6338   5.6449   5.6688   5.6702
     5.7040   5.7435   5.7827   5.7921   5.8201   5.8361   5.8564   5.8964
     5.9162   5.9496   6.0010   6.0015   6.0109   6.0307   6.0441   6.0863
     6.1026   6.1367   6.1823   6.2372   6.2425   6.2726   6.3443   6.3601
     6.3883   6.4111   6.4522   6.4720   6.4813   6.5194   6.5350   6.5518
     6.5664   6.5920   6.6213   6.6402   6.6684   6.6890   6.7134   6.7456
     6.7594   6.7904   6.7950   6.8434   6.8488   6.8965   6.9056   6.9119
     6.9482   6.9706   6.9956   7.0073   7.0419   7.0771   7.0873   7.1239
     7.1417   7.1543   7.1556   7.1774   7.1902   7.2082   7.2410   7.3073
     7.3342   7.3558   7.3776   7.4087   7.4118   7.4609   7.4708   7.5062
     7.5385   7.5433   7.5456   7.6004   7.6642   7.6722   7.6953   7.7457
     7.7602   7.7742   7.8068   7.8235   7.8405   7.8445   7.8593   7.9083
     7.9234   7.9405   7.9455   7.9605   7.9826   8.0118   8.0165   8.0233
     8.0313   8.0475   8.1161   8.1316   8.1676   8.1869   8.2180   8.2408
     8.2705   8.2875   8.3143   8.3155   8.3214   8.3439   8.3887   8.4003
     8.4222   8.4526   8.4738   8.4868   8.5091   8.5107   8.5272   8.5546
     8.5771   8.5974   8.6087   8.6826   8.6949   8.7135   8.7467   8.7549
     8.7783   8.8048   8.8284   8.8418   8.8527   8.9410   8.9641   8.9664
     8.9966   8.9977   9.0396   9.0819   9.0854   9.0989   9.1437   9.1556
     9.1684   9.1893   9.2132   9.2302   9.2699   9.2835   9.3020   9.3221
     9.3240   9.3282   9.3529   9.3681   9.3709   9.4212   9.4407   9.4473
     9.4781   9.4837   9.4969   9.5054   9.5277   9.5384   9.5562   9.5641
     9.5817   9.6166   9.6810   9.7328   9.7444   9.7481   9.7931   9.8059
     9.8235   9.8470   9.8588   9.8721   9.8791   9.8897   9.9278   9.9604
     9.9768   9.9899  10.0336  10.0489  10.0586  10.0665  10.1030  10.1587
    10.1817  10.2187  10.2302  10.2376  10.2381  10.2794  10.3175  10.3439
    10.3655  10.3751  10.3891  10.3960  10.4464  10.4533  10.4762  10.5172
    10.5477  10.5627  10.5642  10.6123  10.6185  10.6467  10.6617  10.6693
    10.7167  10.7428  10.7466  10.7479

          k = 0.0000 0.0000 0.0188 (110471 PWs)   bands (ev):

   -21.0490 -20.9309 -20.7114 -20.5271 -20.3956 -20.0975 -20.0263 -19.8589
   -19.6456 -19.3998 -19.3131 -19.0659 -18.9935 -18.7688 -18.6128 -18.4000
   -18.2753 -18.1351 -18.0475 -17.7621 -17.6959 -17.5256 -17.3240 -17.2069
   -17.1231 -16.8101 -16.7892 -16.6022 -16.5211 -16.3804 -16.2667 -16.1875
   -16.0026 -15.9415 -15.8110 -15.4370 -14.6688 -14.5725 -14.4502 -14.3462
   -14.2577 -14.1976 -14.1136 -14.0288 -13.9937 -13.8207 -13.6730 -13.5943
   -13.4752 -13.2348 -13.0122 -12.6123 -12.4912 -12.4191 -12.3665 -12.0882
   -12.0347 -11.8983 -11.8514 -11.6600 -11.5216 -11.3521 -11.1725 -11.1241
   -11.0567 -10.9372 -10.7928 -10.7241 -10.4805 -10.3499 -10.2657 -10.1942
   -10.1266  -9.9778  -9.8706  -9.8673  -9.7090  -9.5229  -9.4827  -9.3475
    -9.2393  -9.1918  -9.1055  -9.0162  -9.0008  -8.9688  -8.8937  -8.8467
    -8.7832  -8.6945  -8.6691  -8.5930  -8.5077  -8.5011  -8.4384  -8.3877
    -8.3528  -8.3355  -8.2304  -8.1739  -8.0442  -7.9861  -7.9417  -7.8872
    -7.8746  -7.7956  -7.7663  -7.6989  -7.6828  -7.6255  -7.5747  -7.4624
    -7.4529  -7.2762  -7.1892  -7.1520  -7.1015  -7.0124  -6.8210  -6.7645
    -6.7070  -6.6522  -6.6140  -6.5317  -6.4486  -6.4136  -6.4046  -6.3411
    -6.1139  -6.0600  -6.0179  -5.8755  -5.7611  -5.6901  -5.4975  -5.4780
    -5.3989  -5.3719  -5.3098  -5.2084  -5.1654  -5.0897  -4.9744  -4.8596
    -4.8068  -4.5799  -4.5247  -4.3829  -4.2399  -4.1013  -3.9140  -3.8342
    -3.5643  -3.3627  -3.2710  -2.7426  -1.4358  -0.9393  -0.7609  -0.5664
    -0.4195  -0.2249  -0.0199   0.0819   0.1002   0.1691   0.3903   0.6683
     0.7451   0.7874   0.8946   1.0792   1.1706   1.1872   1.3049   1.3755
     1.4489   1.5390   1.5959   1.6261   1.8412   1.9221   1.9843   2.0151
     2.1071   2.1139   2.2358   2.2810   2.2898   2.3269   2.3878   2.4517
     2.5292   2.5693   2.6208   2.6228   2.6456   2.7076   2.7602   2.8186
     2.9266   2.9378   2.9673   3.0160   3.0448   3.1314   3.1599   3.1837
     3.2153   3.3318   3.3821   3.3980   3.4107   3.5472   3.5707   3.5941
     3.5946   3.6588   3.6743   3.7547   3.8049   3.8139   3.8319   3.8746
     3.9097   4.0053   4.0117   4.0614   4.0923   4.1143   4.1668   4.1691
     4.1964   4.2542   4.2573   4.2724   4.2890   4.3292   4.3842   4.3995
     4.4343   4.4846   4.4973   4.5400   4.5414   4.6026   4.6820   4.6979
     4.7003   4.7440   4.7912   4.8173   4.8229   4.8820   4.9180   4.9575
     4.9953   4.9974   5.1229   5.1644   5.1649   5.2085   5.2162   5.2239
     5.2926   5.3210   5.3386   5.3538   5.3747   5.4095   5.4432   5.4746
     5.4901   5.5494   5.5926   5.6098   5.6182   5.6321   5.6452   5.6470
     5.7034   5.7297   5.7421   5.7692   5.8093   5.8281   5.8696   5.8893
     5.9270   5.9607   5.9719   5.9905   6.0299   6.0451   6.0594   6.0960
     6.1087   6.1285   6.1438   6.2329   6.2535   6.2662   6.3587   6.3631
     6.3734   6.4111   6.4913   6.4930   6.5120   6.5291   6.5496   6.5637
     6.5699   6.6017   6.6383   6.6479   6.6750   6.6904   6.7174   6.7242
     6.7556   6.7994   6.8000   6.8112   6.8440   6.9010   6.9111   6.9196
     6.9391   6.9664   6.9785   7.0305   7.0317   7.0590   7.0798   7.1114
     7.1325   7.1493   7.1573   7.1690   7.2244   7.2425   7.2443   7.3203
     7.3459   7.3527   7.3971   7.4141   7.4180   7.4813   7.4833   7.5232
     7.5324   7.5520   7.5614   7.6113   7.6748   7.6756   7.6947   7.7334
     7.7678   7.7788   7.8156   7.8223   7.8412   7.8546   7.8553   7.8922
     7.9035   7.9385   7.9436   7.9710   7.9851   7.9896   8.0036   8.0194
     8.0213   8.0461   8.1268   8.1494   8.1616   8.1825   8.2175   8.2553
     8.2559   8.2650   8.2861   8.2951   8.3296   8.3576   8.3750   8.4107
     8.4466   8.4501   8.4756   8.4936   8.4951   8.5273   8.5285   8.5411
     8.5709   8.6059   8.6192   8.6828   8.7048   8.7202   8.7368   8.7652
     8.7764   8.8169   8.8259   8.8489   8.8606   8.9513   8.9656   8.9823
     8.9890   8.9960   9.0225   9.0584   9.0783   9.1126   9.1174   9.1486
     9.1629   9.1629   9.1980   9.2190   9.2578   9.2803   9.2909   9.3013
     9.3286   9.3325   9.3528   9.3764   9.3821   9.4216   9.4235   9.4393
     9.4637   9.5030   9.5150   9.5263   9.5343   9.5351   9.5436   9.5542
     9.5885   9.6272   9.6541   9.7249   9.7449   9.7580   9.7916   9.8039
     9.8190   9.8202   9.8496   9.8549   9.8867   9.9062   9.9158   9.9443
     9.9508   9.9806  10.0132  10.0349  10.0593  10.0662  10.1193  10.1214
    10.1475  10.1915  10.2275  10.2280  10.2452  10.2648  10.3220  10.3230
    10.3535  10.3541  10.3877  10.3985  10.4609  10.4624  10.4752  10.5265
    10.5475  10.5834  10.5925  10.6048  10.6459  10.6519  10.6605  10.6878
    10.7067  10.7421  10.7579  10.7667

          k = 0.0000 0.0000 0.0203 (110491 PWs)   bands (ev):

   -21.0441 -20.9274 -20.7255 -20.5379 -20.3997 -20.0824 -20.0093 -19.8449
   -19.6461 -19.4008 -19.3068 -19.0899 -19.0105 -18.8006 -18.6094 -18.3960
   -18.2707 -18.1307 -18.0528 -17.7322 -17.6897 -17.4898 -17.3088 -17.2156
   -17.1295 -16.8294 -16.7786 -16.6021 -16.5098 -16.3835 -16.2930 -16.1859
   -16.0280 -15.9459 -15.8268 -15.4592 -14.6828 -14.5883 -14.4504 -14.2874
   -14.2145 -14.1762 -14.1205 -14.0173 -13.9945 -13.8106 -13.6710 -13.5676
   -13.4801 -13.2246 -13.0349 -12.6480 -12.5290 -12.4336 -12.3822 -12.0951
   -12.0658 -11.8932 -11.8427 -11.6425 -11.5237 -11.3414 -11.1568 -11.1034
   -11.0388 -10.9492 -10.7876 -10.7424 -10.5019 -10.3525 -10.2654 -10.2040
   -10.0979  -9.9951  -9.8822  -9.8607  -9.6947  -9.5196  -9.4770  -9.3396
    -9.2252  -9.1720  -9.1002  -9.0061  -8.9865  -8.9644  -8.8922  -8.8558
    -8.7752  -8.7103  -8.6610  -8.5762  -8.5131  -8.5079  -8.4259  -8.3983
    -8.3596  -8.3335  -8.2365  -8.1904  -8.0590  -7.9690  -7.9515  -7.8673
    -7.8662  -7.8114  -7.7911  -7.7091  -7.6822  -7.6422  -7.5753  -7.4832
    -7.4542  -7.2708  -7.1861  -7.1648  -7.0995  -7.0055  -6.8378  -6.7724
    -6.7350  -6.6366  -6.6014  -6.5061  -6.4813  -6.4048  -6.3920  -6.3404
    -6.1096  -6.0404  -6.0155  -5.8722  -5.7622  -5.6890  -5.5178  -5.4773
    -5.4169  -5.3580  -5.2937  -5.1795  -5.1643  -5.0834  -4.9540  -4.8682
    -4.8041  -4.5817  -4.5333  -4.3825  -4.2453  -4.1060  -3.9014  -3.8136
    -3.5855  -3.3714  -3.2955  -2.7799  -1.4083  -0.9323  -0.7438  -0.5390
    -0.4287  -0.2291  -0.0165   0.0819   0.1189   0.1697   0.3921   0.6872
     0.7523   0.7875   0.8798   1.0878   1.1535   1.1794   1.2898   1.3380
     1.4500   1.5156   1.5991   1.6037   1.8321   1.9134   1.9649   1.9938
     2.1038   2.1248   2.2382   2.2792   2.2904   2.3390   2.4254   2.4928
     2.5260   2.5729   2.6037   2.6259   2.6530   2.7116   2.7365   2.8489
     2.9353   2.9477   2.9848   3.0252   3.0266   3.1426   3.1687   3.1763
     3.1951   3.3391   3.3683   3.4078   3.4343   3.5544   3.5766   3.5864
     3.6204   3.6316   3.6367   3.7522   3.7835   3.8237   3.8334   3.8820
     3.9212   3.9819   4.0138   4.0682   4.0932   4.1305   4.1456   4.2035
     4.2051   4.2263   4.2684   4.2909   4.2960   4.3433   4.3810   4.4047
     4.4307   4.4660   4.4927   4.5370   4.5574   4.5950   4.6597   4.6939
     4.7134   4.7606   4.7700   4.8043   4.8196   4.8865   4.9052   4.9385
     4.9748   5.0003   5.1319   5.1567   5.1782   5.1921   5.2134   5.2447
     5.2949   5.2998   5.3351   5.3639   5.3895   5.4116   5.4443   5.4979
     5.5028   5.5711   5.5777   5.5936   5.6103   5.6239   5.6268   5.6508
     5.6793   5.7029   5.7174   5.7492   5.8031   5.8128   5.8838   5.8972
     5.9240   5.9395   5.9673   5.9882   6.0507   6.0585   6.0755   6.0973
     6.1070   6.1285   6.1453   6.2167   6.2628   6.2674   6.3420   6.3711
     6.3773   6.4283   6.4960   6.5148   6.5303   6.5360   6.5715   6.5838
     6.6009   6.6038   6.6323   6.6618   6.6736   6.6953   6.6996   6.7202
     6.7539   6.7798   6.7844   6.8156   6.8639   6.9101   6.9111   6.9181
     6.9286   6.9466   6.9900   7.0227   7.0314   7.0618   7.0753   7.1002
     7.1084   7.1523   7.1568   7.1813   7.2464   7.2577   7.2823   7.3074
     7.3572   7.3615   7.3905   7.4219   7.4425   7.4953   7.5121   7.5316
     7.5415   7.5582   7.5820   7.6248   7.6536   7.6744   7.7082   7.7241
     7.7611   7.7921   7.8108   7.8152   7.8276   7.8577   7.8593   7.8708
     7.8953   7.9400   7.9429   7.9669   7.9697   7.9973   8.0060   8.0264
     8.0364   8.0501   8.1151   8.1411   8.1640   8.1755   8.2016   8.2206
     8.2293   8.2638   8.2825   8.3005   8.3314   8.3824   8.3937   8.4222
     8.4321   8.4634   8.4793   8.4848   8.5051   8.5133   8.5366   8.5392
[...]
    -4.7214  -4.5968  -4.5310  -4.4549  -4.3775  -4.2244  -3.8519  -3.6364
    -3.6057  -3.5151  -3.3723  -3.1015  -1.2124  -0.9094  -0.7032  -0.4564
    -0.3579  -0.1840   0.0697   0.0817   0.1402   0.3597   0.4781   0.5759
     0.6806   0.7886   0.8593   0.9476   1.0491   1.1972   1.2881   1.2958
     1.3039   1.3963   1.4856   1.6928   1.7394   1.7669   1.8228   1.8933
     2.0717   2.1613   2.2586   2.3500   2.3593   2.4318   2.4499   2.4591
     2.5499   2.6109   2.6582   2.7539   2.8094   2.8198   2.8291   2.8605
     2.8829   2.9303   3.0066   3.0328   3.1468   3.1766   3.1804   3.2242
     3.2355   3.3146   3.3202   3.3592   3.3756   3.4537   3.4777   3.5328
     3.5979   3.6276   3.6593   3.7341   3.7494   3.7828   3.8531   3.8575
     3.9674   3.9726   4.0641   4.0919   4.0960   4.1295   4.1877   4.2263
     4.2525   4.2542   4.3019   4.3082   4.3663   4.3828   4.4261   4.4380
     4.4519   4.4725   4.5023   4.5173   4.5676   4.5711   4.6267   4.6599
     4.7292   4.7492   4.7608   4.7924   4.8245   4.8799   4.9162   4.9356
     4.9445   4.9830   5.0310   5.0687   5.0789   5.1638   5.2102   5.2316
     5.2420   5.2999   5.3067   5.3251   5.3470   5.3684   5.4147   5.4188
     5.4380   5.4650   5.4866   5.5419   5.5619   5.5852   5.6506   5.6569
     5.6791   5.6822   5.7054   5.7453   5.8046   5.8521   5.8822   5.9147
     5.9433   5.9584   5.9871   6.0154   6.0315   6.0934   6.1073   6.1250
     6.1459   6.1782   6.1897   6.2238   6.2661   6.3009   6.3292   6.3556
     6.3952   6.4057   6.4314   6.4969   6.5304   6.5534   6.5923   6.5979
     6.6203   6.6622   6.6819   6.7002   6.7094   6.7294   6.7570   6.7756
     6.7903   6.7905   6.8487   6.8863   6.8930   6.9189   6.9324   6.9631
     6.9756   7.0064   7.0428   7.0444   7.0647   7.1185   7.1385   7.1522
     7.1710   7.1988   7.2083   7.2666   7.2721   7.2819   7.2974   7.3191
     7.3385   7.3699   7.3782   7.4009   7.4414   7.4588   7.4785   7.5210
     7.5330   7.5343   7.5659   7.5978   7.6077   7.6413   7.6668   7.6756
     7.7022   7.7276   7.7361   7.7672   7.8250   7.8347   7.8789   7.9436
     7.9515   7.9704   7.9899   8.0058   8.0207   8.0512   8.0574   8.0769
     8.1077   8.1174   8.1427   8.1537   8.1919   8.1971   8.2063   8.2178
     8.2550   8.2827   8.3179   8.3232   8.3622   8.3637   8.3948   8.4114
     8.4245   8.4527   8.4612   8.4775   8.4791   8.5109   8.5298   8.5569
     8.5985   8.6019   8.6088   8.6212   8.6740   8.6769   8.6920   8.6971
     8.7330   8.7966   8.8183   8.8278   8.8565   8.8916   8.9048   8.9062
     8.9261   8.9518   8.9770   8.9909   9.0299   9.0611   9.0874   9.0921
     9.1773   9.1904   9.2098   9.2133   9.2670   9.2815   9.2892   9.3205
     9.3405   9.3476   9.3668   9.3791   9.4010   9.4099   9.4478   9.4698
     9.4749   9.4878   9.5122   9.5578   9.5642   9.5787   9.5805   9.5987
     9.6280   9.6314   9.6405   9.6587   9.6637   9.6983   9.7072   9.7083
     9.7219   9.7593   9.7746   9.8005   9.8556   9.8558   9.8632   9.8681
     9.8921   9.9440  10.0013  10.0016  10.0088  10.0494  10.0672  10.0721
    10.1261  10.1442  10.1503  10.1786  10.1977  10.2141  10.2440  10.2591
    10.3101  10.3407  10.3445  10.3483  10.3845  10.3849  10.4026  10.4247
    10.4796  10.5063  10.5330  10.5582  10.5721  10.5985  10.6205  10.6646
    10.6788  10.7133  10.7322  10.7344

          k = 0.0000 0.0000 0.0360 (110524 PWs)   bands (ev):

   -20.9957 -20.8877 -20.8419 -20.6120 -20.4160 -20.0234 -19.8728 -19.7059
   -19.5524 -19.4347 -19.3960 -19.2557 -19.0922 -18.9876 -18.5755 -18.3353
   -18.2892 -18.1082 -18.0949 -17.7789 -17.3958 -17.2611 -17.1669 -17.1174
   -17.0001 -16.9321 -16.8957 -16.7492 -16.6544 -16.6053 -16.3104 -16.1022
   -16.0344 -15.9252 -15.8783 -15.7181 -14.7741 -14.6737 -14.3805 -14.3073
   -14.1930 -13.9789 -13.9216 -13.7722 -13.7228 -13.6033 -13.5510 -13.4859
   -13.3652 -13.3098 -13.2916 -13.1414 -12.8270 -12.5415 -12.3823 -12.2667
   -12.1959 -11.8591 -11.7530 -11.4395 -11.4204 -11.2997 -11.2046 -11.0810
   -10.9530 -10.9172 -10.7867 -10.7143 -10.5718 -10.5167 -10.3861 -10.2405
   -10.1330 -10.0157  -9.9117  -9.8314  -9.4810  -9.3525  -9.2913  -9.2692
    -9.2180  -9.0795  -9.0493  -8.9905  -8.9145  -8.9111  -8.8657  -8.8421
    -8.7975  -8.6617  -8.6588  -8.5961  -8.5502  -8.5250  -8.4885  -8.4153
    -8.3893  -8.3883  -8.3179  -8.1986  -8.1782  -8.0613  -8.0372  -7.9307
    -7.8983  -7.8278  -7.8078  -7.7098  -7.6354  -7.5881  -7.5153  -7.5151
    -7.3700  -7.3420  -7.2101  -7.1647  -7.1172  -7.0721  -6.9763  -6.9244
    -6.8374  -6.6873  -6.6571  -6.5135  -6.3546  -6.3058  -6.2938  -6.1370
    -6.1015  -6.0108  -5.9481  -5.7931  -5.7458  -5.7175  -5.6814  -5.6441
    -5.4272  -5.4067  -5.1718  -5.1300  -5.0494  -5.0021  -4.7898  -4.7581
    -4.7056  -4.5860  -4.5275  -4.4831  -4.3803  -4.2357  -3.8556  -3.6258
    -3.5941  -3.5286  -3.3674  -3.1247  -1.2029  -0.9077  -0.7085  -0.4553
    -0.3493  -0.1798   0.0687   0.0914   0.1402   0.3823   0.5011   0.5499
     0.6484   0.7886   0.8574   0.9584   1.0294   1.2127   1.2829   1.3003
     1.3056   1.3775   1.4869   1.7030   1.7278   1.7625   1.8109   1.8910
     2.0702   2.1608   2.2596   2.3582   2.3735   2.4331   2.4373   2.4569
     2.5376   2.6121   2.6612   2.7660   2.8231   2.8244   2.8472   2.8629
     2.9107   2.9159   3.0005   3.0477   3.1220   3.1529   3.1841   3.1978
     3.2487   3.2959   3.3475   3.3614   3.3856   3.4804   3.4937   3.5287
     3.5507   3.6337   3.6752   3.6864   3.7368   3.7631   3.8514   3.8973
     3.9838   3.9954   4.0757   4.0867   4.1087   4.1116   4.1645   4.2346
     4.2376   4.2687   4.3055   4.3309   4.3482   4.3784   4.4269   4.4295
     4.4395   4.4673   4.4902   4.5422   4.5709   4.5711   4.6145   4.7034
     4.7127   4.7467   4.7866   4.8066   4.8371   4.8696   4.9037   4.9137
     4.9711   5.0076   5.0139   5.0318   5.0559   5.1721   5.1790   5.2123
     5.2797   5.2920   5.3189   5.3409   5.3622   5.3830   5.3917   5.4071
     5.4213   5.4608   5.4752   5.5088   5.5363   5.5791   5.6444   5.6660
     5.6786   5.7000   5.7182   5.7328   5.8117   5.8774   5.8982   5.9176
     5.9620   5.9639   5.9969   6.0282   6.0567   6.0723   6.1093   6.1280
     6.1474   6.1697   6.1779   6.2047   6.2609   6.2732   6.3252   6.3348
     6.3991   6.4059   6.4079   6.5011   6.5215   6.5678   6.6040   6.6157
     6.6378   6.6628   6.6690   6.7072   6.7202   6.7379   6.7483   6.7719
     6.7879   6.8287   6.8424   6.8884   6.8896   6.9157   6.9624   6.9767
     6.9778   7.0090   7.0624   7.0685   7.0887   7.1165   7.1185   7.1460
     7.1823   7.1963   7.2162   7.2464   7.2620   7.2724   7.2971   7.3086
     7.3280   7.3392   7.3731   7.3768   7.4497   7.4659   7.4882   7.5188
     7.5230   7.5359   7.5645   7.5863   7.5915   7.6525   7.6631   7.6748
     7.6774   7.7327   7.7606   7.7770   7.8067   7.8434   7.8842   7.9351
     7.9733   7.9743   7.9942   8.0061   8.0357   8.0370   8.0759   8.0811
     8.1111   8.1289   8.1501   8.1772   8.1973   8.2058   8.2134   8.2135
     8.2426   8.2726   8.3081   8.3528   8.3643   8.3725   8.3833   8.4122
     8.4196   8.4240   8.4722   8.4796   8.4926   8.5070   8.5388   8.5568
     8.5730   8.5891   8.5917   8.6200   8.6619   8.6820   8.7045   8.7063
     8.7201   8.7648   8.8078   8.8081   8.8603   8.8814   8.8921   8.8973
     8.8982   8.9678   8.9691   8.9976   9.0538   9.0654   9.0946   9.1308
     9.1735   9.1891   9.2067   9.2313   9.2760   9.2818   9.3037   9.3365
     9.3422   9.3558   9.3642   9.3793   9.3847   9.3957   9.4536   9.4659
     9.4744   9.4961   9.5293   9.5314   9.5485   9.5546   9.5821   9.6209
     9.6226   9.6280   9.6384   9.6487   9.6610   9.6804   9.6946   9.6976
     9.7569   9.7633   9.7670   9.8153   9.8579   9.8723   9.8739   9.8931
     9.9098   9.9506   9.9764   9.9976  10.0057  10.0258  10.0525  10.0537
    10.1077  10.1186  10.1230  10.1801  10.1920  10.2018  10.2520  10.2653
    10.3206  10.3385  10.3507  10.3635  10.3864  10.3924  10.4079  10.4287
    10.4538  10.5144  10.5267  10.5677  10.5865  10.5973  10.6258  10.6432
    10.6760  10.6922  10.7333  10.7368

          k = 0.0000 0.0000 0.0376 (110516 PWs)   bands (ev):

   -20.9939 -20.8849 -20.8471 -20.6139 -20.4162 -20.0225 -19.8697 -19.7008
   -19.5321 -19.4612 -19.3952 -19.2545 -19.0971 -18.9903 -18.5744 -18.3297
   -18.2946 -18.1050 -18.0981 -17.7808 -17.3916 -17.2595 -17.1443 -17.1126
   -16.9894 -16.9366 -16.8936 -16.7847 -16.6582 -16.6085 -16.3126 -16.0912
   -16.0326 -15.9191 -15.8820 -15.7310 -14.7762 -14.6756 -14.3684 -14.3221
   -14.1934 -13.9776 -13.9159 -13.7643 -13.7201 -13.5968 -13.5061 -13.4504
   -13.3666 -13.3453 -13.3256 -13.1575 -12.8340 -12.5437 -12.3791 -12.2726
   -12.2006 -11.8581 -11.7507 -11.4292 -11.4004 -11.3205 -11.2177 -11.0621
   -10.9579 -10.9125 -10.7894 -10.7272 -10.5546 -10.5112 -10.4004 -10.2473
   -10.1411 -10.0128  -9.9103  -9.8336  -9.4466  -9.3773  -9.2907  -9.2659
    -9.2056  -9.0796  -9.0475  -8.9611  -8.9115  -8.9077  -8.8903  -8.8474
    -8.8039  -8.6632  -8.6589  -8.5983  -8.5580  -8.5035  -8.4933  -8.4109
    -8.3923  -8.3887  -8.3389  -8.1873  -8.1785  -8.0655  -8.0503  -7.9213
    -7.8972  -7.8398  -7.8099  -7.7065  -7.6287  -7.5898  -7.5107  -7.5093
    -7.3779  -7.3148  -7.2440  -7.1638  -7.1125  -7.0713  -6.9723  -6.9345
    -6.8423  -6.6907  -6.6594  -6.5106  -6.3521  -6.3021  -6.2916  -6.1230
    -6.1020  -6.0112  -5.9577  -5.7676  -5.7389  -5.7244  -5.7062  -5.6473
    -5.4262  -5.4087  -5.1723  -5.1268  -5.0487  -5.0015  -4.7814  -4.7594
    -4.6865  -4.5784  -4.5243  -4.5060  -4.3819  -4.2432  -3.8580  -3.6173
    -3.5874  -3.5384  -3.3629  -3.1403  -1.1970  -0.9065  -0.7121  -0.4546
    -0.3439  -0.1772   0.0681   0.0975   0.1402   0.4011   0.5191   0.5333
     0.6200   0.7887   0.8549   0.9738   1.0102   1.2284   1.2657   1.3033
     1.3204   1.3602   1.4876   1.7108   1.7205   1.7589   1.8030   1.8895
     2.0692   2.1604   2.2602   2.3644   2.3863   2.4254   2.4290   2.4609
     2.5283   2.6131   2.6631   2.7762   2.8197   2.8285   2.8473   2.8927
     2.9009   2.9347   2.9966   3.0600   3.1030   3.1342   3.1502   3.2186
     3.2589   3.2759   3.3377   3.3929   3.4048   3.4833   3.5011   3.5233
     3.5408   3.6376   3.6410   3.6903   3.7268   3.7465   3.8501   3.9378
     3.9916   4.0194   4.0419   4.0697   4.1142   4.1486   4.1558   4.2206
     4.2381   4.2535   4.3141   4.3449   4.3590   4.3750   4.4091   4.4280
     4.4364   4.4613   4.4796   4.5459   4.5773   4.5968   4.6032   4.6978
     4.6999   4.7682   4.8147   4.8341   4.8506   4.8577   4.8723   4.9014
     4.9784   4.9954   5.0031   5.0437   5.0634   5.1320   5.1478   5.2345
     5.2836   5.3223   5.3304   5.3554   5.3556   5.3682   5.3896   5.4035
     5.4298   5.4517   5.4672   5.4748   5.5205   5.5711   5.6327   5.6719
     5.6786   5.7094   5.7242   5.7497   5.8145   5.8683   5.8902   5.9434
     5.9725   5.9988   6.0063   6.0424   6.0474   6.0783   6.1038   6.1105
     6.1300   6.1524   6.1873   6.2228   6.2395   6.2745   6.2972   6.3393
     6.3694   6.4082   6.4139   6.5029   6.5137   6.5857   6.6095   6.6324
     6.6425   6.6587   6.6703   6.7074   6.7126   6.7209   6.7614   6.7826
     6.7888   6.8266   6.8634   6.8924   6.8973   6.9213   6.9759   6.9776
     6.9922   7.0111   7.0442   7.0944   7.0964   7.1188   7.1409   7.1486
     7.1717   7.1868   7.2167   7.2237   7.2358   7.2640   7.2825   7.2926
     7.3269   7.3450   7.3689   7.3905   7.4542   7.4694   7.4886   7.5203
     7.5267   7.5385   7.5503   7.5702   7.5934   7.6402   7.6493   7.6733
     7.6787   7.7326   7.7704   7.7846   7.8199   7.8493   7.8901   7.9247
     7.9696   7.9881   7.9882   8.0032   8.0246   8.0690   8.0801   8.0855
     8.0891   8.1401   8.1784   8.1837   8.1947   8.2024   8.2165   8.2352
     8.2441   8.2879   8.2904   8.3523   8.3632   8.3703   8.3781   8.3934
     8.4025   8.4275   8.4723   8.4933   8.4990   8.5045   8.5399   8.5418
     8.5747   8.5876   8.6060   8.6124   8.6495   8.6901   8.6909   8.7282
     8.7365   8.7431   8.7786   8.8032   8.8273   8.8552   8.8704   8.8855
     8.9240   8.9635   8.9710   9.0401   9.0469   9.0995   9.1110   9.1372
     9.1595   9.2049   9.2068   9.2173   9.2818   9.2846   9.2935   9.3154
     9.3557   9.3627   9.3661   9.3807   9.4056   9.4083   9.4498   9.4604
     9.4917   9.4987   9.4988   9.5242   9.5291   9.5507   9.5808   9.6098
     9.6146   9.6257   9.6395   9.6488   9.6557   9.6851   9.6890   9.7162
     9.7505   9.7560   9.7924   9.8251   9.8574   9.8857   9.8883   9.9197
     9.9277   9.9353   9.9783   9.9897   9.9980  10.0089  10.0374  10.0393
    10.0802  10.0957  10.0974  10.1676  10.2057  10.2150  10.2568  10.2616
    10.3161  10.3426  10.3437  10.3829  10.3995  10.4026  10.4137  10.4311
    10.4424  10.5081  10.5239  10.5655  10.5904  10.6249  10.6263  10.6329
    10.6452  10.6768  10.7309  10.7491

          k = 0.0000 0.0000-0.0391 (110500 PWs)   bands (ev):

   -20.9932 -20.8837 -20.8490 -20.6145 -20.4163 -20.0222 -19.8687 -19.6991
   -19.5202 -19.4751 -19.3949 -19.2541 -19.0988 -18.9912 -18.5740 -18.3273
   -18.2969 -18.1023 -18.1008 -17.7815 -17.3903 -17.2590 -17.1356 -17.1108
   -16.9716 -16.9653 -16.8712 -16.8068 -16.6591 -16.6095 -16.3133 -16.0874
   -16.0320 -15.9163 -15.8838 -15.7356 -14.7769 -14.6762 -14.3621 -14.3295
   -14.1936 -13.9771 -13.9139 -13.7617 -13.7194 -13.5954 -13.4824 -13.4277
   -13.3765 -13.3663 -13.3372 -13.1624 -12.8364 -12.5445 -12.3779 -12.2747
   -12.2021 -11.8578 -11.7500 -11.4254 -11.3908 -11.3305 -11.2225 -11.0548
   -10.9602 -10.9109 -10.7903 -10.7319 -10.5474 -10.5093 -10.4063 -10.2495
   -10.1439 -10.0118  -9.9099  -9.8343  -9.4224  -9.3987  -9.2903  -9.2648
    -9.2010  -9.0798  -9.0469  -8.9380  -8.9184  -8.9103  -8.8995  -8.8493
    -8.8068  -8.6640  -8.6581  -8.5990  -8.5612  -8.4971  -8.4927  -8.4104
    -8.3893  -8.3889  -8.3500  -8.1815  -8.1801  -8.0652  -8.0567  -7.9172
    -7.8968  -7.8446  -7.8107  -7.7055  -7.6264  -7.5904  -7.5090  -7.5073
    -7.3807  -7.2947  -7.2663  -7.1634  -7.1109  -7.0710  -6.9702  -6.9387
    -6.8440  -6.6919  -6.6602  -6.5096  -6.3513  -6.3008  -6.2908  -6.1178
    -6.1022  -6.0114  -5.9614  -5.7511  -5.7325  -5.7307  -5.7225  -5.6483
    -5.4259  -5.4094  -5.1725  -5.1257  -5.0484  -5.0014  -4.7771  -4.7619
    -4.6781  -4.5755  -4.5228  -4.5158  -4.3825  -4.2459  -3.8589  -3.6138
    -3.5852  -3.5420  -3.3611  -3.1458  -1.1951  -0.9061  -0.7134  -0.4544
    -0.3420  -0.1763   0.0679   0.0996   0.1402   0.4092   0.5157   0.5397
     0.6060   0.7887   0.8539   0.9903   0.9927   1.2399   1.2536   1.3044
     1.3303   1.3495   1.4879   1.7139   1.7181   1.7574   1.8001   1.8891
     2.0689   2.1603   2.2604   2.3668   2.3932   2.4189   2.4268   2.4632
     2.5247   2.6134   2.6638   2.7806   2.8185   2.8252   2.8551   2.8827
     2.9258   2.9312   2.9953   3.0654   3.0997   3.1229   3.1371   3.2310
     3.2629   3.2637   3.3336   3.3955   3.4393   3.4665   3.4847   3.5207
     3.5774   3.5990   3.6443   3.6977   3.7227   3.7385   3.8497   3.9651
     3.9904   4.0189   4.0301   4.0656   4.1123   4.1452   4.1896   4.2136
     4.2150   4.2504   4.3211   4.3450   4.3738   4.3804   4.3910   4.4257
     4.4373   4.4579   4.4758   4.5455   4.5833   4.5960   4.6139   4.6847
     4.6926   4.8017   4.8225   4.8254   4.8491   4.8723   4.8748   4.8764
     4.9730   4.9801   5.0041   5.0647   5.0933   5.0937   5.1249   5.2540
     5.2766   5.3353   5.3372   5.3475   5.3503   5.3809   5.3990   5.4079
     5.4087   5.4341   5.4718   5.4861   5.4994   5.5679   5.6288   5.6738
     5.6786   5.7135   5.7202   5.7684   5.8132   5.8578   5.8833   5.9759
     5.9765   5.9987   6.0023   6.0574   6.0583   6.0709   6.0867   6.0974
     6.1324   6.1469   6.1936   6.2272   6.2352   6.2798   6.2825   6.3470
     6.3494   6.4085   6.4170   6.5034   6.5107   6.6001   6.6055   6.6356
     6.6402   6.6685   6.6700   6.7007   6.7068   6.7191   6.7582   6.7895
     6.7959   6.8219   6.8689   6.8938   6.9099   6.9203   6.9772   6.9891
     7.0051   7.0074   7.0168   7.1107   7.1178   7.1196   7.1375   7.1393
     7.1834   7.1853   7.1971   7.2219   7.2296   7.2396   7.2934   7.2957
     7.3179   7.3371   7.3671   7.4129   7.4601   7.4615   7.4889   7.5290
     7.5301   7.5305   7.5465   7.5636   7.5920   7.6345   7.6398   7.6727
     7.6822   7.7403   7.7573   7.7933   7.8407   7.8434   7.8920   7.9208
     7.9591   7.9946   7.9947   8.0003   8.0257   8.0630   8.0727   8.0842
     8.1065   8.1471   8.1680   8.1840   8.2017   8.2109   8.2215   8.2270
     8.2675   8.2778   8.3114   8.3289   8.3424   8.3656   8.3788   8.3964
     8.4241   8.4291   8.4415   8.4963   8.5075   8.5205   8.5292   8.5301
     8.5837   8.5957   8.5999   8.6258   8.6476   8.6642   8.6980   8.7372
     8.7492   8.7495   8.7605   8.8036   8.8040   8.8509   8.8525   8.8819
     8.9345   8.9631   8.9719   9.0437   9.0739   9.1018   9.1047   9.1503
     9.1652   9.1817   9.2042   9.2395   9.2585   9.2838   9.2869   9.3280
     9.3549   9.3620   9.3679   9.3738   9.4244   9.4321   9.4462   9.4520
     9.4906   9.4952   9.5036   9.5086   9.5174   9.5619   9.5678   9.5983
     9.6127   9.6271   9.6366   9.6488   9.6628   9.6870   9.6875   9.7290
     9.7543   9.7558   9.7996   9.8042   9.8773   9.8942   9.8967   9.9231
     9.9310   9.9324   9.9658   9.9908  10.0046  10.0148  10.0257  10.0284
    10.0593  10.0870  10.0926  10.1596  10.2195  10.2210  10.2552  10.2583
    10.3117  10.3395  10.3493  10.3867  10.4004  10.4042  10.4172  10.4335
    10.4530  10.4931  10.5240  10.5760  10.5871  10.6215  10.6259  10.6330
    10.6399  10.6707  10.7277  10.7575

     the Fermi energy is    -2.3775 ev

     Writing output data file ANTI14-6-12_1.save/

     init_run     :     16.01s CPU     16.45s WALL (       1 calls)
     electrons    :  10618.18s CPU  10718.84s WALL (       1 calls)

     Called by init_run:
     wfcinit      :      0.00s CPU      0.00s WALL (       1 calls)
     potinit      :      1.10s CPU      1.19s WALL (       1 calls)
     hinit0       :     12.06s CPU     12.18s WALL (       1 calls)

     Called by electrons:
     c_bands      :  10618.16s CPU  10718.67s WALL (       1 calls)
     v_of_rho     :      0.84s CPU      0.89s WALL (       1 calls)
     newd         :      0.83s CPU      1.01s WALL (       1 calls)

     Called by c_bands:
     init_us_2    :      0.81s CPU      0.86s WALL (      26 calls)
     cegterg      :  10429.37s CPU  10521.42s WALL (     128 calls)

     Called by sum_band:

     Called by *egterg:
     h_psi        :   3142.60s CPU   3182.59s WALL (    2455 calls)
     s_psi        :    382.86s CPU    384.79s WALL (    2455 calls)
     g_psi        :     14.10s CPU     14.16s WALL (    2301 calls)
     cdiaghg      :   4107.84s CPU   4124.27s WALL (    2327 calls)

     Called by h_psi:
     h_psi:pot    :   3131.26s CPU   3165.68s WALL (    2455 calls)
     h_psi:calbec :    357.05s CPU    361.12s WALL (    2455 calls)
     vloc_psi     :   2391.33s CPU   2419.17s WALL (    2455 calls)
     add_vuspsi   :    382.85s CPU    385.37s WALL (    2455 calls)

     General routines
     calbec       :    357.03s CPU    361.10s WALL (    2455 calls)
     fft          :      0.90s CPU      0.97s WALL (      14 calls)
     ffts         :      0.01s CPU      0.01s WALL (       1 calls)
     fftw         :   2108.71s CPU   2133.89s WALL (  647248 calls)
     interpolate  :      0.07s CPU      0.07s WALL (       1 calls)
     davcio       :      0.00s CPU      6.10s WALL (      52 calls)

     Parallel routines
     fft_scatt_xy :    230.49s CPU    232.61s WALL (  647263 calls)
     fft_scatt_yz :   1044.28s CPU   1058.09s WALL (  647263 calls)

     PWSCF        :     2h57m CPU       57h 3m WALL

       3h

   This run was terminated on:  20:42:17  22Apr2021            

=------------------------------------------------------------------------------=
   JOB DONE.
=------------------------------------------------------------------------------=
