
     Program PWSCF v.6.3 starts on 21Apr2021 at 20:29:19 

     This program is part of the open-source Quantum ESPRESSO suite
     for quantum simulation of materials; please cite
         "P. Giannozzi et al., J. Phys.:Condens. Matter 21 395502 (2009);
         "P. Giannozzi et al., J. Phys.:Condens. Matter 29 465901 (2017);
          URL http://www.quantum-espresso.org", 
     in publications or presentations arising from this work. More details at
     http://www.quantum-espresso.org/quote

     Parallel version (MPI), running on    16 processors
     R & G space division:  proc/nbgrp/npool/nimage =      16
     Waiting for input...
     Reading input from standard input
     Message from routine read_cards :
     DEPRECATED: no units specified in CELL_PARAMETERS card

     Current dimensions of program PWSCF are:
     Max number of different atomic species (ntypx) = 10
     Max number of k-points (npk) =  40000
     Max angular momentum in pseudopotentials (lmaxx) =  3

     Atomic positions and unit cell read from directory:
     /home/zfwang/scratch/GNRDATASET/AGNR/F14/F14.save/


     Subspace diagonalization in iterative solution of the eigenvalue problem:
     a serial algorithm will be used


     Parallelization info
     --------------------
     sticks:   dense  smooth     PW     G-vecs:    dense   smooth      PW
     Min        2392     797    224                89575    17239    2582
     Max        2394     798    226                89576    17240    2583
     Sum       38285   12765   3601              1433213   275837   41313



     bravais-lattice index     =            0
     lattice parameter (alat)  =       1.8897  a.u.
     unit-cell volume          =    8072.4117 (a.u.)^3
     number of atoms/cell      =           32
     number of atomic types    =            2
     number of electrons       =       140.00
     number of Kohn-Sham states=          500
     kinetic-energy cutoff     =      40.0000  Ry
     charge density cutoff     =     480.0000  Ry
     Exchange-correlation      = PBE ( 1  4  3  4 0 0)

     celldm(1)=  18.897261  celldm(2)=   2.808000  celldm(3)=   0.426000
     celldm(4)=   0.000000  celldm(5)=   0.000000  celldm(6)=   0.000000

     crystal axes: (cart. coord. in units of alat)
               a(1) = (  10.000000   0.000000   0.000000 )  
               a(2) = (   0.000000  28.080000   0.000000 )  
               a(3) = (   0.000000   0.000000   4.260000 )  

     reciprocal axes: (cart. coord. in units 2 pi/alat)
               b(1) = (  0.100000  0.000000  0.000000 )  
               b(2) = (  0.000000  0.035613  0.000000 )  
               b(3) = (  0.000000  0.000000  0.234742 )  


     PseudoPot. # 1 for C  read from file:
     /home/zfwang/hp_home/MySoftware/qe-6.3/pseudo/C.pbe-n-rrkjus_psl.0.1.UPF
     MD5 check sum: fff530ed632a789b3b184014e67dd7f1
     Pseudo is Ultrasoft + core correction, Zval =  4.0
     Generated using "atomic" code by A. Dal Corso v.5.0.2 svn rev. 9415
     Using radial grid of 1073 points,  4 beta functions with: 
                l(1) =   0
                l(2) =   0
                l(3) =   1
                l(4) =   1
     Q(r) pseudized with 0 coefficients 


     PseudoPot. # 2 for F  read from file:
     /home/zfwang/hp_home/MySoftware/qe-6.3/pseudo/F.pbe-n-rrkjus_psl.0.1.UPF
     MD5 check sum: 147397eca92fbb10e5415488e6f13084
     Pseudo is Ultrasoft + core correction, Zval =  7.0
     Generated using "atomic" code by A. Dal Corso v.5.0.2 svn rev. 9415
     Using radial grid of 1105 points,  4 beta functions with: 
                l(1) =   0
                l(2) =   0
                l(3) =   1
                l(4) =   1
     Q(r) pseudized with 0 coefficients 


     atomic species   valence    mass     pseudopotential
        C              4.00    12.01070     C ( 1.00)
        F              7.00    18.99840     F ( 1.00)

     No symmetry found



   Cartesian axes

     site n.     atom                  positions (alat units)
         1           C   tau(   1) = (   5.0000011   6.0800846   2.8052137  )
         2           C   tau(   2) = (   5.0000012   7.2553456   3.5537495  )
         3           C   tau(   3) = (   4.9999991   6.0800863   1.4547879  )
         4           C   tau(   4) = (   5.0000015   8.4855877   2.8385819  )
         5           C   tau(   5) = (   5.0000014   9.7219451   3.5513832  )
         6           C   tau(   6) = (   5.0000004   7.2553473   0.7062522  )
         7           C   tau(   7) = (   5.0000013   8.4855879   1.4214191  )
         8           C   tau(   8) = (   5.0000003  10.9540273   2.8413463  )
         9           C   tau(   9) = (   4.9999989  12.1875647   3.5497567  )
        10           C   tau(  10) = (   5.0000012   9.7219452   0.7086175  )
        11           C   tau(  11) = (   5.0000001  10.9540274   1.4186543  )
        12           C   tau(  12) = (   4.9999981  13.4229396   2.8401776  )
        13           C   tau(  13) = (   4.9999979  14.6571074   3.5498202  )
        14           C   tau(  14) = (   4.9999988  12.1875648   0.7102428  )
        15           C   tau(  15) = (   4.9999980  13.4229399   1.4198222  )
        16           C   tau(  16) = (   4.9999981  15.8924739   2.8402461  )
        17           C   tau(  17) = (   4.9999984  17.1259836   3.5486543  )
        18           C   tau(  18) = (   4.9999978  14.6571074   0.7101792  )
        19           C   tau(  19) = (   4.9999979  15.8924735   1.4197538  )
        20           C   tau(  20) = (   4.9999990  18.3580694   2.8386292  )
        21           C   tau(  21) = (   5.0000002  19.5944030   3.5513610  )
        22           C   tau(  22) = (   4.9999982  17.1259840   0.7113451  )
        23           C   tau(  23) = (   4.9999987  18.3580700   1.4213711  )
        24           C   tau(  24) = (   5.0000018  20.8246388   2.8362976  )
        25           C   tau(  25) = (   5.0000023  21.9998984   3.5846217  )
        26           C   tau(  26) = (   5.0000001  19.5944030   0.7086398  )
        27           C   tau(  27) = (   5.0000024  20.8246387   1.4237031  )
        28           C   tau(  28) = (   5.0000046  21.9998982   0.6753786  )
        29           F   tau(  29) = (   5.0000025   4.8169805   3.2312015  )
        30           F   tau(  30) = (   4.9999957   4.8169837   1.0287952  )
        31           F   tau(  31) = (   4.9999981  23.2629479   3.1588176  )
        32           F   tau(  32) = (   5.0000060  23.2629493   1.1011816  )

     number of k points=    26  Marzari-Vanderbilt smearing, width (Ry)=  0.0100
                       cart. coord. in units 2pi/alat
        k(    1) = (   0.0000000   0.0000000   0.0000000), wk =   0.0400000
        k(    2) = (   0.0000000   0.0000000   0.0046948), wk =   0.0800000
        k(    3) = (   0.0000000   0.0000000   0.0093897), wk =   0.0800000
        k(    4) = (   0.0000000   0.0000000   0.0140845), wk =   0.0800000
        k(    5) = (   0.0000000   0.0000000   0.0187793), wk =   0.0800000
        k(    6) = (   0.0000000   0.0000000   0.0234742), wk =   0.0800000
        k(    7) = (   0.0000000   0.0000000   0.0281690), wk =   0.0800000
        k(    8) = (   0.0000000   0.0000000   0.0328638), wk =   0.0800000
        k(    9) = (   0.0000000   0.0000000   0.0375587), wk =   0.0800000
        k(   10) = (   0.0000000   0.0000000   0.0422535), wk =   0.0800000
        k(   11) = (   0.0000000   0.0000000   0.0469484), wk =   0.0800000
        k(   12) = (   0.0000000   0.0000000   0.0516432), wk =   0.0800000
        k(   13) = (   0.0000000   0.0000000   0.0563380), wk =   0.0800000
        k(   14) = (   0.0000000   0.0000000   0.0610329), wk =   0.0800000
        k(   15) = (   0.0000000   0.0000000   0.0657277), wk =   0.0800000
        k(   16) = (   0.0000000   0.0000000   0.0704225), wk =   0.0800000
        k(   17) = (   0.0000000   0.0000000   0.0751174), wk =   0.0800000
        k(   18) = (   0.0000000   0.0000000   0.0798122), wk =   0.0800000
        k(   19) = (   0.0000000   0.0000000   0.0845070), wk =   0.0800000
        k(   20) = (   0.0000000   0.0000000   0.0892019), wk =   0.0800000
        k(   21) = (   0.0000000   0.0000000   0.0938967), wk =   0.0800000
        k(   22) = (   0.0000000   0.0000000   0.0985915), wk =   0.0800000
        k(   23) = (   0.0000000   0.0000000   0.1032864), wk =   0.0800000
        k(   24) = (   0.0000000   0.0000000   0.1079812), wk =   0.0800000
        k(   25) = (   0.0000000   0.0000000   0.1126761), wk =   0.0800000
        k(   26) = (   0.0000000   0.0000000  -0.1173709), wk =   0.0400000

     Dense  grid:  1433213 G-vectors     FFT dimensions: ( 135, 375,  60)

     Smooth grid:   275837 G-vectors     FFT dimensions: (  80, 216,  36)

     Estimated max dynamical RAM per process >     436.07 MB

     Estimated total dynamical RAM >       6.81 GB

     Check: negative/imaginary core charge=   -0.000005    0.000000

     The potential is recalculated from file :
     /home/zfwang/scratch/GNRDATASET/AGNR/F14/F14.save/charge-density.dat


     negative rho (up, down):  1.871E-03 0.000E+00
     Starting wfcs are  128 randomized atomic wfcs +  372 random wfcs

     Band Structure Calculation
     Davidson diagonalization with overlap
     c_bands:  1 eigenvalues not converged
     c_bands:  1 eigenvalues not converged
     c_bands:  1 eigenvalues not converged
     c_bands:  1 eigenvalues not converged

     ethr =  7.14E-09,  avg # of iterations = 48.6

     total cpu time spent up to now is     2787.5 secs

     End of band structure calculation

          k = 0.0000 0.0000 0.0000 ( 34405 PWs)   bands (ev):

   -29.5319 -29.5294 -27.9509 -27.9482 -21.3621 -21.2075 -20.8269 -20.2639
   -19.5250 -18.6299 -17.6353 -16.6486 -16.1113 -16.0088 -15.9200 -15.6880
   -15.4858 -15.2135 -15.0746 -15.0167 -14.6075 -14.5747 -14.5665 -13.7927
   -12.9234 -12.7682 -12.5526 -12.4082 -12.1531 -12.0382 -11.4009 -11.3406
   -11.2565 -10.5402 -10.5391 -10.3094 -10.2541 -10.2524  -9.6847  -9.5700
    -9.3632  -9.3506  -8.9956  -8.6959  -8.5941  -8.4871  -8.4495  -7.9573
    -7.9550  -7.7565  -7.7127  -7.3909  -7.0012  -6.9294  -6.3321  -6.2629
    -5.9718  -5.6754  -5.4852  -5.3365  -5.1899  -5.1272  -4.9185  -4.1114
    -3.8532  -3.8224  -3.3665  -2.7685  -2.6853  -1.8391  -1.8011  -1.1473
    -0.7262  -0.7030  -0.4048  -0.2235   0.4933   1.2210   1.3681   1.6202
     1.8484   2.0167   2.3502   2.8723   2.9112   3.0028   3.0559   3.3005
     3.3280   3.3855   3.4208   3.7587   3.9512   3.9637   4.2150   4.2681
     4.4268   4.5201   4.7397   4.7498   4.8010   4.8570   5.0390   5.3963
     5.8133   5.9829   6.0064   6.0818   6.0869   6.1012   6.2347   6.2492
     6.3132   6.4865   6.6216   6.7894   6.8081   7.1203   7.3457   7.4149
     7.5057   7.5414   7.5424   7.9308   8.0285   8.2012   8.2102   8.3412
     8.3458   8.3776   8.4467   8.5229   8.5997   8.6658   8.7126   8.7737
     8.8110   8.9165   8.9870   9.0181   9.1356   9.2177   9.2447   9.2450
     9.3251   9.3363   9.3838   9.4550   9.5012   9.5467   9.5857   9.6143
     9.8119   9.8925   9.9071   9.9109   9.9847  10.0589  10.1649  10.1837
    10.2026  10.3346  10.3441  10.3585  10.3602  10.3913  10.4292  10.5621
    10.5694  10.5962  10.6161  10.6930  10.7597  10.7878  10.8551  10.9025
    10.9054  10.9699  11.0163  11.0716  11.0826  11.1038  11.1529  11.1661
    11.1709  11.1772  11.2262  11.4141  11.4906  11.5644  11.6172  11.6249
    11.6705  11.7034  11.8244  11.8490  11.8529  11.8816  11.9911  12.0289
    12.0321  12.0485  12.1146  12.2126  12.3706  12.3744  12.4407  12.4666
    12.4675  12.4960  12.5232  12.5517  12.6260  12.6361  12.7209  12.7330
    12.8602  12.9118  13.1014  13.1512  13.1959  13.2249  13.2859  13.3457
    13.3578  13.3683  13.4135  13.4257  13.5471  13.6091  13.7998  13.8401
    13.9343  14.0321  14.1224  14.1519  14.1952  14.2091  14.3226  14.3680
    14.4622  14.6442  14.7035  14.7190  14.7526  14.7780  14.8652  14.9324
    14.9549  15.0326  15.1860  15.3230  15.3260  15.4718  15.5033  15.5160
    15.5762  15.6566  15.6850  15.7836  15.8041  15.8257  15.8734  15.8984
    15.9814  15.9902  16.1802  16.2675  16.2752  16.3302  16.3943  16.4066
    16.4578  16.5506  16.5621  16.5984  16.6758  16.7189  16.7258  16.7598
    16.8067  16.8120  16.8263  16.9230  16.9397  16.9766  17.0281  17.0642
    17.1101  17.1599  17.1892  17.2126  17.2921  17.2927  17.3504  17.3681
    17.3734  17.4473  17.6016  17.6489  17.7164  17.7322  17.7496  17.7666
    17.8005  17.8091  17.8126  17.8782  17.9067  17.9158  18.1003  18.1196
    18.1337  18.1435  18.1624  18.2036  18.3255  18.5308  18.6330  18.6513
    18.6527  18.6825  18.7030  18.8480  18.8764  18.9016  18.9062  18.9807
    19.0612  19.0709  19.1883  19.2481  19.2691  19.2808  19.3371  19.3580
    19.3969  19.4509  19.5950  19.6031  19.6068  19.8096  19.9519  20.0510
    20.0828  20.0915  20.1386  20.1556  20.2173  20.3102  20.3147  20.3532
    20.4791  20.6296  20.6767  20.7038  20.7248  20.8572  20.8598  20.8960
    20.9045  20.9384  20.9422  21.0196  21.0684  21.1214  21.1282  21.1411
    21.2682  21.3296  21.4128  21.4220  21.4679  21.4968  21.5094  21.5776
    21.6109  21.6173  21.6872  21.7220  21.7332  21.8041  21.8109  21.9183
    21.9250  21.9968  22.0563  22.0610  22.2009  22.2298  22.2478  22.3086
    22.3307  22.3768  22.4288  22.4337  22.4530  22.4627  22.5228  22.5402
    22.6079  22.6079  22.6226  22.6672  22.6718  22.7726  22.8715  22.9245
    22.9886  23.0571  23.0794  23.1810  23.2271  23.3227  23.3947  23.4304
    23.5117  23.5694  23.6242  23.7208  23.7549  23.8245  23.8313  23.9249
    23.9597  24.0188  24.0463  24.1369  24.1541  24.1707  24.2035  24.3523
    24.4054  24.4223  24.5148  24.5280  24.5757  24.7828  24.8084  24.8303
    24.8748  24.8901  24.8972  24.9301  24.9613  24.9670  24.9808  25.1774
    25.1926  25.2037  25.2442  25.3661  25.4774  25.5610  25.5799  25.6100
    25.7075  25.7403  25.7744  25.7873  25.8321  25.8423  25.8929  25.9437
    25.9654  26.0560  26.1947  26.2795  26.2810  26.3127  26.4077  26.5366
    26.5734  26.5855  26.6485  26.6692  26.6906  26.7278  26.7858  26.8252
    27.0581  27.0901  27.1023  27.2021  27.2033  27.2993  27.3838  27.4477
    27.4512  27.4559  27.4865  27.5243  27.5915  27.6378  27.6495  27.6908
    27.7225  27.7420  27.8305  27.8346

          k = 0.0000 0.0000 0.0047 ( 34401 PWs)   bands (ev):

   -29.5307 -29.5282 -27.9527 -27.9500 -21.3597 -21.2051 -20.8246 -20.2616
   -19.5227 -18.6277 -17.6333 -16.6488 -16.1575 -16.0820 -15.8848 -15.7456
   -15.4414 -15.2537 -15.0415 -14.9781 -14.6568 -14.5622 -14.4657 -13.8089
   -12.9478 -12.7570 -12.5340 -12.3985 -12.1446 -12.0483 -11.3940 -11.3297
   -11.2625 -10.5733 -10.5072 -10.3002 -10.2522 -10.2506  -9.6999  -9.5597
    -9.3549  -9.3478  -8.9930  -8.6959  -8.6018  -8.4789  -8.4470  -7.9596
    -7.9573  -7.7540  -7.7057  -7.4041  -6.9959  -6.9271  -6.3504  -6.2561
    -5.9697  -5.6837  -5.4888  -5.3375  -5.1912  -5.1352  -4.9169  -4.1275
    -3.8701  -3.8222  -3.3855  -2.7751  -2.7101  -1.9831  -1.6574  -1.1203
    -0.7223  -0.6815  -0.3847  -0.2039   0.4902   1.2242   1.3713   1.6233
     1.8431   2.0198   2.3534   2.8755   2.9139   3.0057   3.0591   3.2940
     3.3312   3.3886   3.4234   3.7620   3.9544   3.9668   4.2178   4.2712
     4.4300   4.5233   4.7428   4.7463   4.8008   4.8597   5.0410   5.3995
     5.8138   5.9866   6.0101   6.0797   6.0857   6.1047   6.2247   6.2422
     6.3198   6.4980   6.6175   6.7924   6.8119   7.1035   7.3269   7.4304
     7.5094   7.5342   7.5463   7.9262   8.0158   8.2033   8.2134   8.3329
     8.3487   8.3668   8.4498   8.5216   8.5915   8.6706   8.7082   8.7771
     8.8153   8.9212   8.9711   8.9881   8.9995   9.1388   9.2342   9.2483
     9.2639   9.3169   9.3491   9.4269   9.5479   9.5715   9.6317   9.7124
     9.7931   9.8069   9.9383   9.9769  10.0606  10.0785  10.0902  10.1517
    10.2004  10.2345  10.2434  10.3212  10.3840  10.4401  10.4480  10.4832
    10.5447  10.6006  10.6358  10.7169  10.7888  10.7944  10.8585  10.9448
    10.9602  11.0025  11.0129  11.0170  11.0830  11.1408  11.1465  11.1670
    11.1783  11.2636  11.3184  11.3883  11.4569  11.4794  11.6041  11.6186
    11.6628  11.6931  11.7110  11.7648  11.7898  11.8257  11.8887  12.0013
    12.1077  12.1403  12.1837  12.2266  12.3150  12.3446  12.4088  12.4781
    12.5066  12.5246  12.6131  12.6249  12.6424  12.6915  12.7462  12.7854
    12.8436  12.8904  12.9367  13.1785  13.2007  13.2398  13.2863  13.3415
    13.3627  13.3932  13.4711  13.5919  13.6227  13.6286  13.8123  13.8612
    13.9308  14.0060  14.0171  14.1119  14.1800  14.2114  14.3439  14.3988
    14.4359  14.5347  14.6758  14.7096  14.7352  14.8787  14.9104  14.9673
    15.0782  15.0948  15.1640  15.3016  15.3277  15.4659  15.4968  15.5305
    15.6264  15.6359  15.6815  15.7685  15.7932  15.8762  15.8809  15.8823
    15.8827  15.9757  16.1553  16.2432  16.2732  16.3304  16.3849  16.3957
    16.4237  16.4376  16.5533  16.5911  16.6256  16.6726  16.6827  16.7828
    16.8112  16.8657  16.8717  16.9041  16.9701  17.0130  17.0453  17.0863
    17.1162  17.1252  17.2077  17.3078  17.3141  17.3328  17.3629  17.3775
    17.3866  17.5207  17.5937  17.6580  17.7004  17.7084  17.7475  17.7538
    17.7669  17.7744  17.8258  17.9124  17.9191  17.9775  17.9921  18.0194
    18.1418  18.1969  18.2306  18.2346  18.2359  18.4021  18.5836  18.6607
    18.6718  18.7396  18.7691  18.8214  18.8776  18.9077  18.9436  18.9770
    19.0738  19.0934  19.2002  19.2126  19.2290  19.3454  19.3742  19.3915
    19.4246  19.5446  19.5623  19.6687  19.7076  19.8527  19.9615  19.9657
    20.0465  20.1052  20.1346  20.1769  20.2207  20.2665  20.3602  20.3835
    20.5102  20.6282  20.6366  20.6510  20.7337  20.8178  20.8563  20.8636
    20.9180  20.9461  20.9517  20.9764  21.0488  21.1220  21.1337  21.1819
    21.2325  21.3672  21.3901  21.4309  21.4377  21.4732  21.5106  21.5745
    21.6242  21.6540  21.6553  21.7093  21.8062  21.8174  21.8385  21.8541
    22.0090  22.0718  22.0924  22.0931  22.2082  22.2088  22.2725  22.2948
    22.3445  22.3773  22.4186  22.4400  22.4627  22.4819  22.5153  22.5418
    22.5728  22.6149  22.6457  22.6894  22.6934  22.7731  22.8414  22.9299
    22.9343  22.9877  23.1079  23.1758  23.2463  23.3952  23.4151  23.4204
    23.4816  23.5200  23.6392  23.6527  23.7096  23.8160  23.8880  23.9294
    23.9896  24.0238  24.0379  24.0692  24.1610  24.1930  24.2077  24.2351
    24.3730  24.4425  24.5981  24.6030  24.7070  24.7595  24.7873  24.7941
    24.8132  24.8993  24.9122  24.9174  24.9180  24.9778  24.9886  25.0572
    25.1327  25.1910  25.3721  25.3823  25.4897  25.5268  25.6559  25.6757
    25.7509  25.7685  25.7809  25.7988  25.8282  25.8405  25.9402  25.9554
    25.9823  26.0566  26.1998  26.2082  26.2859  26.2920  26.3020  26.5576
    26.5756  26.6064  26.6682  26.6707  26.6759  26.7657  26.8318  26.8372
    26.9181  27.0126  27.0971  27.2033  27.2155  27.3518  27.3836  27.4280
    27.4455  27.4484  27.4515  27.4896  27.5025  27.5734  27.7160  27.7386
    27.7548  27.7737  27.7890  27.8360

          k = 0.0000 0.0000 0.0094 ( 34399 PWs)   bands (ev):

   -29.5269 -29.5245 -27.9581 -27.9554 -21.3526 -21.1981 -20.8176 -20.2548
   -19.5160 -18.6212 -17.6274 -16.6507 -16.2713 -16.2136 -15.8678 -15.8603
   -15.3691 -15.3473 -14.9519 -14.8982 -14.6928 -14.4513 -14.3506 -13.8546
   -13.0117 -12.7262 -12.4855 -12.3713 -12.1324 -12.0631 -11.3802 -11.2990
   -11.2734 -10.6112 -10.4727 -10.2737 -10.2468 -10.2451  -9.7369  -9.5366
    -9.3396  -9.3307  -8.9852  -8.6994  -8.6201  -8.4550  -8.4395  -7.9662
    -7.9639  -7.7468  -7.6861  -7.4409  -6.9827  -6.9202  -6.3925  -6.2486
    -5.9633  -5.7081  -5.4999  -5.3408  -5.1954  -5.1591  -4.9120  -4.1749
    -3.9198  -3.8218  -3.4405  -2.8041  -2.7700  -2.1445  -1.4969  -1.0446
    -0.7103  -0.6188  -0.3255  -0.1460   0.4813   1.2338   1.3807   1.6326
     1.8273   2.0289   2.3631   2.8851   2.9220   3.0144   3.0686   3.2748
     3.3408   3.3976   3.4314   3.7716   3.9640   3.9764   4.2262   4.2804
     4.4396   4.5329   4.7318   4.7521   4.8043   4.8678   5.0467   5.4089
     5.8150   5.9975   6.0211   6.0740   6.0794   6.1147   6.2049   6.2215
     6.3362   6.5285   6.6054   6.8014   6.8228   7.0561   7.2934   7.4505
     7.5090   7.5240   7.5578   7.9005   7.9978   8.2051   8.2229   8.2664
     8.3572   8.3741   8.4590   8.5239   8.5672   8.6847   8.6857   8.6901
     8.7873   8.8273   8.8521   8.9352   8.9910   9.1484   9.1504   9.1620
     9.2486   9.2580   9.2923   9.3179   9.5279   9.5546   9.6380   9.7759
     9.7850   9.9011   9.9252   9.9840  10.0065  10.0649  10.0763  10.0797
    10.1296  10.1461  10.2405  10.3623  10.4202  10.4628  10.4700  10.4956
    10.4966  10.5864  10.5909  10.6102  10.6993  10.8563  10.8612  10.9718
    11.0184  11.0594  11.0985  11.1521  11.1530  11.1591  11.2063  11.2362
    11.2691  11.2774  11.2852  11.3559  11.3577  11.3823  11.4560  11.4598
    11.6249  11.6406  11.6678  11.7155  11.7368  11.8568  11.8596  11.8688
    11.9639  12.0903  12.1728  12.2529  12.3981  12.4610  12.5118  12.5330
    12.5418  12.5776  12.5825  12.6389  12.6662  12.7204  12.7338  12.8005
    12.9591  12.9777  12.9986  13.1455  13.1614  13.2510  13.3454  13.3832
    13.4454  13.4841  13.5752  13.6822  13.6912  13.7191  13.8291  13.9160
    13.9360  13.9927  14.0247  14.1068  14.1409  14.1648  14.2198  14.3780
    14.4041  14.5619  14.6699  14.6803  14.7372  14.8937  14.9840  15.1149
    15.1715  15.2292  15.2376  15.2570  15.3275  15.4420  15.4707  15.5893
    15.5907  15.6378  15.7038  15.7736  15.7839  15.7957  15.8785  15.8846
    15.9230  15.9775  16.0767  16.1652  16.2477  16.2764  16.2916  16.2974
    16.3133  16.3761  16.4169  16.5597  16.6402  16.6868  16.7332  16.8009
    16.8621  16.8667  16.8919  16.9011  16.9359  16.9594  17.0282  17.1157
    17.1595  17.1866  17.2250  17.3794  17.4005  17.4100  17.4294  17.4393
    17.5380  17.5958  17.6108  17.6145  17.6184  17.6952  17.7097  17.7395
    17.7573  17.7837  17.8432  17.8736  17.8992  17.9542  18.0320  18.0426
    18.0452  18.1880  18.2304  18.2814  18.2901  18.3327  18.4349  18.5374
    18.6490  18.7639  18.8554  18.8675  18.9556  18.9665  18.9715  18.9741
    19.0547  19.1557  19.2033  19.2585  19.3036  19.3411  19.4156  19.5157
    19.5472  19.6005  19.7396  19.7695  19.8375  19.8391  19.8843  19.9989
    20.0110  20.1457  20.1851  20.2094  20.2337  20.2701  20.3964  20.4028
    20.5214  20.5376  20.5459  20.6427  20.7176  20.7498  20.7932  20.8539
    20.8637  20.9637  20.9906  21.0453  21.0625  21.0886  21.1269  21.1476
    21.1654  21.2164  21.2994  21.4655  21.4919  21.4923  21.5224  21.6397
    21.6507  21.7030  21.7347  21.8050  21.8057  21.8409  21.8831  21.9359
    22.0011  22.1082  22.1423  22.1700  22.2121  22.2291  22.2862  22.2971
    22.3091  22.3532  22.4511  22.4787  22.4809  22.4948  22.5401  22.5721
    22.5773  22.6512  22.7037  22.7122  22.7353  22.7879  22.8080  22.8701
    22.9074  22.9715  23.0895  23.1607  23.2855  23.3172  23.3384  23.3771
    23.3957  23.6152  23.6763  23.6824  23.7239  23.7937  23.8392  23.8961
    23.9453  23.9480  24.0265  24.0348  24.1591  24.1651  24.1938  24.3033
    24.3669  24.5476  24.6000  24.6214  24.6347  24.6675  24.7463  24.8312
    24.8435  24.9074  24.9091  24.9092  24.9835  24.9908  25.0122  25.0284
    25.1359  25.1848  25.2655  25.3899  25.5670  25.6388  25.6791  25.7210
    25.7758  25.7949  25.8396  25.8409  25.8490  25.9404  25.9530  25.9923
    26.0473  26.0856  26.1414  26.2104  26.2235  26.2388  26.3229  26.5433
    26.5460  26.5703  26.5762  26.6747  26.7549  26.7908  26.7953  26.8407
    26.9166  26.9243  27.0991  27.1104  27.2127  27.2926  27.3142  27.3233
    27.3236  27.3508  27.4855  27.5131  27.5695  27.6385  27.7165  27.7740
    27.7842  27.8342  27.8361  27.8657

          k = 0.0000 0.0000 0.0141 ( 34401 PWs)   bands (ev):

   -29.5207 -29.5182 -27.9670 -27.9643 -21.3408 -21.1864 -20.8060 -20.2433
   -19.5047 -18.6103 -17.6177 -16.6601 -16.4134 -16.3671 -16.0140 -15.8713
   -15.4527 -15.3358 -14.8424 -14.8258 -14.6185 -14.3083 -14.2259 -13.9225
   -13.0999 -12.6829 -12.4175 -12.3308 -12.1612 -12.0322 -11.3865 -11.2619
   -11.2527 -10.6552 -10.4338 -10.2377 -10.2360 -10.2319  -9.7860  -9.5086
    -9.3258  -9.2924  -8.9721  -8.7202  -8.6319  -8.4270  -8.4176  -7.9772
    -7.9749  -7.7347  -7.6570  -7.4954  -6.9675  -6.9086  -6.4476  -6.2503
    -5.9527  -5.7472  -5.5186  -5.3467  -5.2034  -5.1984  -4.9040  -4.2507
    -3.9988  -3.8217  -3.5265  -2.9000  -2.8093  -2.3061  -1.3367  -0.9323
    -0.6895  -0.5198  -0.2307  -0.0526   0.4668   1.2498   1.3964   1.6481
     1.8013   2.0442   2.3793   2.9012   2.9353   3.0289   3.0845   3.2431
     3.3568   3.4126   3.4447   3.7876   3.9801   3.9923   4.2402   4.2956
     4.4557   4.5488   4.7019   4.7675   4.8163   4.8812   5.0561   5.4246
     5.8156   6.0155   6.0394   6.0607   6.0666   6.1309   6.1874   6.1918
     6.3597   6.5724   6.5869   6.8160   6.8387   6.9863   7.2570   7.4536
     7.4731   7.5424   7.5768   7.8480   8.0003   8.1269   8.2360   8.2388
     8.3157   8.3709   8.4741   8.4749   8.5274   8.5362   8.5666   8.7011
     8.7065   8.8044   8.8450   8.9573   8.9587   8.9945   9.0606   9.1642
     9.2213   9.2366   9.2513   9.2742   9.4407   9.4523   9.5853   9.6590
     9.6937   9.7565   9.8274   9.8315  10.0407  10.0593  10.0847  10.0870
    10.2257  10.2637  10.3405  10.3484  10.3843  10.4076  10.4194  10.4268
    10.4917  10.5014  10.6249  10.7316  10.8058  10.8731  10.9113  10.9455
    11.0089  11.0628  11.0634  11.1151  11.1210  11.1371  11.1516  11.1942
    11.2487  11.2812  11.3105  11.3411  11.3708  11.4206  11.4781  11.5081
    11.5482  11.5615  11.5896  11.6373  11.7420  11.7740  11.8223  11.8487
    11.9592  12.1106  12.1785  12.2195  12.3206  12.3413  12.4868  12.5288
    12.5857  12.6271  12.6312  12.6535  12.6926  12.7720  12.8320  13.0231
    13.0744  13.0918  13.1063  13.1543  13.3197  13.3433  13.3799  13.4277
    13.4553  13.5118  13.5357  13.6929  13.7182  13.8482  13.8870  13.9172
    13.9947  14.0530  14.1095  14.1200  14.2097  14.2167  14.2746  14.3276
    14.4373  14.5254  14.6137  14.6332  14.8115  14.8814  15.0373  15.1175
    15.1670  15.2338  15.2672  15.3556  15.3619  15.3843  15.4808  15.6204
    15.6728  15.6841  15.6971  15.7546  15.7664  15.8337  15.8938  15.9035
    15.9083  15.9603  16.0272  16.0803  16.1350  16.1695  16.2327  16.2391
    16.2541  16.3727  16.4501  16.5416  16.6423  16.6662  16.6683  16.7652
    16.8222  16.8419  16.8577  16.9158  16.9481  16.9561  17.0119  17.0864
    17.1776  17.2643  17.3184  17.3948  17.4062  17.4576  17.4616  17.4906
    17.4923  17.5065  17.5457  17.5931  17.6898  17.6914  17.7641  17.7869
    17.8562  17.8572  17.8662  17.9088  17.9099  17.9562  17.9738  18.0243
    18.1471  18.1732  18.2523  18.3090  18.3387  18.3720  18.3931  18.4834
    18.5597  18.7291  18.8772  18.9093  18.9845  18.9907  19.0261  19.0442
    19.0866  19.2337  19.2960  19.2985  19.3628  19.4082  19.4674  19.6474
    19.6612  19.6625  19.7470  19.7884  19.8983  19.9206  19.9944  20.1016
    20.1062  20.2008  20.2112  20.2175  20.3270  20.3798  20.3906  20.4068
    20.4376  20.4852  20.5628  20.6581  20.6729  20.6944  20.7166  20.8199
    20.8242  20.8946  20.9071  20.9883  20.9977  21.0638  21.1674  21.1876
    21.1882  21.2617  21.2725  21.4305  21.5287  21.5381  21.5442  21.6650
    21.7016  21.7379  21.7859  21.8663  21.8902  21.9066  21.9393  22.0276
    22.0371  22.1131  22.1373  22.1537  22.1572  22.2471  22.2711  22.2717
    22.3010  22.3980  22.4374  22.4614  22.5376  22.5405  22.5851  22.6243
    22.6849  22.7034  22.7081  22.7418  22.8255  22.8307  22.8424  22.8880
    22.9394  22.9693  23.0431  23.1712  23.1914  23.2152  23.3002  23.3372
    23.3976  23.5549  23.6469  23.6514  23.7187  23.7469  23.8211  23.9391
    23.9545  24.0092  24.0233  24.0518  24.0845  24.1029  24.2288  24.2459
    24.3669  24.4090  24.4678  24.6186  24.6690  24.6877  24.7305  24.7823
    24.8675  24.9272  24.9363  24.9390  25.0330  25.0378  25.0550  25.0614
    25.1787  25.2686  25.2851  25.4810  25.5225  25.6153  25.6190  25.7180
    25.7662  25.7803  25.9120  25.9127  25.9303  25.9649  25.9800  26.0080
    26.0228  26.1935  26.2161  26.2291  26.2855  26.3002  26.3646  26.5096
    26.5163  26.5279  26.5662  26.6793  26.6809  26.7291  26.8002  26.8131
    26.8601  26.9037  27.0420  27.1046  27.1596  27.1818  27.2264  27.2477
    27.3391  27.3422  27.4290  27.5341  27.5743  27.6010  27.8062  27.8161
    27.8297  27.8464  27.8744  27.9151

          k = 0.0000 0.0000 0.0188 ( 34393 PWs)   bands (ev):

   -29.5121 -29.5096 -27.9794 -27.9768 -21.3243 -21.1701 -20.7898 -20.2273
   -19.4890 -18.5951 -17.6043 -16.7030 -16.5412 -16.5319 -16.1663 -15.9248
   -15.5413 -15.3712 -14.7827 -14.6810 -14.4658 -14.1495 -14.0905 -14.0041
   -13.2026 -12.6384 -12.3381 -12.2786 -12.2103 -11.9674 -11.4263 -11.2142
   -11.1948 -10.7057 -10.3889 -10.2249 -10.2233 -10.1780  -9.8427  -9.4773
    -9.3066  -9.2430  -8.9539  -8.7657  -8.6255  -8.4096  -8.3697  -7.9924
    -7.9902  -7.7178  -7.6224  -7.5623  -6.9558  -6.8924  -6.5124  -6.2638
    -5.9379  -5.7992  -5.5450  -5.3564  -5.2522  -5.2159  -4.8929  -4.3511
    -4.1027  -3.8233  -3.6361  -3.0315  -2.8472  -2.4673  -1.1774  -0.7988
    -0.6562  -0.3906  -0.1048   0.0724   0.4473   1.2723   1.4183   1.6697
     1.7657   2.0655   2.4019   2.9236   2.9540   3.0491   3.1064   3.1999
     3.3791   3.4337   3.4633   3.8099   4.0026   4.0146   4.2597   4.3169
     4.4783   4.5711   4.6575   4.7889   4.8368   4.8998   5.0691   5.4467
     5.8132   6.0267   6.0405   6.0599   6.0646   6.1407   6.1533   6.1934
     6.3894   6.5647   6.6266   6.8358   6.8477   6.9134   7.2105   7.4218
     7.4359   7.5696   7.6032   7.7903   7.9742   8.0177   8.0719   8.2529
     8.2609   8.3217   8.3883   8.4170   8.4704   8.4974   8.5553   8.6333
     8.7328   8.7750   8.8283   8.8643   8.9590   8.9920   8.9972   9.1126
     9.1233   9.1858   9.1945   9.2957   9.3412   9.3426   9.4842   9.4986
     9.5012   9.5187   9.7725   9.9042   9.9378  10.0315  10.0469  10.0919
    10.1035  10.1295  10.3163  10.3174  10.3519  10.4415  10.4999  10.5424
    10.6227  10.6491  10.6709  10.7267  10.8199  10.8360  10.8729  10.9303
    10.9480  10.9639  11.0125  11.0218  11.0435  11.0779  11.1321  11.1845
    11.2167  11.2217  11.2401  11.3578  11.3835  11.4715  11.4842  11.5007
    11.5594  11.5890  11.6160  11.7181  11.7532  11.8212  11.8236  11.8715
    11.9556  12.0756  12.0858  12.1482  12.2434  12.3830  12.4430  12.4853
    12.4923  12.6022  12.6764  12.6999  12.7385  12.9513  13.0763  13.0886
    13.0934  13.1160  13.2698  13.2882  13.3226  13.3403  13.4631  13.4692
    13.5114  13.5464  13.6233  13.7831  13.8063  13.8468  13.8660  14.0712
    14.0731  14.0784  14.1368  14.1987  14.2631  14.3882  14.4313  14.4575
    14.5258  14.5722  14.5873  14.6279  14.6908  14.7895  14.9852  15.0883
    15.1066  15.1783  15.2792  15.3240  15.3607  15.4087  15.5208  15.6679
    15.6803  15.7226  15.7439  15.7801  15.7966  15.8207  15.8345  15.8999
    15.9501  15.9540  16.0095  16.0435  16.1217  16.1364  16.1875  16.3421
    16.3979  16.4367  16.4783  16.5033  16.5488  16.5773  16.6496  16.7030
    16.7142  16.8391  16.8474  16.8536  16.9353  16.9584  16.9755  17.0137
    17.1805  17.2958  17.3088  17.3381  17.3476  17.3991  17.3992  17.4177
    17.4371  17.4694  17.6025  17.6260  17.7113  17.7126  17.7414  17.8055
    17.8785  17.8975  17.9614  17.9758  18.0222  18.0709  18.1075  18.1186
    18.1230  18.2832  18.2912  18.3304  18.3354  18.4173  18.4213  18.5701
    18.6698  18.7786  18.8278  18.8530  18.9791  19.0121  19.1039  19.1271
    19.1787  19.2391  19.2775  19.3183  19.4457  19.4503  19.6136  19.6857
    19.7039  19.7243  19.7938  19.9128  19.9646  20.0045  20.0471  20.1783
    20.1857  20.2684  20.2688  20.3510  20.3834  20.4351  20.4413  20.4565
    20.5077  20.5429  20.5912  20.6132  20.6550  20.6724  20.6757  20.6968
    20.7451  20.8048  20.8446  20.9210  20.9792  21.0755  21.1939  21.2846
    21.2871  21.3237  21.3363  21.4198  21.5431  21.5511  21.5926  21.6604
    21.7218  21.7522  21.7665  21.9045  21.9148  21.9313  21.9666  22.0572
    22.0782  22.0851  22.1015  22.1827  22.2045  22.2108  22.2451  22.3068
    22.3868  22.4045  22.4195  22.4803  22.5212  22.5780  22.6386  22.6475
    22.7007  22.7405  22.7514  22.8141  22.8162  22.8718  22.8739  22.9672
    22.9950  23.0989  23.1194  23.1300  23.1969  23.2105  23.2429  23.3715
    23.3883  23.4749  23.5799  23.5948  23.6853  23.6928  23.7845  23.9658
    23.9886  24.0016  24.0203  24.0273  24.0398  24.0924  24.1562  24.2312
    24.3595  24.3711  24.4445  24.5304  24.5659  24.6182  24.7254  24.8858
    24.9087  24.9182  24.9292  24.9656  24.9757  25.0403  25.1194  25.2033
    25.3145  25.3262  25.3441  25.4893  25.5576  25.5738  25.6323  25.6630
    25.7166  25.8221  25.8694  25.9054  25.9234  25.9397  25.9622  26.0852
    26.1021  26.2132  26.2791  26.3031  26.4085  26.4424  26.4645  26.4977
    26.5267  26.5531  26.5684  26.6486  26.6808  26.6864  26.7131  26.7568
    26.8161  26.9258  27.0133  27.0843  27.0874  27.0918  27.1389  27.2478
    27.2659  27.3677  27.4485  27.4695  27.5440  27.6054  27.8199  27.8434
    27.8473  27.9119  27.9442  27.9684

          k = 0.0000 0.0000 0.0235 ( 34409 PWs)   bands (ev):

   -29.5010 -29.4985 -27.9953 -27.9926 -21.3031 -21.1491 -20.7690 -20.2067
   -19.4687 -18.5755 -17.5874 -16.8260 -16.7022 -16.6089 -16.3091 -16.0219
   -15.6008 -15.4581 -14.7012 -14.5307 -14.2847 -14.0911 -13.9805 -13.9435
   -13.3138 -12.6118 -12.2627 -12.2439 -12.2050 -11.8873 -11.4833 -11.1459
   -11.1285 -10.7620 -10.3377 -10.2087 -10.2071 -10.1170  -9.9025  -9.4425
    -9.2819  -9.1869  -8.9304  -8.8241  -8.6072  -8.3871  -8.3146  -8.0119
    -8.0097  -7.6961  -7.6377  -7.5863  -6.9512  -6.8716  -6.5850  -6.2896
    -5.9189  -5.8627  -5.5791  -5.3756  -5.3149  -5.2336  -4.8788  -4.4718
    -4.2266  -3.8376  -3.7524  -3.1798  -2.8930  -2.6278  -1.0192  -0.6814
    -0.5824  -0.2378   0.0473   0.2245   0.4240   1.3011   1.4466   1.6975
     1.7212   2.0929   2.4308   2.9525   2.9777   3.0748   3.1296   3.1508
     3.4078   3.4607   3.4871   3.8385   4.0315   4.0432   4.2847   4.3442
     4.5073   4.5998   4.6001   4.8163   4.8646   4.9235   5.0852   5.4749
     5.8048   5.9827   6.0575   6.0722   6.0777   6.1007   6.1821   6.2066
     6.4241   6.5427   6.6909   6.7879   6.8588   6.9059   7.1391   7.3566
     7.4147   7.6045   7.6368   7.7199   7.7669   7.8361   8.0442   8.0948
     8.2488   8.2892   8.3016   8.3981   8.4015   8.5237   8.5325   8.5841
     8.6976   8.7564   8.8572   8.8778   8.8812   8.9277   8.9537   8.9987
     9.0335   9.1220   9.1846   9.1873   9.2175   9.2593   9.2714   9.3325
     9.4040   9.5222   9.7181   9.7570   9.7911   9.9292   9.9648  10.0659
    10.1275  10.1300  10.1954  10.3333  10.3530  10.3883  10.4556  10.5219
    10.5843  10.6232  10.6761  10.7720  10.8102  10.8294  10.8851  10.8856
    10.9099  10.9156  10.9236  10.9898  11.0034  11.0994  11.1325  11.1499
    11.1622  11.2238  11.2778  11.3069  11.3883  11.4780  11.5119  11.5825
    11.6105  11.6964  11.7166  11.7287  11.7361  11.7949  11.8440  11.8521
    11.9388  11.9995  12.0528  12.1849  12.1969  12.4113  12.4316  12.4407
    12.4953  12.6112  12.7171  12.8232  12.8307  12.9354  12.9905  13.0104
    13.1155  13.2284  13.2719  13.3127  13.3881  13.5364  13.5412  13.5531
    13.6215  13.6720  13.8006  13.8789  13.8953  13.9421  14.0291  14.0580
    14.1578  14.1702  14.1866  14.2164  14.3741  14.4433  14.4849  14.5192
    14.5299  14.6685  14.6747  14.7660  14.7733  14.8142  14.8646  14.9636
    14.9649  15.0555  15.2894  15.3142  15.3708  15.4022  15.4340  15.6230
    15.6830  15.7202  15.7281  15.7777  15.8060  15.8445  15.8606  15.9372
    15.9789  16.0059  16.0360  16.0956  16.2244  16.2887  16.3312  16.3423
    16.3992  16.4830  16.4909  16.5047  16.5674  16.5828  16.5854  16.6389
    16.7000  16.7430  16.7733  16.8650  16.8767  16.8861  16.9707  16.9726
    17.1129  17.1436  17.1990  17.2001  17.3444  17.3469  17.3745  17.3811
    17.4146  17.5333  17.5353  17.5836  17.7339  17.7978  17.8003  17.8337
    17.8959  17.9013  17.9016  18.0722  18.0979  18.1234  18.1501  18.2106
    18.3265  18.3753  18.3953  18.4332  18.4839  18.5311  18.5373  18.7332
    18.7688  18.8096  18.8214  18.9318  18.9429  19.0291  19.0370  19.0780
    19.1645  19.3605  19.3773  19.3787  19.4737  19.5465  19.5989  19.6362
    19.7764  19.9037  19.9445  19.9574  20.0116  20.0772  20.0857  20.1684
    20.2700  20.3466  20.3504  20.3628  20.4085  20.4269  20.4530  20.4921
    20.5220  20.5885  20.6371  20.6713  20.6758  20.7078  20.7291  20.7722
    20.7739  20.8161  20.9036  20.9223  21.0078  21.1218  21.2326  21.3023
    21.3443  21.4016  21.4145  21.4168  21.5047  21.5289  21.6372  21.6810
    21.7149  21.7809  21.7942  21.8832  21.9034  21.9243  21.9391  22.0244
    22.0668  22.0908  22.1221  22.1639  22.2225  22.2346  22.2475  22.3287
    22.3449  22.3875  22.4756  22.5002  22.5235  22.6306  22.6645  22.6768
    22.7172  22.7568  22.8098  22.8231  22.8326  22.8808  22.8820  22.9582
    23.0874  23.1491  23.2150  23.2218  23.2426  23.3276  23.3456  23.3564
    23.3712  23.4954  23.5765  23.6125  23.6306  23.6664  23.8233  23.8684
    23.8833  23.9574  23.9637  24.0197  24.0276  24.0986  24.1284  24.1753
    24.3535  24.3769  24.3940  24.4136  24.6233  24.6836  24.7509  24.7870
    24.8069  24.8548  24.9753  24.9889  25.0039  25.1109  25.1775  25.2266
    25.2527  25.4324  25.4362  25.4870  25.5146  25.6013  25.6517  25.6690
    25.7089  25.7691  25.8525  25.9281  25.9397  25.9666  26.0371  26.1574
    26.1881  26.2438  26.3182  26.3494  26.3895  26.4301  26.4313  26.4612
    26.5627  26.6090  26.6200  26.6644  26.7069  26.7302  26.7771  26.8310
    26.8594  26.8653  26.9318  26.9974  27.0849  27.1248  27.1348  27.1920
    27.2826  27.3209  27.4095  27.5161  27.5576  27.6349  27.8086  27.8808
    27.9200  27.9799  27.9877  27.9920

          k = 0.0000 0.0000 0.0282 ( 34428 PWs)   bands (ev):

   -29.4875 -29.4850 -28.0144 -28.0117 -21.2772 -21.1234 -20.7435 -20.1816
   -19.4441 -18.5518 -17.5678 -16.9913 -16.8742 -16.6747 -16.4140 -16.1501
   -15.6392 -15.5712 -14.6141 -14.3913 -14.1681 -14.0900 -13.8042 -13.7848
   -13.4294 -12.6278 -12.2329 -12.2032 -12.1040 -11.7981 -11.5463 -11.0660
   -11.0580 -10.8205 -10.2800 -10.1891 -10.1874 -10.0658  -9.9491  -9.4035
    -9.2516  -9.1335  -8.9018  -8.8816  -8.5815  -8.3598  -8.2557  -8.0354
    -8.0331  -7.7186  -7.6695  -7.5519  -6.9564  -6.8462  -6.6641  -6.3276
    -5.9365  -5.8959  -5.6204  -5.4304  -5.3605  -5.2570  -4.8622  -4.6085
    -4.3656  -3.9348  -3.8004  -3.3381  -2.9469  -2.7870  -0.8626  -0.6203
    -0.4342  -0.0674   0.2210   0.3944   0.4035   1.3364   1.4810   1.6687
     1.7315   2.1262   2.4662   2.9877   3.0065   3.0784   3.1060   3.1725
     3.4428   3.4938   3.5163   3.8734   4.0667   4.0782   4.3149   4.3775
     4.5313   4.5427   4.6348   4.8495   4.8994   4.9520   5.1042   5.5093
     5.7877   5.9342   6.0093   6.0625   6.1103   6.1377   6.2170   6.2266
     6.4622   6.5251   6.6975   6.7669   6.8764   6.9293   7.0467   7.2784
     7.4054   7.5052   7.5896   7.6465   7.6490   7.6772   7.9321   8.0435
     8.0781   8.3160   8.3176   8.3235   8.3289   8.4787   8.5564   8.6152
     8.6414   8.6655   8.7584   8.7877   8.8607   8.8869   8.9042   8.9646
     9.0050   9.0310   9.0338   9.0580   9.0651   9.1064   9.2503   9.3612
     9.3679   9.3965   9.5346   9.6554   9.6916   9.8379   9.8706  10.0482
    10.0945  10.1001  10.1639  10.2002  10.3231  10.3575  10.3878  10.4467
    10.4584  10.5575  10.6152  10.6560  10.7021  10.7324  10.7839  10.7954
    10.8342  10.9265  10.9328  11.0152  11.1038  11.1575  11.1818  11.1882
    11.2004  11.2785  11.3725  11.4258  11.4848  11.5247  11.5363  11.5556
    11.6123  11.6353  11.6465  11.7125  11.7946  11.8223  11.8593  11.8655
    11.9315  11.9805  12.1260  12.1486  12.2010  12.3342  12.3653  12.5285
    12.6200  12.6588  12.7420  12.8487  12.8658  12.8720  12.9470  13.0146
    13.1186  13.1929  13.2237  13.2968  13.5522  13.6591  13.6945  13.7663
    13.7697  13.7949  13.9064  13.9807  13.9826  14.0794  14.0934  14.1096
    14.2261  14.2613  14.2802  14.2890  14.3742  14.4120  14.4485  14.4911
    14.6555  14.6622  14.6909  14.8371  14.8407  14.8435  14.9585  15.0214
    15.0365  15.0577  15.1797  15.2888  15.3033  15.3140  15.4219  15.6172
    15.6333  15.6582  15.7805  15.8045  15.8325  15.8656  15.9056  15.9964
    16.0276  16.0754  16.1154  16.2092  16.2216  16.3106  16.3516  16.3836
    16.4363  16.4528  16.5014  16.5287  16.5454  16.5661  16.6263  16.6489
    16.7150  16.7633  16.7663  16.7785  16.8569  16.8915  16.9349  16.9916
    17.0091  17.0885  17.0913  17.1167  17.2633  17.2822  17.3337  17.3650
    17.4495  17.4555  17.5343  17.6906  17.7333  17.7356  17.7644  17.8385
    17.8570  17.9416  17.9469  18.0928  18.2019  18.2199  18.2739  18.2940
    18.4967  18.5242  18.5245  18.5320  18.5714  18.6397  18.6845  18.7235
    18.8249  18.8812  18.8850  18.9437  19.0144  19.0419  19.0521  19.1407
    19.2278  19.3558  19.4912  19.4966  19.5321  19.5637  19.5828  19.7850
    19.8829  19.9437  19.9475  20.0279  20.1158  20.1498  20.1572  20.1692
    20.1858  20.2063  20.3069  20.4105  20.4235  20.4633  20.4986  20.5416
    20.5700  20.6992  20.7018  20.7171  20.7322  20.7781  20.7911  20.7976
    20.9380  20.9665  21.0243  21.1261  21.1846  21.1862  21.2909  21.2994
    21.3157  21.3804  21.4367  21.4511  21.5199  21.5676  21.5889  21.7197
    21.7570  21.7725  21.8009  21.8852  21.9076  21.9406  21.9677  21.9901
    22.0017  22.0449  22.0881  22.1003  22.1567  22.2422  22.3273  22.3679
    22.4075  22.4398  22.4552  22.5058  22.5132  22.5883  22.5891  22.6512
    22.6848  22.7823  22.7880  22.8212  22.8685  22.9087  22.9508  23.0591
    23.1875  23.1942  23.2487  23.2545  23.3221  23.3495  23.3824  23.4804
    23.5028  23.5484  23.5853  23.6523  23.6611  23.7017  23.8208  23.8281
    23.8621  23.9433  23.9897  24.0050  24.0505  24.0673  24.1595  24.1709
    24.1913  24.2391  24.3854  24.3926  24.5557  24.6677  24.7600  24.7714
    24.9042  24.9072  24.9139  25.0129  25.0547  25.0853  25.1611  25.1906
    25.2289  25.3236  25.3302  25.5488  25.5557  25.5755  25.6967  25.7329
    25.7575  25.8236  25.9360  25.9453  25.9797  25.9855  26.0281  26.2088
    26.2174  26.2917  26.3265  26.3402  26.4228  26.4352  26.4902  26.5078
    26.5676  26.5792  26.5860  26.6518  26.7302  26.7410  26.8016  26.8136
    26.9085  26.9145  26.9163  27.0388  27.1136  27.1803  27.1976  27.2533
    27.2734  27.3912  27.4988  27.5521  27.6150  27.7309  27.7557  27.8257
    27.9148  27.9368  27.9465  27.9934

          k = 0.0000 0.0000 0.0329 ( 34412 PWs)   bands (ev):

   -29.4716 -29.4692 -28.0366 -28.0340 -21.2466 -21.0930 -20.7134 -20.1519
   -19.4149 -18.5238 -17.5469 -17.1663 -17.0444 -16.7903 -16.4587 -16.2944
   -15.6966 -15.6697 -14.5311 -14.3335 -14.1646 -13.8894 -13.6209 -13.6177
   -13.5424 -12.6880 -12.1734 -12.1539 -11.9888 -11.7037 -11.6065 -10.9997
   -10.9783 -10.8646 -10.2161 -10.1660 -10.1644 -10.0853  -9.9222  -9.3599
    -9.2159  -9.1082  -8.9116  -8.8680  -8.5498  -8.3275  -8.1972  -8.0626
    -8.0604  -7.8020  -7.6382  -7.5220  -6.9724  -6.8163  -6.7487  -6.3770
    -6.0195  -5.8688  -5.6687  -5.5240  -5.3853  -5.2860  -4.8438  -4.7576
    -4.5154  -4.0844  -3.8067  -3.5021  -3.0081  -2.9446  -0.7080  -0.5722
    -0.2598   0.1127   0.3750   0.4123   0.5942   1.3780   1.5217   1.6092
     1.7715   2.1654   2.5079   3.0050   3.0294   3.0401   3.1425   3.2135
     3.4841   3.5328   3.5507   3.9145   4.1080   4.1196   4.3502   4.4165
     4.4526   4.5845   4.6762   4.8882   4.9408   4.9851   5.1253   5.5497
     5.7612   5.8842   5.9285   6.0765   6.1547   6.1836   6.2501   6.2581
     6.5002   6.5152   6.6136   6.8417   6.8526   6.9489   6.9931   7.1879
     7.2451   7.3516   7.4439   7.4729   7.6953   7.7241   7.8041   7.8213
     8.1179   8.1957   8.2201   8.3455   8.3630   8.4011   8.4371   8.5388
     8.5910   8.6495   8.6837   8.6854   8.7344   8.8162   8.8661   8.9035
     8.9093   8.9184   8.9372   8.9614   9.0335   9.1565   9.1775   9.2680
     9.2897   9.3758   9.4001   9.5870   9.5903   9.7294   9.8513   9.8736
     9.8921  10.0804  10.1067  10.1314  10.2015  10.2493  10.2994  10.3929
    10.4152  10.5580  10.5722  10.5896  10.6049  10.6509  10.7041  10.7176
    10.7545  10.8167  10.8975  11.0129  11.1720  11.1782  11.2216  11.2355
    11.3441  11.3718  11.4054  11.4338  11.4902  11.5231  11.5949  11.6041
    11.6240  11.6459  11.6872  11.7160  11.8139  11.8252  11.8964  11.9500
    11.9503  12.0121  12.0623  12.1832  12.2039  12.3018  12.3436  12.5100
    12.5946  12.6776  12.7675  12.8134  12.8685  12.9214  13.0274  13.0540
    13.0878  13.1937  13.3425  13.3818  13.5800  13.6016  13.8153  13.9172
    13.9392  13.9494  13.9924  14.0059  14.0332  14.0868  14.1848  14.1928
    14.2162  14.2526  14.2567  14.3766  14.4681  14.5420  14.5521  14.5672
    14.6654  14.6835  14.6952  14.7525  14.7624  14.9277  14.9785  15.0778
    15.1305  15.1714  15.2013  15.3470  15.3544  15.4116  15.4758  15.5611
    15.6198  15.6519  15.7905  15.8318  15.9040  15.9274  15.9414  16.0249
    16.0388  16.0774  16.0824  16.2217  16.2762  16.3215  16.3430  16.3443
    16.3775  16.4143  16.4494  16.5153  16.5496  16.6273  16.6467  16.6781
    16.6926  16.7742  16.7805  16.8103  16.8298  16.8724  17.0013  17.0302
    17.0391  17.0625  17.1480  17.1577  17.2170  17.2451  17.3568  17.3619
    17.3972  17.4722  17.4898  17.5390  17.7181  17.7403  17.8479  17.8853
    17.8979  17.9814  18.0092  18.1543  18.2540  18.2849  18.4034  18.4069
    18.4708  18.5277  18.5589  18.6060  18.6724  18.6981  18.7193  18.7782
    18.8125  18.8798  18.9819  19.0943  19.1308  19.1471  19.1995  19.2426
    19.3698  19.3938  19.4737  19.5333  19.6247  19.7211  19.8021  19.8732
    19.9196  19.9341  19.9560  20.0118  20.0366  20.0919  20.2005  20.2060
    20.3039  20.3497  20.3669  20.3788  20.3890  20.4325  20.4846  20.6151
    20.6443  20.6691  20.7742  20.7803  20.8156  20.8355  20.9120  20.9688
    21.0594  21.1411  21.2061  21.2069  21.2216  21.2614  21.4007  21.4091
    21.4177  21.4208  21.4652  21.4956  21.5310  21.5401  21.6357  21.6991
    21.7314  21.7479  21.8171  21.9135  21.9398  21.9556  21.9744  21.9787
    21.9820  21.9991  22.0485  22.0671  22.1741  22.2643  22.3659  22.3972
    22.4045  22.4518  22.4598  22.4746  22.5356  22.5412  22.5898  22.5985
    22.6013  22.7178  22.7582  22.7710  22.9218  22.9533  22.9987  23.0667
    23.0941  23.2623  23.3278  23.4107  23.4244  23.4715  23.4955  23.5234
    23.5743  23.5763  23.5841  23.6583  23.6733  23.7651  23.8344  23.8588
    23.8934  23.9039  24.0113  24.0844  24.0980  24.1208  24.1320  24.1629
    24.2354  24.2606  24.3615  24.3995  24.5209  24.5279  24.7051  24.7996
    24.8078  24.8434  24.9648  25.0190  25.0963  25.1081  25.1144  25.1446
    25.2305  25.3382  25.3415  25.4323  25.5757  25.6074  25.7016  25.7220
    25.7429  25.8190  25.8905  26.0209  26.0467  26.0587  26.1848  26.2281
    26.2359  26.3497  26.3519  26.3782  26.4177  26.4238  26.4734  26.4815
    26.5119  26.5402  26.6487  26.6861  26.7715  26.7785  26.7968  26.8674
    26.8847  26.9440  26.9796  27.0912  27.1232  27.2443  27.2802  27.4228
    27.4711  27.5183  27.5622  27.5926  27.6364  27.6635  27.7789  27.8116
    27.8719  27.8750  27.9085  27.9452

          k = 0.0000 0.0000 0.0376 ( 34458 PWs)   bands (ev):

   -29.4535 -29.4510 -28.0619 -28.0592 -21.2113 -21.0580 -20.6787 -20.1177
   -19.3814 -18.4917 -17.5292 -17.3431 -17.2072 -16.9382 -16.4670 -16.4459
   -15.8269 -15.7014 -14.4561 -14.3869 -14.0500 -13.7152 -13.6328 -13.4318
   -13.4317 -12.7723 -12.1196 -12.0830 -11.8680 -11.6505 -11.6068 -11.0132
   -10.8850 -10.8346 -10.1516 -10.1465 -10.1397 -10.1381  -9.8467  -9.3113
    -9.1748  -9.1420  -8.8832  -8.8290  -8.5127  -8.2905  -8.1454  -8.0934
    -8.0910  -7.8826  -7.6020  -7.4986  -7.0002  -6.8380  -6.7818  -6.4368
    -6.1113  -5.8378  -5.7238  -5.6362  -5.4094  -5.3205  -4.9159  -4.8271
    -4.6692  -4.2454  -3.8100  -3.6691  -3.0997  -3.0760  -0.5560  -0.5224
    -0.0770   0.2634   0.3914   0.6176   0.8043   1.4261   1.5441   1.5686
     1.8176   2.2104   2.5559   2.9233   3.0774   3.0783   3.1839   3.2612
     3.5317   3.5777   3.5903   3.9617   4.1548   4.1673   4.3655   4.3905
     4.4613   4.6327   4.7239   4.9319   4.9888   5.0223   5.1477   5.5960
     5.7269   5.8346   5.8386   6.0985   6.2053   6.2362   6.2738   6.3052
     6.5093   6.5153   6.5686   6.7328   6.9034   6.9606   7.0134   7.0281
     7.0859   7.1313   7.3204   7.4416   7.5661   7.6928   7.7504   7.7769
     8.0710   8.1096   8.1553   8.1808   8.2207   8.3849   8.4023   8.4310
     8.5078   8.5690   8.5967   8.6059   8.6741   8.7301   8.7414   8.8027
     8.8178   8.8708   8.9084   8.9613   8.9936   9.0756   9.0936   9.2207
     9.3139   9.3340   9.4419   9.4621   9.5327   9.5790   9.6664   9.7341
     9.7521   9.8983   9.9842  10.0198  10.1259  10.1758  10.2453  10.3200
    10.4051  10.4563  10.4777  10.5254  10.6057  10.6120  10.6295  10.7268
    10.8023  10.8220  10.8528  11.0190  11.0462  11.2100  11.2392  11.2544
    11.2626  11.3611  11.3629  11.4265  11.4984  11.5624  11.6206  11.6475
    11.6584  11.6991  11.7874  11.8550  11.8709  11.8846  11.8914  11.9914
    12.0074  12.0277  12.0726  12.2071  12.2286  12.2660  12.3016  12.4275
    12.6678  12.7144  12.7356  12.8205  12.8531  12.9182  12.9957  13.1060
    13.1843  13.2868  13.4412  13.5307  13.5345  13.6849  13.7077  13.8488
    13.9685  13.9903  13.9929  14.0364  14.0987  14.1008  14.2328  14.2527
    14.2727  14.2896  14.3596  14.4653  14.5078  14.6099  14.6257  14.6366
    14.6743  14.7273  14.7373  14.8005  14.9585  14.9913  14.9936  15.0312
    15.1640  15.2098  15.2366  15.3785  15.4468  15.5180  15.6067  15.6740
    15.7320  15.8018  15.8513  15.8562  15.8833  15.9130  15.9624  15.9667
    16.0192  16.0632  16.0865  16.1597  16.2581  16.2899  16.2905  16.3402
    16.3668  16.3700  16.4642  16.4710  16.5343  16.6574  16.6744  16.6844
    16.6857  16.7376  16.7980  16.8627  16.8748  16.9329  16.9362  17.1003
    17.1006  17.1317  17.1972  17.2673  17.2986  17.3439  17.3700  17.4058
    17.4368  17.4385  17.4459  17.5316  17.7088  17.7215  17.8656  17.9026
    18.0469  18.1261  18.1352  18.2116  18.3077  18.3154  18.3477  18.3808
    18.3930  18.5271  18.5628  18.5797  18.6882  18.7037  18.8211  18.8661
    18.9350  18.9703  19.0174  19.1239  19.1840  19.2705  19.3479  19.3609
    19.4568  19.5510  19.6030  19.6793  19.6832  19.7666  19.8515  19.9632
    19.9681  19.9861  19.9893  20.0817  20.1339  20.2130  20.2590  20.2793
    20.2954  20.3441  20.3508  20.3525  20.4368  20.4894  20.5057  20.6722
    20.7203  20.7338  20.8131  20.8199  20.9040  20.9235  21.0569  21.0739
    21.1101  21.1160  21.1982  21.3234  21.3396  21.3759  21.3835  21.4255
    21.4376  21.5131  21.5316  21.5611  21.6030  21.6756  21.6827  21.6965
    21.7514  21.8163  21.8531  21.8599  21.9453  21.9479  21.9567  22.0120
    22.0370  22.0912  22.0926  22.1265  22.2292  22.2954  22.2997  22.3434
    22.3766  22.4450  22.4557  22.4678  22.5077  22.5296  22.5673  22.5677
    22.6026  22.6740  22.6740  22.7328  22.9670  22.9823  23.0299  23.0877
    23.1241  23.2845  23.3699  23.4500  23.4607  23.4808  23.4981  23.5498
    23.5624  23.6126  23.6713  23.6879  23.7245  23.7368  23.8550  23.9157
    23.9256  24.0240  24.0494  24.0941  24.1441  24.2467  24.2510  24.2654
    24.2869  24.3914  24.3945  24.4178  24.4396  24.5753  24.6665  24.6925
    24.7266  24.8773  24.9417  24.9925  25.0315  25.0612  25.1010  25.1248
    25.2486  25.2535  25.4894  25.4993  25.5582  25.6021  25.7020  25.7227
    25.7381  25.7451  25.8623  26.0591  26.0701  26.0969  26.1431  26.2410
    26.3126  26.3450  26.3655  26.3886  26.3976  26.4537  26.4556  26.4661
    26.5614  26.5836  26.6807  26.6860  26.7337  26.8238  26.8637  26.8968
    27.0619  27.0874  27.0940  27.1322  27.2066  27.2338  27.3336  27.4463
    27.4635  27.5855  27.6041  27.6741  27.7049  27.7467  27.7661  27.8301
    27.8414  27.8426  27.8685  27.9830

          k = 0.0000 0.0000 0.0423 ( 34484 PWs)   bands (ev):

   -29.4331 -29.4306 -28.0899 -28.0873 -21.1712 -21.0184 -20.6395 -20.0790
   -19.3435 -18.4557 -17.5368 -17.5191 -17.3402 -17.0970 -16.5999 -16.4639
   -15.9565 -15.7397 -14.4506 -14.3916 -13.9238 -13.7853 -13.4687 -13.2412
   -13.2398 -12.8632 -12.1140 -11.9760 -11.7516 -11.6550 -11.5084 -11.0783
   -10.7878 -10.7502 -10.2260 -10.1103 -10.1087 -10.0716  -9.7609  -9.2576
    -9.2110  -9.1282  -8.8204  -8.7848  -8.4708  -8.2495  -8.1276  -8.1244
    -8.1188  -7.9433  -7.5610  -7.4835  -7.0394  -6.9311  -6.7428  -6.5064
    -6.2113  -5.8030  -5.7856  -5.7620  -5.4366  -5.3596  -5.0807  -4.8668
    -4.7703  -4.4115  -3.8370  -3.8151  -3.2510  -3.1495  -0.4691  -0.4080
     0.1096   0.2800   0.5516   0.8340   1.0275   1.4750   1.4805   1.6217
     1.8697   2.2611   2.6100   2.8344   3.1209   3.1319   3.2301   3.3154
     3.5856   3.6286   3.6353   4.0151   4.2004   4.2213   4.2779   4.4354
     4.5118   4.6873   4.7779   4.9796   5.0432   5.0629   5.1699   5.6473
     5.6877   5.7415   5.7879   6.1260   6.2618   6.2909   6.2953   6.3578
     6.4564   6.5264   6.5863   6.6107   6.7291   6.8895   6.9228   6.9732
     7.0573   7.0596   7.2275   7.3507   7.4456   7.5270   7.8106   7.8341
     7.9170   7.9335   7.9866   8.0871   8.1843   8.2273   8.2711   8.3428
     8.4285   8.4641   8.5207   8.6151   8.6153   8.6427   8.6697   8.6910
     8.7005   8.7776   8.8401   8.9727   8.9743   9.0096   9.1142   9.2524
     9.2798   9.3324   9.3411   9.3769   9.4569   9.5195   9.5333   9.5776
     9.5983   9.7545   9.7769   9.8696   9.8894  10.1785  10.2267  10.2919
    10.3574  10.4133  10.4422  10.5147  10.5211  10.6193  10.6710  10.6787
    10.7502  10.8022  10.8565  10.9189  11.0992  11.1578  11.2445  11.2760
    11.3078  11.3133  11.3530  11.3919  11.4004  11.4850  11.6473  11.6815
    11.6822  11.7161  11.7403  11.8601  11.9076  11.9319  12.0053  12.0809
    12.0847  12.0861  12.1102  12.1529  12.2569  12.3372  12.3986  12.4751
    12.7058  12.7106  12.7622  12.8218  12.8603  12.9071  12.9997  13.1110
    13.1606  13.3006  13.4477  13.5638  13.5759  13.7102  13.7707  13.7878
    13.8596  13.9104  13.9799  14.0660  14.1167  14.1828  14.2026  14.3035
    14.3166  14.4042  14.4381  14.4652  14.5096  14.6368  14.6624  14.7231
    14.8077  14.8104  14.8493  14.9533  14.9658  15.0233  15.1310  15.1586
    15.2532  15.2814  15.2823  15.3861  15.4060  15.6291  15.6593  15.7502
    15.7613  15.7825  15.8032  15.8475  15.9971  16.0241  16.0395  16.0400
    16.0405  16.0928  16.1094  16.1775  16.1925  16.2844  16.3172  16.3476
    16.3551  16.3690  16.3952  16.4327  16.5276  16.5706  16.6523  16.7037
    16.7581  16.8183  16.8659  16.9267  16.9418  16.9448  16.9506  17.1229
    17.1632  17.2070  17.2427  17.2778  17.3022  17.3280  17.4053  17.4264
    17.5614  17.5793  17.6266  17.7196  17.7633  17.7685  17.8867  17.9129
    18.0347  18.1503  18.2365  18.2453  18.3025  18.3227  18.3801  18.4184
    18.4639  18.4886  18.5578  18.5736  18.6379  18.7813  18.9123  18.9379
    19.0304  19.0342  19.0348  19.1559  19.1709  19.3258  19.3502  19.4474
    19.5342  19.5821  19.6930  19.8304  19.8952  19.9029  19.9588  19.9990
    20.0619  20.1083  20.1139  20.1744  20.2175  20.2367  20.2526  20.2970
    20.3176  20.3782  20.4324  20.4975  20.5702  20.5760  20.5835  20.6891
    20.7910  20.8279  20.8490  20.8662  20.9834  21.0490  21.0735  21.0935
    21.1345  21.1763  21.1776  21.2596  21.3041  21.3804  21.3975  21.4230
    21.5184  21.5202  21.5393  21.6072  21.6625  21.6734  21.7309  21.8140
    21.8189  21.8256  21.8753  21.9749  21.9921  21.9971  22.0946  22.1098
    22.1342  22.1738  22.1823  22.2291  22.2500  22.2640  22.3391  22.3452
    22.3851  22.3873  22.4487  22.4554  22.4686  22.5028  22.5126  22.5545
    22.6109  22.6364  22.6508  22.7854  23.0070  23.0504  23.1335  23.1989
    23.2023  23.2078  23.2453  23.3039  23.3396  23.4314  23.5359  23.5493
    23.5607  23.6809  23.7009  23.7841  23.7909  23.8289  23.8409  23.8921
    23.9184  24.1243  24.1852  24.2062  24.2837  24.2959  24.3061  24.3289
    24.3694  24.4412  24.4447  24.5181  24.5833  24.5973  24.6868  24.7052
    24.7335  24.7764  24.9222  24.9713  25.0276  25.0752  25.0811  25.2162
    25.2852  25.2889  25.3345  25.4096  25.5829  25.6425  25.7275  25.7572
    25.8181  25.8236  25.8395  25.9626  25.9793  26.0788  26.1331  26.2136
    26.2449  26.2553  26.3231  26.3565  26.3841  26.4793  26.4806  26.6095
    26.6565  26.6854  26.7736  26.7771  26.7860  26.8790  26.9072  26.9706
    27.0464  27.1003  27.2233  27.2327  27.2386  27.3262  27.3264  27.4753
    27.5212  27.6324  27.6564  27.6672  27.6759  27.6786  27.7724  27.8409
    27.8905  27.8999  27.9645  27.9657

          k = 0.0000 0.0000 0.0469 ( 34494 PWs)   bands (ev):

   -29.4106 -29.4081 -28.1206 -28.1179 -21.1266 -20.9741 -20.5956 -20.0357
   -19.3012 -18.4162 -17.6929 -17.6278 -17.3852 -17.2585 -16.7531 -16.4635
   -16.0777 -15.7877 -14.5041 -14.3434 -13.8791 -13.8060 -13.2735 -13.0748
   -13.0387 -12.9231 -12.1458 -11.8605 -11.6686 -11.5827 -11.4090 -11.1538
   -10.6907 -10.6513 -10.2986 -10.0780 -10.0764  -9.9929  -9.6718  -9.2904
    -9.1990  -9.0761  -8.7477  -8.7356  -8.4248  -8.2092  -8.1646  -8.1551
    -8.1525  -7.9499  -7.5153  -7.4777  -7.0895  -7.0274  -6.6994  -6.5851
    -6.3194  -5.8998  -5.8540  -5.7646  -5.4680  -5.4026  -5.2497  -5.0209
    -4.7590  -4.5802  -4.0040  -3.8253  -3.3961  -3.2279  -0.4119  -0.2665
     0.2619   0.2974   0.7576   1.0577   1.2616   1.4051   1.5412   1.6809
     1.9277   2.3174   2.6703   2.7397   3.1677   3.1927   3.2805   3.3761
     3.6454   3.6855   3.6855   4.0745   4.1536   4.2816   4.2820   4.4845
     4.5676   4.7483   4.8381   5.0293   5.1039   5.1057   5.1899   5.6403
     5.6465   5.6974   5.7525   6.1542   6.2716   6.3240   6.3606   6.3981
     6.4144   6.4973   6.4991   6.5479   6.6540   6.6717   6.7963   6.8509
     7.0419   7.1106   7.2139   7.2690   7.3375   7.4191   7.6943   7.7671
     7.8466   7.8690   7.8853   7.9542   8.0266   8.0516   8.1782   8.2256
     8.2850   8.4287   8.4385   8.4412   8.5294   8.5487   8.5663   8.6777
     8.7170   8.7707   8.8315   8.8542   8.9469   9.0649   9.1012   9.1194
     9.2103   9.2303   9.2851   9.3045   9.4092   9.4428   9.4651   9.5328
     9.5431   9.5694   9.6009   9.7049   9.7305  10.0062  10.2832  10.2925
    10.3596  10.3676  10.4260  10.4358  10.4930  10.5829  10.6026  10.6625
    10.7423  10.7576  10.8637  10.9169  11.0978  11.1394  11.2239  11.2654
    11.2669  11.2686  11.3844  11.3997  11.4385  11.4600  11.5973  11.6019
    11.6420  11.7471  11.7790  11.8111  11.8291  11.8574  11.9701  12.0670
    12.1161  12.1699  12.2683  12.3532  12.4381  12.4445  12.4978  12.5740
    12.6894  12.6926  12.7742  12.8156  12.8652  12.9068  13.0294  13.1120
    13.1362  13.1580  13.4686  13.4925  13.5243  13.6266  13.6887  13.7500
    13.7773  13.9746  14.1041  14.1424  14.1434  14.1439  14.1991  14.3271
    14.3550  14.4100  14.4768  14.6376  14.6441  14.6529  14.6671  14.7629
    14.7690  14.8669  14.9750  15.0066  15.0894  15.1651  15.2369  15.2539
    15.2667  15.2977  15.4098  15.4371  15.5370  15.5812  15.6004  15.6745
    15.7274  15.7297  15.7938  15.9464  15.9500  16.0166  16.1023  16.1085
    16.1213  16.1282  16.1516  16.2145  16.2971  16.3609  16.3892  16.3912
    16.4283  16.4493  16.4536  16.4550  16.5636  16.5882  16.6943  16.7393
    16.7831  16.8453  16.8766  16.9130  16.9707  16.9716  17.0457  17.0850
    17.1990  17.2796  17.3095  17.3494  17.4051  17.4398  17.4620  17.5307
    17.6145  17.6797  17.7270  17.8049  17.9042  17.9045  17.9833  18.0063
    18.0071  18.0580  18.1607  18.2389  18.2694  18.3945  18.4367  18.4916
    18.5271  18.5533  18.6003  18.6806  18.7404  18.8792  18.9013  18.9862
    19.0200  19.0883  19.1331  19.1585  19.1996  19.2189  19.3316  19.4121
    19.6170  19.7530  19.8007  19.8755  19.9389  19.9539  20.0172  20.0787
    20.1150  20.1705  20.1834  20.2284  20.3137  20.3377  20.3677  20.4872
    20.5315  20.5426  20.5789  20.5798  20.5997  20.6485  20.7583  20.7751
    20.8999  20.9110  20.9398  20.9498  20.9651  21.0329  21.0618  21.1158
    21.1369  21.1942  21.1982  21.2088  21.3152  21.3637  21.3904  21.4186
    21.4765  21.4944  21.5984  21.6402  21.6824  21.7002  21.7014  21.7324
    21.8032  21.8976  21.9308  22.0201  22.0538  22.1183  22.1506  22.1837
    22.1902  22.2142  22.2262  22.2882  22.3241  22.3731  22.3822  22.4191
    22.4358  22.4644  22.4743  22.4919  22.5122  22.5386  22.5517  22.5807
    22.6061  22.7125  22.7319  22.9205  22.9253  23.0174  23.0582  23.1321
    23.2230  23.2737  23.2863  23.3304  23.3866  23.4405  23.4705  23.5039
    23.5470  23.6315  23.7071  23.7255  23.8314  23.8370  23.8847  23.9941
    24.0317  24.1241  24.2258  24.2267  24.2371  24.3000  24.3659  24.4001
    24.5009  24.5736  24.6043  24.6476  24.6881  24.7274  24.7306  24.7757
    24.8234  24.8294  24.8748  24.9036  25.0307  25.0722  25.1202  25.2195
    25.3345  25.3431  25.4959  25.5144  25.5523  25.6160  25.6725  25.7406
    25.7781  25.7858  25.8775  25.8839  25.9842  26.0122  26.0250  26.0634
    26.2195  26.2569  26.3501  26.4357  26.4812  26.5460  26.5519  26.6124
    26.6764  26.7502  26.7869  26.8246  26.8577  26.8593  26.9944  27.0181
    27.0867  27.1818  27.2807  27.2946  27.3058  27.3455  27.4401  27.4704
    27.5365  27.5491  27.5496  27.6526  27.7918  27.8078  27.8602  27.9032
    27.9439  27.9457  27.9921  28.0118

          k = 0.0000 0.0000 0.0516 ( 34510 PWs)   bands (ev):

   -29.3859 -29.3834 -28.1537 -28.1510 -21.0772 -20.9253 -20.5472 -19.9880
   -19.2547 -18.3737 -17.8633 -17.7747 -17.4195 -17.3714 -16.9023 -16.4829
   -16.1756 -15.8473 -14.5431 -14.3252 -13.9444 -13.7038 -13.0878 -13.0868
   -12.8249 -12.7934 -12.2067 -11.7446 -11.5966 -11.4642 -11.3083 -11.2292
   -10.6081 -10.5457 -10.3529 -10.0429 -10.0414  -9.9139  -9.5821  -9.3697
    -9.1366  -9.0186  -8.6814  -8.6732  -8.3757  -8.2299  -8.2144  -8.2046
    -8.1382  -7.9197  -7.4816  -7.4647  -7.1495  -7.1262  -6.6725  -6.6515
    -6.4352  -6.0476  -5.9291  -5.7231  -5.5031  -5.4486  -5.4211  -5.1893
    -4.7497  -4.7353  -4.1683  -3.8468  -3.5290  -3.3103  -0.3511  -0.1384
     0.2517   0.4835   0.9729   1.2626   1.3614   1.5045   1.6083   1.7461
     1.9915   2.3791   2.6404   2.7365   3.2181   3.2599   3.3348   3.4431
     3.7108   3.7412   3.7482   4.0482   4.1398   4.3455   4.3482   4.5373
     4.6286   4.8156   4.9043   5.0757   5.1487   5.1710   5.2041   5.5410
     5.6064   5.6958   5.7816   6.1239   6.1706   6.3536   6.3909   6.4009
     6.4150   6.4321   6.4404   6.4917   6.5828   6.6557   6.6873   6.7204
     6.8801   7.1132   7.1991   7.2539   7.3134   7.3254   7.5013   7.6802
     7.6971   7.7152   7.7915   7.9346   7.9527   7.9690   7.9830   8.0543
     8.2001   8.2390   8.2831   8.3558   8.3915   8.5798   8.6045   8.6052
     8.6795   8.7380   8.8240   8.8518   8.8656   8.9065   9.0595   9.0672
     9.1304   9.1836   9.1863   9.2102   9.2909   9.3185   9.3720   9.4638
     9.4652   9.5224   9.5797   9.6327   9.6892   9.8691  10.2184  10.2528
    10.3326  10.3373  10.3701  10.4197  10.4226  10.4632  10.6361  10.7031
    10.7636  10.7838  10.8014  10.9437  10.9821  11.0918  11.1817  11.2611
    11.2645  11.3101  11.4000  11.4350  11.4560  11.5243  11.5280  11.5765
    11.5859  11.5902  11.7103  11.7739  11.7802  11.8989  12.0283  12.1244
    12.1442  12.2448  12.3658  12.4732  12.4928  12.5632  12.5700  12.6225
    12.6847  12.7231  12.7824  12.8079  12.8902  12.9609  12.9900  13.0586
    13.1077  13.1345  13.3810  13.3928  13.5069  13.5670  13.6482  13.6694
    13.6937  13.8947  14.0106  14.0899  14.1706  14.2903  14.3588  14.4109
    14.4268  14.4712  14.4848  14.6414  14.6591  14.7853  14.8157  14.8189
    14.8344  14.8577  15.0070  15.0247  15.1470  15.1732  15.1954  15.2448
    15.2868  15.3925  15.4614  15.5187  15.5567  15.6589  15.6650  15.6708
    15.6886  15.7736  15.8178  15.9005  15.9287  16.0456  16.0939  16.1399
    16.1534  16.1541  16.1554  16.2103  16.3489  16.4447  16.4852  16.4937
    16.4978  16.5394  16.5952  16.6277  16.6333  16.7896  16.8057  16.8176
    16.8336  16.8806  16.8963  16.9037  16.9645  17.0397  17.1699  17.1821
    17.2103  17.3388  17.3681  17.4621  17.4667  17.5371  17.5485  17.6140
    17.6448  17.7855  17.8306  17.9052  17.9189  17.9535  17.9709  18.0134
    18.0383  18.1535  18.2371  18.2709  18.3181  18.4614  18.4761  18.5383
    18.5999  18.6485  18.6524  18.7418  18.8768  18.9177  18.9796  19.0032
    19.0261  19.0999  19.1364  19.2257  19.2877  19.3136  19.3825  19.4487
    19.6084  19.6911  19.8156  19.8407  19.9366  19.9549  20.0574  20.0918
    20.1392  20.1437  20.2894  20.4004  20.4476  20.5225  20.5759  20.5868
    20.6152  20.7032  20.7103  20.7106  20.7750  20.7929  20.8328  20.9183
    20.9295  20.9478  20.9730  21.0127  21.0747  21.0834  21.1240  21.1286
    21.1388  21.1648  21.2330  21.2799  21.2852  21.3019  21.3038  21.5254
    21.5370  21.5492  21.6030  21.6352  21.6409  21.6488  21.6671  21.7950
    21.7970  21.8677  21.8963  21.9439  22.0622  22.1007  22.1460  22.1574
    22.2341  22.3041  22.3285  22.3427  22.3617  22.4153  22.4281  22.4872
    22.5417  22.5582  22.5774  22.6010  22.6203  22.6205  22.6932  22.7046
    22.7768  22.7817  22.7952  22.8226  22.8797  23.1141  23.1362  23.2160
    23.2638  23.2681  23.2693  23.3442  23.3920  23.4156  23.4757  23.5239
    23.5911  23.5988  23.7012  23.7376  23.8528  23.8699  23.9303  23.9541
    24.0261  24.1807  24.2293  24.2434  24.3324  24.3343  24.3770  24.3942
    24.4449  24.6087  24.6782  24.7105  24.7883  24.8183  24.8225  24.8752
    24.9077  24.9780  25.0413  25.0419  25.0438  25.0808  25.1485  25.3213
    25.4184  25.4613  25.4728  25.5505  25.5969  25.6289  25.6588  25.7119
    25.7339  25.7827  25.8188  25.8997  25.9694  26.0330  26.0351  26.0688
    26.1314  26.1898  26.3934  26.4713  26.4752  26.5366  26.6309  26.6339
    26.7884  26.7903  26.7955  26.8692  26.8810  26.9352  27.0332  27.0547
    27.1607  27.2275  27.2410  27.3102  27.3915  27.3930  27.4298  27.4420
    27.4807  27.4926  27.5062  27.6394  27.7113  27.7558  27.8020  27.8457
    27.9205  27.9347  27.9769  28.0430

          k = 0.0000 0.0000 0.0563 ( 34492 PWs)   bands (ev):

   -29.3593 -29.3568 -28.1889 -28.1862 -21.0231 -20.8718 -20.4943 -19.9359
   -19.2040 -18.3307 -18.0280 -17.9325 -17.5781 -17.3499 -17.0403 -16.5439
   -16.2295 -15.9185 -14.5666 -14.3528 -13.9622 -13.6291 -13.1492 -12.9122
   -12.6028 -12.5909 -12.2809 -11.6422 -11.5100 -11.3394 -11.2920 -11.2054
   -10.5875 -10.4355 -10.3403 -10.0053 -10.0038  -9.8431  -9.4931  -9.4382
    -9.0723  -8.9558  -8.6224  -8.6002  -8.3251  -8.3198  -8.2535  -8.2468
    -8.0846  -7.8842  -7.4954  -7.4094  -7.2269  -7.2178  -6.7689  -6.5992
    -6.5584  -6.2036  -6.0106  -5.6818  -5.5905  -5.5418  -5.4968  -5.3599
    -4.9186  -4.7129  -4.3263  -3.8930  -3.6365  -3.3958  -0.2867  -0.0402
     0.2702   0.6627   1.1924   1.2499   1.5467   1.6817   1.7547   1.8173
     2.0611   2.4461   2.5379   2.8085   3.2720   3.3333   3.3924   3.5164
     3.7786   3.8023   3.8167   3.9383   4.2108   4.4183   4.4210   4.5927
     4.6944   4.8890   4.9761   5.1044   5.1886   5.2085   5.2444   5.4591
     5.5711   5.6733   5.8472   5.9071   6.1214   6.2355   6.3226   6.3617
     6.4083   6.4563   6.5097   6.5468   6.5494   6.5890   6.5973   6.6241
     6.8338   6.9409   7.1355   7.1542   7.2654   7.3512   7.4520   7.5217
     7.5519   7.5727   7.6834   7.7759   7.7933   7.8293   7.9714   8.0061
     8.0764   8.0983   8.1371   8.2259   8.4068   8.4274   8.4817   8.6369
     8.6737   8.6791   8.6928   8.8235   8.8428   8.8896   8.9501   8.9780
     9.0425   9.0524   9.1319   9.1417   9.1665   9.1985   9.2091   9.3647
     9.5160   9.5308   9.6354   9.6531   9.7013   9.7803  10.0189  10.1561
    10.2361  10.2764  10.3730  10.3988  10.4206  10.4837  10.6279  10.6747
    10.7171  10.7663  10.8568  10.9310  10.9345  11.0588  11.2263  11.2361
    11.2717  11.3132  11.3564  11.4008  11.4273  11.4934  11.5080  11.5298
    11.5532  11.6093  11.7008  11.7574  11.8065  11.9541  12.0981  12.1067
    12.2272  12.2645  12.3931  12.4512  12.4799  12.5024  12.6233  12.6511
    12.6862  12.7670  12.7714  12.8192  12.9476  12.9735  13.0595  13.0722
    13.0833  13.1839  13.2959  13.3204  13.3648  13.5824  13.6077  13.6318
    13.7150  13.8294  13.9201  14.0037  14.1099  14.3103  14.3999  14.4210
    14.5351  14.5390  14.5771  14.6579  14.7355  14.7699  14.8620  14.8743
    14.8990  14.9536  14.9851  15.0822  15.1357  15.1461  15.1751  15.2248
    15.3509  15.3843  15.4443  15.5001  15.5770  15.6674  15.6721  15.6777
    15.8320  15.8496  15.9068  15.9173  16.0018  16.0202  16.1362  16.1379
    16.1380  16.1506  16.2587  16.2858  16.3267  16.4895  16.5167  16.5347
    16.5804  16.7075  16.7125  16.7994  16.8400  16.8444  16.8715  16.8981
    16.9621  16.9673  16.9683  16.9986  17.0639  17.2414  17.2867  17.2918
    17.3147  17.4250  17.4732  17.5019  17.5095  17.5811  17.5851  17.6944
    17.6959  17.7425  17.8219  17.9438  17.9506  17.9898  18.1127  18.1161
    18.2057  18.2483  18.2638  18.3353  18.4103  18.4679  18.5422  18.6190
    18.6792  18.7055  18.7328  18.8149  18.8660  18.9012  19.0049  19.0823
    19.1395  19.1937  19.2555  19.2945  19.4149  19.4714  19.5020  19.5756
    19.5796  19.6751  19.7016  19.7234  19.9158  19.9857  20.0487  20.0646
    20.1339  20.2420  20.3368  20.3894  20.4023  20.6381  20.6710  20.6864
    20.7581  20.7782  20.8077  20.8814  20.8936  20.9069  20.9261  20.9471
    20.9945  21.0358  21.0544  21.0613  21.1166  21.1256  21.1949  21.2041
    21.2111  21.2179  21.2465  21.3213  21.3441  21.3947  21.4785  21.4905
    21.5068  21.5303  21.5416  21.6749  21.6782  21.6990  21.7065  21.8312
    21.8774  21.8775  21.9177  21.9191  22.0678  22.0863  22.0876  22.2050
    22.2194  22.2207  22.2560  22.3869  22.3891  22.4421  22.5208  22.5469
    22.5741  22.5832  22.6174  22.6523  22.6811  22.7590  22.7988  22.8429
    22.8748  22.8967  22.9342  22.9917  23.0498  23.1430  23.1836  23.1996
    23.2229  23.3111  23.3304  23.3472  23.3728  23.4515  23.5414  23.6686
    23.7182  23.7462  23.7746  23.7841  23.8425  23.8783  23.8936  23.9654
    24.0090  24.1115  24.1825  24.2269  24.2969  24.4177  24.4822  24.4828
    24.5278  24.5635  24.6197  24.7598  24.7771  24.7828  24.8911  24.9069
    24.9503  25.1104  25.1907  25.2726  25.2792  25.2836  25.3114  25.3177
    25.3926  25.4149  25.4421  25.5478  25.5640  25.5781  25.7228  25.7377
    25.8262  25.8508  25.8762  25.9638  26.0606  26.0624  26.0849  26.1465
    26.1814  26.2317  26.3433  26.3550  26.4746  26.4939  26.5716  26.6744
    26.8161  26.8189  26.8240  26.8989  26.9945  27.0174  27.0262  27.0659
    27.1108  27.1442  27.1842  27.2470  27.2988  27.3087  27.3306  27.3563
    27.3807  27.4889  27.5657  27.6045  27.6571  27.6598  27.8084  27.8453
    27.8847  27.9408  27.9465  27.9883

          k = 0.0000 0.0000 0.0610 ( 34502 PWs)   bands (ev):

   -29.3308 -29.3283 -28.2260 -28.2233 -20.9645 -20.8137 -20.4368 -19.8793
   -19.1492 -18.3027 -18.1720 -18.0909 -17.7326 -17.3564 -17.1407 -16.6452
   -16.2414 -16.0004 -14.5752 -14.4192 -13.9373 -13.6027 -13.1728 -12.7549
   -12.4088 -12.3801 -12.3198 -11.5886 -11.4133 -11.3089 -11.2136 -11.0993
   -10.6390 -10.3212 -10.2495  -9.9654  -9.9639  -9.8028  -9.4736  -9.4051
    -9.0095  -8.8877  -8.5592  -8.5303  -8.4113  -8.2977  -8.2904  -8.2750
    -8.0232  -7.8538  -7.5186  -7.3493  -7.3281  -7.2930  -6.8750  -6.6887
    -6.5427  -6.3655  -6.0980  -5.7728  -5.6255  -5.5833  -5.5462  -5.5306
    -5.0851  -4.7045  -4.4663  -3.9784  -3.7041  -3.4836  -0.2193   0.0080
     0.3392   0.8193   1.2077   1.4132   1.7613   1.7877   1.8944   2.0104
     2.1362   2.4346   2.5181   2.8861   3.3290   3.4131   3.4525   3.5961
     3.7891   3.8691   3.8867   3.8911   4.2870   4.4981   4.5001   4.6494
     4.7639   4.9683   5.0524   5.0849   5.1986   5.2196   5.3240   5.4264
     5.5447   5.6525   5.6911   5.9206   5.9460   6.1606   6.2426   6.3509
     6.3614   6.4119   6.4471   6.5388   6.5653   6.5932   6.5981   6.6697
     6.7756   6.8495   6.9754   6.9839   7.2219   7.3349   7.3499   7.3841
     7.3863   7.5410   7.5700   7.5909   7.6965   7.7553   7.7709   7.8835
     7.9958   8.0485   8.1524   8.1562   8.2178   8.2830   8.4181   8.5033
     8.5442   8.6303   8.7500   8.7531   8.8082   8.8177   8.8684   8.8990
     8.9019   8.9517   8.9775   9.0584   9.0979   9.1135   9.2733   9.3472
     9.5672   9.5697   9.5963   9.6763   9.7615   9.7713   9.7875  10.0746
    10.1190  10.2103  10.3425  10.3542  10.4355  10.4938  10.5538  10.5777
    10.7371  10.7843  10.8687  10.9297  10.9913  11.1345  11.1359  11.1770
    11.1995  11.2850  11.3192  11.4343  11.4387  11.4510  11.4621  11.5150
    11.5859  11.6790  11.7528  11.8262  11.8333  11.9535  12.0617  12.1539
    12.1723  12.3111  12.3390  12.3537  12.3738  12.5207  12.5637  12.6701
    12.7036  12.7513  12.7777  12.7901  12.9888  13.0163  13.0339  13.1237
    13.1842  13.2217  13.2226  13.3093  13.3454  13.5724  13.5955  13.6955
    13.7052  13.8044  13.8401  13.9094  14.0716  14.2602  14.3879  14.4014
    14.4728  14.5066  14.6529  14.7427  14.7584  14.7668  14.7874  14.8986
    14.9047  14.9620  15.0078  15.0147  15.1077  15.1874  15.2980  15.3216
    15.3853  15.4286  15.4520  15.5410  15.6138  15.6172  15.7306  15.7596
    15.7715  15.7762  15.9499  15.9678  16.0565  16.0620  16.1377  16.1379
    16.2053  16.2974  16.3655  16.3983  16.4097  16.5222  16.5373  16.5975
    16.6417  16.6664  16.8357  16.8893  16.9300  16.9725  17.0286  17.0560
    17.0603  17.0713  17.0913  17.2410  17.3033  17.3293  17.3522  17.3875
    17.4367  17.4659  17.5232  17.5407  17.5548  17.6073  17.7101  17.7234
    17.7916  17.8176  17.9341  17.9557  18.0292  18.0441  18.1869  18.2204
    18.2331  18.3243  18.3817  18.4744  18.4918  18.5395  18.6123  18.6293
    18.7264  18.7972  18.8224  18.8250  18.8515  19.0394  19.1450  19.1868
    19.2536  19.2727  19.3630  19.3895  19.4864  19.4938  19.5019  19.5329
    19.6408  19.8001  19.8143  19.8733  19.9149  20.0049  20.0130  20.0773
    20.0907  20.2524  20.2683  20.2692  20.4713  20.5924  20.6285  20.7107
    20.7471  20.8086  20.8511  20.8712  20.8937  20.9693  21.0383  21.0562
    21.0900  21.0979  21.1034  21.1228  21.1700  21.1915  21.1968  21.2620
    21.2997  21.3254  21.3648  21.4105  21.4183  21.4538  21.5040  21.5331
    21.6112  21.6542  21.6866  21.7658  21.7664  21.7736  21.7788  21.8942
    21.9220  21.9278  21.9664  21.9732  22.0769  22.1380  22.1441  22.1452
    22.1848  22.2522  22.2602  22.2875  22.2900  22.4568  22.4845  22.6349
    22.6408  22.6774  22.7033  22.7181  22.7412  22.8179  22.8554  22.9359
    22.9840  23.0003  23.0187  23.0771  23.0958  23.1151  23.1711  23.2452
    23.2609  23.2820  23.3164  23.5011  23.5139  23.7089  23.7292  23.7307
    23.7871  23.8291  23.8401  23.9102  23.9255  23.9567  23.9829  23.9882
    24.0172  24.0361  24.1391  24.2105  24.2392  24.4327  24.5149  24.5239
    24.5801  24.6336  24.6393  24.7701  24.8124  24.8250  24.9316  24.9806
    25.0823  25.1148  25.1884  25.2107  25.2162  25.2816  25.2914  25.4811
    25.5174  25.5224  25.5779  25.6256  25.6369  25.6675  25.7630  25.8698
    25.8746  25.9080  25.9735  26.0552  26.0618  26.1045  26.1702  26.2210
    26.2606  26.3032  26.3283  26.3955  26.4232  26.4290  26.5624  26.5853
    26.6444  26.7236  26.7653  26.8271  26.8604  26.9006  26.9611  27.0026
    27.0988  27.1554  27.1866  27.2882  27.2915  27.3659  27.4076  27.4120
    27.4128  27.4198  27.5201  27.5695  27.5914  27.6253  27.6573  27.7672
    27.7777  27.8234  27.8599  27.8987

          k = 0.0000 0.0000 0.0657 ( 34492 PWs)   bands (ev):

   -29.3006 -29.2981 -28.2647 -28.2621 -20.9011 -20.7510 -20.3748 -19.8184
   -19.0907 -18.3870 -18.2470 -18.2014 -17.8792 -17.4377 -17.1590 -16.7664
   -16.2323 -16.0912 -14.5709 -14.5030 -13.8896 -13.6349 -13.1416 -12.6418
   -12.4178 -12.1674 -12.1179 -11.6149 -11.3136 -11.2509 -11.0876 -10.9891
   -10.7131 -10.2032 -10.1280  -9.9236  -9.9221  -9.8195  -9.4494  -9.3185
    -8.9546  -8.8143  -8.4977  -8.4940  -8.4650  -8.3440  -8.3326  -8.2275
    -7.9562  -7.8321  -7.5529  -7.4257  -7.3729  -7.2845  -6.9923  -6.8253
    -6.5304  -6.4821  -6.1908  -5.9435  -5.7001  -5.6269  -5.5964  -5.5802
    -5.2463  -4.7530  -4.5456  -4.0945  -3.7405  -3.5728  -0.1492   0.0165
     0.4495   0.9046   1.2337   1.6317   1.8471   1.9771   2.0348   2.2167
     2.2631   2.3413   2.5948   2.9688   3.3886   3.4989   3.5143   3.6783
     3.6820   3.9416   3.9591   3.9711   4.3673   4.5843   4.5851   4.7045
     4.8350   5.0059   5.0512   5.1281   5.1731   5.2375   5.4097   5.4557
     5.4601   5.5260   5.6645   5.7653   5.9902   6.1103   6.1163   6.2455
     6.2638   6.3549   6.4116   6.5331   6.5944   6.6286   6.6442   6.6823
     6.7275   6.7589   6.8628   6.9829   6.9966   7.1300   7.2076   7.3057
     7.3625   7.3940   7.4159   7.5017   7.5320   7.6982   7.7694   7.8175
     7.8606   7.8938   8.0167   8.0971   8.2253   8.2409   8.2412   8.3575
     8.4683   8.5864   8.5962   8.6448   8.6730   8.7020   8.7479   8.8352
     8.8455   8.9285   8.9914   9.0246   9.0535   9.1466   9.3540   9.4023
     9.4554   9.5635   9.5983   9.6135   9.7163   9.7733   9.8392   9.9219
    10.1259  10.1684  10.2092  10.2700  10.3665  10.3963  10.5727  10.6296
    10.7571  10.8114  10.8382  10.9426  10.9729  11.0692  11.1101  11.1967
    11.2158  11.2934  11.3704  11.3709  11.4040  11.4125  11.5060  11.5415
    11.6216  11.7592  11.7813  11.8728  11.9109  11.9647  11.9929  12.0168
    12.1705  12.1999  12.2556  12.2663  12.3597  12.4002  12.5960  12.6604
    12.6637  12.7515  12.7599  12.8554  12.9135  13.0202  13.1032  13.1257
    13.1283  13.1964  13.2662  13.4332  13.4827  13.6012  13.6154  13.6674
    13.7628  13.7716  13.8042  13.8196  14.0742  14.1634  14.3090  14.3878
    14.4236  14.4381  14.5605  14.6554  14.6884  14.7445  14.7588  14.9113
    14.9341  14.9615  14.9990  15.0529  15.1847  15.1971  15.2501  15.3747
    15.4434  15.4717  15.4936  15.5271  15.5456  15.6936  15.7942  15.8614
    15.8624  15.8778  15.9417  15.9987  16.0169  16.1117  16.1608  16.2161
    16.2897  16.3248  16.4241  16.4457  16.5198  16.5600  16.6711  16.6901
    16.6985  16.7694  16.8522  16.9418  16.9471  17.0962  17.1149  17.1489
    17.1857  17.2695  17.3447  17.3837  17.4055  17.4288  17.4388  17.4975
    17.5171  17.5379  17.5437  17.5650  17.6137  17.6147  17.7599  17.8714
    17.9482  17.9597  18.0625  18.1138  18.1591  18.1641  18.2583  18.2871
    18.2957  18.3536  18.3688  18.4063  18.5957  18.6854  18.7190  18.7619
    18.8533  18.9297  18.9447  18.9596  18.9895  19.1388  19.1424  19.2705
    19.2821  19.3272  19.3580  19.4245  19.4934  19.5024  19.5946  19.6397
    19.7133  19.8094  19.8896  20.0022  20.0192  20.0421  20.1029  20.1283
    20.1567  20.1972  20.2469  20.3452  20.4783  20.5075  20.5725  20.6401
    20.7147  20.7524  20.8377  20.9050  20.9099  20.9232  20.9759  21.0088
    21.0558  21.0768  21.1191  21.1441  21.1562  21.2550  21.2869  21.3322
    21.3579  21.4283  21.4529  21.5001  21.5236  21.6128  21.6342  21.6745
    21.7937  21.8198  21.8214  21.8392  21.8549  21.8896  21.9346  21.9351
    21.9641  21.9802  22.0099  22.0159  22.0801  22.1242  22.1254  22.1886
    22.2646  22.3097  22.3642  22.3985  22.4078  22.4909  22.4961  22.5781
    22.6833  22.7097  22.7367  22.7838  22.7842  22.7968  22.8811  22.9176
[...]
     7.8613   7.9235   8.1226   8.2056   8.3366   8.4089   8.4489   8.5273
     8.6080   8.6879   8.8666   9.0735   9.1626   9.1670   9.1882   9.3661
     9.3825   9.5388   9.7212   9.7453   9.7893   9.8972   9.8987   9.9169
    10.0540  10.0734  10.1056  10.2051  10.3271  10.5029  10.5187  10.5721
    10.5932  10.5938  10.6849  10.7546  10.7891  10.8410  11.0248  11.0452
    11.0755  11.1212  11.1437  11.2629  11.2733  11.3241  11.3618  11.3648
    11.4491  11.6349  11.7826  11.8362  11.8773  11.9008  11.9185  11.9709
    11.9957  12.0511  12.0970  12.2033  12.2896  12.4396  12.4543  12.4707
    12.5266  12.6383  12.6710  12.7359  12.7802  12.8606  12.9503  13.0193
    13.0802  13.1448  13.2382  13.2963  13.3854  13.5782  13.6914  13.6974
    13.7818  13.8122  13.8663  13.8716  14.0421  14.1013  14.1086  14.1754
    14.1903  14.2396  14.3210  14.4891  14.5624  14.5830  14.6000  14.6779
    14.8511  14.8757  14.9236  14.9976  15.0099  15.0701  15.1654  15.3552
    15.3880  15.4452  15.5016  15.5886  15.6812  15.7001  15.8067  15.8192
    15.8445  15.8930  16.0483  16.0628  16.2361  16.3505  16.5375  16.5727
    16.6009  16.6202  16.6841  16.7120  16.8108  16.8364  16.9525  16.9623
    16.9753  17.0049  17.1280  17.1639  17.1726  17.2405  17.3739  17.4506
    17.5563  17.6377  17.6585  17.6934  17.7498  17.7736  17.8261  18.1285
    18.1534  18.1872  18.2611  18.4296  18.4348  18.4665  18.5303  18.5634
    18.6126  18.6252  18.6974  18.7653  18.7720  18.8351  18.8380  19.0276
    19.0449  19.2164  19.2227  19.3142  19.3326  19.5206  19.5386  19.5445
    19.5766  19.5878  19.5883  19.6462  19.8037  19.8265  19.8659  19.8749
    19.9945  20.0970  20.1744  20.1827  20.2447  20.3259  20.3389  20.3403
    20.3541  20.4075  20.4447  20.4940  20.5392  20.6411  20.6573  20.6839
    20.7440  20.8412  20.8970  20.9711  21.0083  21.0254  21.0256  21.0799
    21.1160  21.1453  21.1692  21.1955  21.2066  21.2291  21.2478  21.3628
    21.3752  21.4426  21.4506  21.4738  21.4812  21.5295  21.6229  21.6341
    21.6354  21.6575  21.7273  21.7538  21.8578  21.8888  21.9461  21.9645
    21.9692  22.0138  22.0462  22.0902  22.1358  22.1876  22.1884  22.2783
    22.2801  22.2884  22.2986  22.3529  22.3966  22.4846  22.5068  22.5235
    22.6219  22.6632  22.6834  22.7594  22.7879  22.8191  22.8512  22.9013
    22.9658  23.0112  23.0239  23.0833  23.1452  23.2054  23.2379  23.2881
    23.3294  23.4023  23.4121  23.4548  23.4761  23.5498  23.6333  23.6608
    23.6789  23.7363  23.7721  23.7974  23.8013  23.8293  23.8633  23.8892
    24.0212  24.0688  24.0897  24.1724  24.2033  24.2769  24.3151  24.3441
    24.3837  24.3872  24.3875  24.4328  24.4920  24.5271  24.5691  24.5716
    24.7092  24.8375  24.8818  24.9124  24.9332  24.9365  24.9522  24.9583
    25.0262  25.0442  25.0728  25.0940  25.1548  25.1995  25.2303  25.2758
    25.2972  25.3137  25.3433  25.3899  25.4156  25.4678  25.4935  25.4951
    25.5608  25.6086  25.6188  25.6241  25.7836  25.8490  25.8874  25.8974
    25.9190  25.9391  25.9783  26.0462  26.1269  26.1662  26.2660  26.2903
    26.3752  26.3865  26.4728  26.5257  26.5312  26.5953  26.6528  26.7023
    26.7273  26.8027  26.8361  26.8851  26.9039  26.9329  27.0658  27.1019
    27.1446  27.2112  27.2294  27.2565  27.3414  27.4013  27.4058  27.4471
    27.4750  27.5407  27.6660  27.6971

          k = 0.0000 0.0000 0.1080 ( 34514 PWs)   bands (ev):

   -29.0083 -29.0058 -28.6099 -28.6073 -20.1261 -19.9884 -19.6617 -19.6448
   -19.4955 -19.1950 -19.0232 -18.6329 -18.3221 -17.9212 -17.4656 -17.0870
   -16.5694 -16.3172 -14.8457 -14.6354 -13.9369 -13.6821 -12.9193 -12.6823
   -12.0260 -11.7006 -11.2518 -10.7903 -10.7627 -10.7234 -10.2878  -9.8865
    -9.8467  -9.7392  -9.5646  -9.5636  -9.5632  -8.9748  -8.9289  -8.9028
    -8.7678  -8.7415  -8.7394  -8.6270  -8.4977  -8.4807  -8.3391  -8.2336
    -8.1759  -8.0390  -7.9080  -7.7147  -7.6892  -7.6163  -7.3975  -7.3763
    -7.1447  -7.0944  -7.0845  -6.6464  -6.4704  -6.0321  -5.9514  -5.9482
    -5.7021  -5.3122  -4.8716  -4.5908  -4.0602  -3.9504   0.0497   0.1943
     0.7874   1.1401   1.8431   2.3304   2.8253   2.8633   2.9098   3.0938
     3.3667   3.4826   3.6382   3.6443   3.8122   3.9398   3.9697   4.1605
     4.3057   4.3419   4.5485   4.5687   4.6045   4.6728   4.7344   4.7455
     4.9303   4.9714   5.0119   5.2602   5.2730   5.2912   5.3237   5.3786
     5.4423   5.6104   5.6367   5.6445   5.6646   5.6779   5.7058   5.7867
     5.8083   5.8742   5.9067   6.0534   6.0711   6.1470   6.1958   6.2199
     6.2520   6.2955   6.3683   6.4413   6.4460   6.4647   6.4921   6.5043
     6.7753   6.7813   6.8256   6.8687   6.8953   7.0533   7.0756   7.0825
     7.1418   7.2114   7.2587   7.4684   7.6196   7.6856   7.7451   7.7541
     7.8000   7.9414   8.0404   8.1054   8.2881   8.3650   8.4280   8.4483
     8.5487   8.6260   8.9008   8.9811   9.1376   9.2198   9.2807   9.3032
     9.3288   9.6661   9.6813   9.8434   9.8949   9.9170   9.9378  10.0273
    10.0367  10.0387  10.2151  10.3338  10.3383  10.4429  10.4434  10.5221
    10.5605  10.6465  10.6541  10.6889  10.6966  10.7879  10.8522  10.8971
    11.0845  11.1485  11.2078  11.2277  11.2445  11.2496  11.2863  11.4660
    11.5155  11.5614  11.8041  11.8356  11.8882  11.9066  11.9178  11.9472
    12.0221  12.0982  12.1275  12.2587  12.3358  12.4595  12.5144  12.5159
    12.5323  12.6194  12.6915  12.7129  12.7260  12.7616  12.8506  12.8617
    13.0871  13.1205  13.2063  13.4215  13.4371  13.4505  13.6812  13.6826
    13.7399  13.7916  13.8452  13.9000  14.0180  14.0593  14.1677  14.2072
    14.2326  14.2549  14.2793  14.4770  14.5519  14.6430  14.6842  14.7854
    14.8129  14.8586  14.9266  14.9516  15.0295  15.0573  15.2558  15.3277
    15.3616  15.4909  15.5335  15.5526  15.6049  15.6510  15.7198  15.7956
    15.9345  16.0095  16.0296  16.0570  16.2785  16.3427  16.4394  16.4978
    16.5018  16.5489  16.6917  16.7127  16.7130  16.7498  16.8925  16.9902
    17.0364  17.0561  17.2524  17.2796  17.2834  17.2905  17.3702  17.4191
    17.5734  17.6000  17.6433  17.7435  17.7468  17.7693  17.8660  17.9638
    18.0570  18.1039  18.3094  18.3849  18.4328  18.4465  18.5601  18.5685
    18.5733  18.6198  18.6935  18.7086  18.8970  18.9895  19.0711  19.1283
    19.1986  19.2990  19.3728  19.3782  19.4478  19.4545  19.4777  19.6548
    19.7312  19.7395  19.7626  19.7907  19.8870  19.9436  19.9561  19.9733
    20.0937  20.1887  20.1920  20.1951  20.2743  20.2749  20.2918  20.4356
    20.4645  20.4727  20.4970  20.5699  20.6379  20.6570  20.7228  20.8063
    20.8438  20.8531  20.9437  20.9465  21.0074  21.1079  21.1459  21.1492
    21.1660  21.1723  21.1775  21.2058  21.2230  21.2681  21.3200  21.3429
    21.4236  21.4660  21.4931  21.5037  21.5532  21.5569  21.7004  21.7017
    21.8090  21.8108  21.8160  21.8498  21.8949  21.9029  21.9108  21.9440
    21.9621  22.0159  22.0587  22.1123  22.1208  22.1730  22.2347  22.2488
    22.2591  22.2606  22.3377  22.4049  22.4178  22.4275  22.4558  22.5814
    22.6269  22.6720  22.6907  22.7239  22.7614  22.8414  22.8928  22.9130
    22.9418  23.0121  23.0301  23.1235  23.1273  23.1651  23.2126  23.2355
    23.3018  23.3477  23.4149  23.4581  23.5230  23.5352  23.5493  23.5804
    23.7104  23.7344  23.7880  23.7920  23.8472  23.8643  23.8911  23.9266
    23.9956  24.0756  24.0777  24.0874  24.1115  24.1469  24.1925  24.2510
    24.2971  24.3916  24.4032  24.4495  24.5024  24.5201  24.5609  24.5638
    24.5724  24.6737  24.7137  24.7197  24.7957  24.8313  24.8433  24.8888
    24.9919  25.0088  25.0406  25.0600  25.1036  25.1822  25.2161  25.2287
    25.2500  25.3567  25.3568  25.3861  25.4209  25.5149  25.5646  25.5887
    25.6049  25.6875  25.6948  25.7178  25.7264  25.8534  25.8722  25.8768
    25.9430  26.0232  26.0341  26.1159  26.1320  26.1593  26.1741  26.2487
    26.2769  26.3908  26.4603  26.4670  26.5139  26.5487  26.5516  26.6674
    26.6777  26.7514  26.8179  26.8920  26.9463  26.9860  27.0610  27.0972
    27.1143  27.1874  27.2072  27.3178  27.4091  27.4369  27.4407  27.5283
    27.5700  27.5915  27.6181  27.6514

          k = 0.0000 0.0000 0.1127 ( 34522 PWs)   bands (ev):

   -28.9912 -28.9887 -28.6286 -28.6260 -20.0184 -19.8889 -19.7765 -19.6662
   -19.4882 -19.2885 -18.9445 -18.7389 -18.2309 -18.0271 -17.3766 -17.1853
   -16.5032 -16.3745 -14.8061 -14.6975 -13.8759 -13.7438 -12.8626 -12.7364
   -11.9565 -11.7867 -11.1385 -10.9047 -10.7288 -10.7108 -10.1587  -9.9359
    -9.6297  -9.6007  -9.5575  -9.5483  -9.5469  -9.1236  -8.9348  -8.9196
    -8.7587  -8.7566  -8.7040  -8.6254  -8.4856  -8.4337  -8.3405  -8.3019
    -8.2918  -8.1427  -7.7825  -7.7134  -7.6972  -7.5219  -7.4899  -7.3378
    -7.2407  -7.1834  -7.0075  -6.7663  -6.3706  -6.1448  -5.9623  -5.9606
    -5.6126  -5.4121  -4.8057  -4.6604  -4.0382  -3.9808   0.0809   0.1556
     0.8714   1.0532   1.9646   2.2175   2.9061   2.9231   3.0595   3.1976
     3.3716   3.3974   3.5377   3.6203   3.9041   3.9431   3.9687   4.2555
     4.3269   4.3438   4.5217   4.6090   4.6290   4.6882   4.8421   4.8700
     5.0063   5.0417   5.1068   5.1564   5.1877   5.2163   5.2779   5.2842
     5.4718   5.5265   5.5609   5.5621   5.5842   5.6985   5.7513   5.7750
     5.8125   5.8913   5.9740   6.0004   6.0589   6.1286   6.1339   6.1733
     6.2685   6.2938   6.3336   6.3880   6.5456   6.5570   6.5858   6.6109
     6.6118   6.6949   6.7640   6.7760   6.8632   6.8922   6.9201   7.0354
     7.1825   7.1928   7.2742   7.5528   7.5955   7.6907   7.8285   7.8290
     7.8998   7.9198   7.9937   8.1309   8.1546   8.2059   8.2734   8.4690
     8.5863   8.6834   8.8595   8.9372   9.1414   9.1831   9.2113   9.4416
     9.4706   9.4922   9.7520   9.7917   9.8306  10.0001  10.0365  10.1203
    10.1556  10.1763  10.2407  10.3050  10.3658  10.3663  10.4358  10.4699
    10.4729  10.5091  10.6772  10.6968  10.7500  10.7708  10.7943  10.8980
    10.9584  11.0232  11.0879  11.1415  11.3185  11.3482  11.3984  11.4879
    11.5447  11.5475  11.7424  11.7462  11.8260  11.8631  11.9726  11.9883
    12.1009  12.1857  12.2036  12.3023  12.3928  12.4618  12.4774  12.5356
    12.5526  12.5575  12.6422  12.6475  12.7129  12.7497  12.7752  12.9177
    12.9436  13.1101  13.2994  13.3292  13.4797  13.5495  13.6771  13.6794
    13.6821  13.7523  13.8613  13.8751  13.8970  13.9670  14.2272  14.2467
    14.2833  14.3390  14.3919  14.4883  14.5290  14.6065  14.6222  14.6878
    14.8900  14.9347  14.9739  15.0059  15.0801  15.0865  15.2371  15.2463
    15.3372  15.4294  15.4306  15.5581  15.5628  15.7322  15.7393  15.7737
    16.0450  16.0512  16.1056  16.1255  16.2735  16.3055  16.3265  16.3923
    16.4068  16.4304  16.6579  16.6621  16.6684  16.7970  16.9090  17.0817
    17.0883  17.0915  17.2377  17.3071  17.3114  17.3892  17.4525  17.4564
    17.5021  17.5923  17.6862  17.6918  17.7766  17.7822  17.7961  17.9319
    17.9376  18.0594  18.3559  18.3615  18.4096  18.4220  18.5528  18.5539
    18.5840  18.6048  18.6066  18.6524  19.0058  19.0206  19.1207  19.2411
    19.2839  19.3320  19.3828  19.5047  19.5134  19.6423  19.7321  19.7681
    19.7775  19.8341  19.8528  19.9011  19.9363  20.0570  20.0977  20.1014
    20.1242  20.1243  20.1737  20.2446  20.3490  20.3542  20.3642  20.3794
    20.3830  20.4217  20.4659  20.4722  20.5659  20.6858  20.7021  20.7574
    20.8283  20.9579  20.9850  21.0098  21.0138  21.0758  21.0885  21.1718
    21.2016  21.2055  21.2622  21.2751  21.3087  21.3240  21.3473  21.4011
    21.4232  21.5357  21.5495  21.5646  21.5750  21.6417  21.7233  21.7368
    21.7455  21.7684  21.7985  21.8688  21.8886  21.9344  21.9612  21.9860
    22.0356  22.0416  22.0783  22.1269  22.1420  22.2304  22.2481  22.2539
    22.3370  22.4090  22.4521  22.4863  22.4974  22.5027  22.5541  22.5866
    22.5902  22.6978  22.7158  22.7350  22.7550  22.7858  22.8184  22.8519
    22.8883  22.8989  22.9277  22.9395  22.9960  23.1550  23.2067  23.2703
    23.3419  23.3423  23.3725  23.4827  23.5176  23.5350  23.5784  23.5941
    23.6047  23.6547  23.7028  23.7484  23.8014  23.8134  23.8288  23.8812
    23.9043  23.9772  24.0958  24.1468  24.1835  24.2219  24.2368  24.3060
    24.3528  24.3732  24.3876  24.3917  24.4638  24.4740  24.5152  24.6378
    24.6540  24.6798  24.6888  24.7101  24.7492  24.7511  24.7812  24.7999
    24.9521  24.9620  24.9861  24.9995  25.0369  25.0626  25.1104  25.1233
    25.2186  25.2685  25.2990  25.2992  25.4366  25.5418  25.5466  25.6168
    25.6350  25.6496  25.7188  25.7315  25.7522  25.7531  25.7972  25.9178
    25.9864  25.9943  26.0468  26.1149  26.1829  26.2711  26.3002  26.3397
    26.4181  26.4770  26.5102  26.5194  26.5540  26.6774  26.6799  26.6928
    26.7460  26.7813  26.8950  26.9067  26.9079  26.9378  27.0360  27.0632
    27.0923  27.1318  27.1589  27.2206  27.2888  27.3645  27.4133  27.4284
    27.4546  27.4855  27.5170  27.5597

          k = 0.0000 0.0000-0.1174 ( 34536 PWs)   bands (ev):

   -28.9850 -28.9825 -28.6353 -28.6327 -19.9097 -19.9097 -19.7649 -19.7646
   -19.3935 -19.3932 -18.8448 -18.8446 -18.1314 -18.1311 -17.2826 -17.2823
   -16.4375 -16.4371 -14.7559 -14.7554 -13.8102 -13.8099 -12.7994 -12.7991
   -11.8745 -11.8740 -11.0219 -11.0213 -10.7126 -10.7116 -10.0376 -10.0373
    -9.5662  -9.5661  -9.5427  -9.5413  -9.3581  -9.3581  -8.9328  -8.9325
    -8.7646  -8.7625  -8.6343  -8.6336  -8.4586  -8.4586  -8.3376  -8.3376
    -8.2519  -8.2516  -7.7062  -7.7050  -7.6524  -7.6523  -7.3694  -7.3693
    -7.2655  -7.2651  -6.8891  -6.8890  -6.2596  -6.2595  -5.9657  -5.9651
    -5.5140  -5.5139  -4.7336  -4.7334  -4.0108  -4.0106   0.1166   0.1170
     0.9613   0.9619   2.0917   2.0921   2.9407   2.9409   3.2183   3.2187
     3.3097   3.3099   3.5643   3.5646   3.9124   3.9127   4.1614   4.1617
     4.3180   4.3182   4.5340   4.5341   4.8019   4.8021   4.8307   4.8310
     5.0551   5.0553   5.0692   5.0693   5.2928   5.2928   5.2998   5.2999
     5.3387   5.3388   5.4884   5.4887   5.7195   5.7196   5.7346   5.7346
     5.9172   5.9173   5.9675   5.9675   6.0571   6.0572   6.1553   6.1554
     6.2190   6.2191   6.4489   6.4489   6.5365   6.5365   6.6358   6.6358
     6.6808   6.6810   6.7361   6.7361   6.7629   6.7630   6.9614   6.9618
     7.1655   7.1655   7.4205   7.4206   7.6881   7.6882   7.8245   7.8252
     7.9770   7.9770   8.0512   8.0513   8.1023   8.1024   8.3174   8.3175
     8.7223   8.7223   8.8251   8.8253   9.1659   9.1662   9.3185   9.3190
     9.5587   9.5587   9.6669   9.6669   9.9828   9.9828  10.1351  10.1354
    10.1866  10.1866  10.3126  10.3129  10.3300  10.3304  10.3872  10.3877
    10.5216  10.5216  10.6080  10.6080  10.8032  10.8032  10.8962  10.8962
    10.9464  10.9465  11.0192  11.0193  11.4069  11.4074  11.4672  11.4672
    11.5164  11.5165  11.7399  11.7399  11.7916  11.7917  12.0081  12.0088
    12.1679  12.1681  12.3167  12.3168  12.3929  12.3930  12.5067  12.5068
    12.5702  12.5703  12.5789  12.5789  12.7712  12.7713  12.7890  12.7890
    13.0403  13.0405  13.3117  13.3123  13.5397  13.5401  13.6785  13.6786
    13.7123  13.7124  13.8638  13.8640  13.8768  13.8768  14.2321  14.2321
    14.3938  14.3939  14.5070  14.5071  14.5259  14.5260  14.5594  14.5597
    14.9579  14.9580  15.0587  15.0590  15.1051  15.1052  15.2156  15.2158
    15.2570  15.2571  15.5283  15.5284  15.6355  15.6359  15.7897  15.7897
    16.1222  16.1224  16.1529  16.1532  16.2620  16.2620  16.2630  16.2630
    16.3967  16.3973  16.6426  16.6426  16.7083  16.7084  17.0757  17.0759
    17.0972  17.0973  17.2099  17.2100  17.3969  17.3970  17.5029  17.5033
    17.5808  17.5809  17.6194  17.6195  17.7873  17.7873  17.8199  17.8201
    18.0023  18.0025  18.3737  18.3739  18.4029  18.4030  18.5437  18.5439
    18.5782  18.5783  18.6152  18.6153  19.0853  19.0853  19.1216  19.1217
    19.2766  19.2768  19.4688  19.4689  19.7763  19.7765  19.8500  19.8507
    19.8828  19.8830  19.9486  19.9489  20.0318  20.0319  20.0394  20.0395
    20.0645  20.0646  20.2432  20.2434  20.2656  20.2657  20.3195  20.3196
    20.4447  20.4448  20.4985  20.4985  20.5828  20.5832  20.7657  20.7657
    20.8795  20.8796  20.9819  20.9820  20.9877  20.9881  21.1144  21.1147
    21.2436  21.2438  21.2758  21.2758  21.3495  21.3496  21.4931  21.4931
    21.4991  21.4992  21.5864  21.5865  21.6464  21.6466  21.6658  21.6659
    21.7939  21.7941  21.8176  21.8179  21.8963  21.8963  21.9604  21.9604
    22.0288  22.0288  22.0798  22.0803  22.2332  22.2332  22.2688  22.2689
    22.4019  22.4022  22.4926  22.4926  22.6184  22.6185  22.6497  22.6497
    22.6783  22.6784  22.6939  22.6942  22.7506  22.7506  22.7931  22.7931
    22.9151  22.9151  22.9597  22.9598  23.0331  23.0332  23.0935  23.0936
    23.2126  23.2127  23.4108  23.4108  23.4116  23.4117  23.6286  23.6289
    23.6688  23.6688  23.8170  23.8170  23.8329  23.8331  23.9046  23.9048
    23.9838  23.9839  23.9904  23.9904  24.1580  24.1580  24.2326  24.2326
    24.2819  24.2819  24.4018  24.4018  24.5439  24.5439  24.6580  24.6581
    24.6784  24.6785  24.6894  24.6895  24.7934  24.7934  24.8268  24.8269
    24.8978  24.8978  24.9791  24.9791  25.0216  25.0218  25.0272  25.0273
    25.2403  25.2404  25.3863  25.3864  25.4278  25.4279  25.4504  25.4506
    25.5112  25.5114  25.6598  25.6600  25.7404  25.7405  25.8568  25.8570
    26.1341  26.1342  26.2407  26.2407  26.2474  26.2474  26.3465  26.3466
    26.4907  26.4908  26.5445  26.5446  26.6422  26.6423  26.7024  26.7025
    26.7865  26.7865  26.8767  26.8768  26.9747  26.9747  27.1126  27.1126
    27.1150  27.1153  27.1966  27.1966  27.2714  27.2715  27.2931  27.2932
    27.3544  27.3544  27.4588  27.4590

     the Fermi energy is    -1.8208 ev

     Writing output data file F14.save/

     init_run     :      6.27s CPU      6.43s WALL (       1 calls)
     electrons    :   2754.85s CPU   2779.97s WALL (       1 calls)

     Called by init_run:
     wfcinit      :      0.00s CPU      0.01s WALL (       1 calls)
     potinit      :      0.36s CPU      0.40s WALL (       1 calls)
     hinit0       :      5.24s CPU      5.31s WALL (       1 calls)

     Called by electrons:
     c_bands      :   2754.84s CPU   2779.94s WALL (       1 calls)
     v_of_rho     :      0.29s CPU      0.30s WALL (       1 calls)
     newd         :      0.21s CPU      0.25s WALL (       1 calls)

     Called by c_bands:
     init_us_2    :      0.07s CPU      0.08s WALL (      26 calls)
     cegterg      :   2709.78s CPU   2733.33s WALL (      76 calls)

     Called by sum_band:

     Called by *egterg:
     h_psi        :    355.91s CPU    362.55s WALL (    1366 calls)
     s_psi        :     26.79s CPU     26.91s WALL (    1366 calls)
     g_psi        :      2.73s CPU      2.74s WALL (    1264 calls)
     cdiaghg      :   1763.53s CPU   1770.09s WALL (    1290 calls)

     Called by h_psi:
     h_psi:pot    :    353.84s CPU    359.63s WALL (    1366 calls)
     h_psi:calbec :     31.01s CPU     31.67s WALL (    1366 calls)
     vloc_psi     :    296.13s CPU    301.11s WALL (    1366 calls)
     add_vuspsi   :     26.69s CPU     26.84s WALL (    1366 calls)

     General routines
     calbec       :     31.00s CPU     31.67s WALL (    1366 calls)
     fft          :      0.25s CPU      0.28s WALL (      14 calls)
     ffts         :      0.00s CPU      0.00s WALL (       1 calls)
     fftw         :    269.55s CPU    274.06s WALL (  406784 calls)
     interpolate  :      0.02s CPU      0.02s WALL (       1 calls)
     davcio       :      0.01s CPU      0.71s WALL (      52 calls)

     Parallel routines
     fft_scatt_xy :     41.66s CPU     42.41s WALL (  406799 calls)
     fft_scatt_yz :     86.50s CPU     88.14s WALL (  406799 calls)

     PWSCF        : 46m 8.71s CPU    48m10.29s WALL


   This run was terminated on:  21:17:29  21Apr2021            

=------------------------------------------------------------------------------=
   JOB DONE.
=------------------------------------------------------------------------------=
