
     Program PWSCF v.6.3 starts on 21Apr2021 at 20:34:51 

     This program is part of the open-source Quantum ESPRESSO suite
     for quantum simulation of materials; please cite
         "P. Giannozzi et al., J. Phys.:Condens. Matter 21 395502 (2009);
         "P. Giannozzi et al., J. Phys.:Condens. Matter 29 465901 (2017);
          URL http://www.quantum-espresso.org", 
     in publications or presentations arising from this work. More details at
     http://www.quantum-espresso.org/quote

     Parallel version (MPI), running on    16 processors
     R & G space division:  proc/nbgrp/npool/nimage =      16
     Waiting for input...
     Reading input from standard input
     Message from routine read_cards :
     DEPRECATED: no units specified in CELL_PARAMETERS card

     Current dimensions of program PWSCF are:
     Max number of different atomic species (ntypx) = 10
     Max number of k-points (npk) =  40000
     Max angular momentum in pseudopotentials (lmaxx) =  3

     Atomic positions and unit cell read from directory:
     /home/zfwang/scratch/GNRDATASET/AGNR/F15/F15.save/


     Subspace diagonalization in iterative solution of the eigenvalue problem:
     a serial algorithm will be used


     Parallelization info
     --------------------
     sticks:   dense  smooth     PW     G-vecs:    dense   smooth      PW
     Min        2496     832    234                93508    17995    2697
     Max        2498     834    236                93509    17996    2698
     Sum       39953   13323   3763              1496137   287931   43159



     bravais-lattice index     =            0
     lattice parameter (alat)  =       1.8897  a.u.
     unit-cell volume          =    8426.0109 (a.u.)^3
     number of atoms/cell      =           34
     number of atomic types    =            2
     number of electrons       =       148.00
     number of Kohn-Sham states=          500
     kinetic-energy cutoff     =      40.0000  Ry
     charge density cutoff     =     480.0000  Ry
     Exchange-correlation      = PBE ( 1  4  3  4 0 0)

     celldm(1)=  18.897261  celldm(2)=   2.931000  celldm(3)=   0.426000
     celldm(4)=   0.000000  celldm(5)=   0.000000  celldm(6)=   0.000000

     crystal axes: (cart. coord. in units of alat)
               a(1) = (  10.000000   0.000000   0.000000 )  
               a(2) = (   0.000000  29.310000   0.000000 )  
               a(3) = (   0.000000   0.000000   4.260000 )  

     reciprocal axes: (cart. coord. in units 2 pi/alat)
               b(1) = (  0.100000  0.000000  0.000000 )  
               b(2) = (  0.000000  0.034118  0.000000 )  
               b(3) = (  0.000000  0.000000  0.234742 )  


     PseudoPot. # 1 for C  read from file:
     /home/zfwang/hp_home/MySoftware/qe-6.3/pseudo/C.pbe-n-rrkjus_psl.0.1.UPF
     MD5 check sum: fff530ed632a789b3b184014e67dd7f1
     Pseudo is Ultrasoft + core correction, Zval =  4.0
     Generated using "atomic" code by A. Dal Corso v.5.0.2 svn rev. 9415
     Using radial grid of 1073 points,  4 beta functions with: 
                l(1) =   0
                l(2) =   0
                l(3) =   1
                l(4) =   1
     Q(r) pseudized with 0 coefficients 


     PseudoPot. # 2 for F  read from file:
     /home/zfwang/hp_home/MySoftware/qe-6.3/pseudo/F.pbe-n-rrkjus_psl.0.1.UPF
     MD5 check sum: 147397eca92fbb10e5415488e6f13084
     Pseudo is Ultrasoft + core correction, Zval =  7.0
     Generated using "atomic" code by A. Dal Corso v.5.0.2 svn rev. 9415
     Using radial grid of 1105 points,  4 beta functions with: 
                l(1) =   0
                l(2) =   0
                l(3) =   1
                l(4) =   1
     Q(r) pseudized with 0 coefficients 


     atomic species   valence    mass     pseudopotential
        C              4.00    12.01070     C ( 1.00)
        F              7.00    18.99840     F ( 1.00)

     No symmetry found



   Cartesian axes

     site n.     atom                  positions (alat units)
         1           C   tau(   1) = (   5.0000016   6.0820954   2.8058679  )
         2           C   tau(   2) = (   5.0000014   7.2561125   3.5528173  )
         3           C   tau(   3) = (   4.9999993   6.0820951   1.4541336  )
         4           C   tau(   4) = (   5.0000009   8.4854057   2.8382469  )
         5           C   tau(   5) = (   5.0000005   9.7224359   3.5511147  )
         6           C   tau(   6) = (   5.0000008   7.2561122   0.7071841  )
         7           C   tau(   7) = (   5.0000011   8.4854056   1.4217542  )
         8           C   tau(   8) = (   5.0000007  10.9531372   2.8426571  )
         9           C   tau(   9) = (   5.0000006  12.1852597   3.5501300  )
        10           C   tau(  10) = (   5.0000008   9.7224360   0.7088857  )
        11           C   tau(  11) = (   5.0000008  10.9531369   1.4173427  )
        12           C   tau(  12) = (   5.0000001  13.4220555   2.8398952  )
        13           C   tau(  13) = (   4.9999994  14.6549845   3.5477140  )
        14           C   tau(  14) = (   5.0000007  12.1852597   0.7098698  )
        15           C   tau(  15) = (   5.0000001  13.4220556   1.4201045  )
        16           C   tau(  16) = (   4.9999991  15.8879148   2.8398935  )
        17           C   tau(  17) = (   4.9999998  17.1247142   3.5501296  )
        18           C   tau(  18) = (   4.9999994  14.6549843   0.7122859  )
        19           C   tau(  19) = (   4.9999992  15.8879151   1.4201063  )
        20           C   tau(  20) = (   5.0000010  18.3568435   2.8426587  )
        21           C   tau(  21) = (   5.0000020  19.5875581   3.5511131  )
        22           C   tau(  22) = (   4.9999998  17.1247140   0.7098701  )
        23           C   tau(  23) = (   5.0000010  18.3568435   1.4173409  )
        24           C   tau(  24) = (   5.0000016  20.8246015   2.8382522  )
        25           C   tau(  25) = (   5.0000000  22.0539049   3.5528115  )
        26           C   tau(  26) = (   5.0000021  19.5875585   0.7088861  )
        27           C   tau(  27) = (   5.0000016  20.8246017   1.4217468  )
        28           C   tau(  28) = (   4.9999980  23.2279427   2.8058864  )
        29           C   tau(  29) = (   5.0000002  22.0539061   0.7071875  )
        30           C   tau(  30) = (   4.9999987  23.2279436   1.4541124  )
        31           F   tau(  31) = (   5.0000020   4.8188965   3.2312227  )
        32           F   tau(  32) = (   4.9999937   4.8188960   1.0287796  )
        33           F   tau(  33) = (   4.9999951  24.4911330   3.2312172  )
        34           F   tau(  34) = (   4.9999977  24.4911355   1.0287851  )

     number of k points=    26  Marzari-Vanderbilt smearing, width (Ry)=  0.0100
                       cart. coord. in units 2pi/alat
        k(    1) = (   0.0000000   0.0000000   0.0000000), wk =   0.0400000
        k(    2) = (   0.0000000   0.0000000   0.0046948), wk =   0.0800000
        k(    3) = (   0.0000000   0.0000000   0.0093897), wk =   0.0800000
        k(    4) = (   0.0000000   0.0000000   0.0140845), wk =   0.0800000
        k(    5) = (   0.0000000   0.0000000   0.0187793), wk =   0.0800000
        k(    6) = (   0.0000000   0.0000000   0.0234742), wk =   0.0800000
        k(    7) = (   0.0000000   0.0000000   0.0281690), wk =   0.0800000
        k(    8) = (   0.0000000   0.0000000   0.0328638), wk =   0.0800000
        k(    9) = (   0.0000000   0.0000000   0.0375587), wk =   0.0800000
        k(   10) = (   0.0000000   0.0000000   0.0422535), wk =   0.0800000
        k(   11) = (   0.0000000   0.0000000   0.0469484), wk =   0.0800000
        k(   12) = (   0.0000000   0.0000000   0.0516432), wk =   0.0800000
        k(   13) = (   0.0000000   0.0000000   0.0563380), wk =   0.0800000
        k(   14) = (   0.0000000   0.0000000   0.0610329), wk =   0.0800000
        k(   15) = (   0.0000000   0.0000000   0.0657277), wk =   0.0800000
        k(   16) = (   0.0000000   0.0000000   0.0704225), wk =   0.0800000
        k(   17) = (   0.0000000   0.0000000   0.0751174), wk =   0.0800000
        k(   18) = (   0.0000000   0.0000000   0.0798122), wk =   0.0800000
        k(   19) = (   0.0000000   0.0000000   0.0845070), wk =   0.0800000
        k(   20) = (   0.0000000   0.0000000   0.0892019), wk =   0.0800000
        k(   21) = (   0.0000000   0.0000000   0.0938967), wk =   0.0800000
        k(   22) = (   0.0000000   0.0000000   0.0985915), wk =   0.0800000
        k(   23) = (   0.0000000   0.0000000   0.1032864), wk =   0.0800000
        k(   24) = (   0.0000000   0.0000000   0.1079812), wk =   0.0800000
        k(   25) = (   0.0000000   0.0000000   0.1126761), wk =   0.0800000
        k(   26) = (   0.0000000   0.0000000  -0.1173709), wk =   0.0400000

     Dense  grid:  1496137 G-vectors     FFT dimensions: ( 135, 400,  60)

     Smooth grid:   287931 G-vectors     FFT dimensions: (  80, 225,  36)

     Estimated max dynamical RAM per process >     447.96 MB

     Estimated total dynamical RAM >       7.00 GB

     Check: negative/imaginary core charge=   -0.000005    0.000000

     The potential is recalculated from file :
     /home/zfwang/scratch/GNRDATASET/AGNR/F15/F15.save/charge-density.dat


     negative rho (up, down):  1.887E-03 0.000E+00
     Starting wfcs are  136 randomized atomic wfcs +  364 random wfcs

     Band Structure Calculation
     Davidson diagonalization with overlap
     c_bands:  1 eigenvalues not converged

     ethr =  6.76E-09,  avg # of iterations = 43.3

     total cpu time spent up to now is     2783.5 secs

     End of band structure calculation

          k = 0.0000 0.0000 0.0000 ( 35933 PWs)   bands (ev):

   -29.4807 -29.4804 -27.9000 -27.8996 -21.3013 -21.1734 -20.8430 -20.3522
   -19.7106 -18.9141 -18.0165 -17.0652 -16.2105 -16.0527 -15.9710 -15.6908
   -15.6583 -15.2786 -15.2692 -14.9292 -14.9022 -14.7305 -14.4990 -14.4630
   -14.0304 -13.2506 -12.6569 -12.6066 -12.4136 -12.2427 -12.1902 -11.6126
   -11.5063 -11.3120 -10.9120 -10.5715 -10.4816 -10.2030 -10.2025 -10.1946
    -9.6704  -9.5298  -9.3126  -9.3026  -8.9962  -8.8719  -8.6324  -8.5141
    -8.2263  -8.1550  -7.9069  -7.9067  -7.8947  -7.4398  -7.1595  -7.0993
    -6.7734  -6.2971  -6.1362  -6.0684  -5.5180  -5.4018  -5.3401  -5.2802
    -5.1138  -5.0195  -4.3198  -4.0604  -3.8397  -3.4150  -3.2941  -2.8153
    -2.3404  -2.0548  -1.5112  -1.0908  -0.9421  -0.5564  -0.2930  -0.1343
    -0.0074   1.2047   1.2832   1.4109   1.6422   2.0067   2.3244   2.5217
     2.9275   2.9294   2.9325   3.0929   3.3285   3.3445   3.4499   3.7387
     3.9049   3.9428   4.0183   4.1661   4.2372   4.3106   4.4582   4.6486
     4.6730   4.7900   5.0305   5.3179   5.3238   5.6775   5.7979   5.8095
     5.8215   5.9773   6.1394   6.1424   6.2636   6.5368   6.6056   6.6436
     6.6538   6.7580   6.9517   7.2309   7.2501   7.2892   7.5554   7.5584
     7.6103   7.7446   7.8214   8.0022   8.1862   8.2335   8.2611   8.4115
     8.4705   8.5465   8.6370   8.7678   8.7794   8.7812   8.8245   8.8966
     8.9145   8.9406   9.1363   9.2475   9.2636   9.2970   9.3478   9.3968
     9.4320   9.4671   9.5097   9.5237   9.5688   9.6070   9.6649   9.7239
     9.8362   9.8748   9.8772   9.8994   9.9145   9.9809   9.9880  10.0322
    10.1169  10.2173  10.2311  10.3097  10.3429  10.4392  10.4504  10.5850
    10.6054  10.6543  10.6756  10.7210  10.7517  10.8826  10.9323  10.9402
    10.9434  10.9612  10.9839  11.0797  11.0827  11.0852  11.1055  11.1366
    11.2481  11.3202  11.3285  11.3944  11.4105  11.4218  11.5191  11.6166
    11.6624  11.6908  11.8257  11.8385  11.8451  11.8614  11.9346  11.9363
    12.0034  12.0470  12.0743  12.0804  12.0817  12.0894  12.0977  12.1558
    12.2235  12.3929  12.4367  12.5622  12.5685  12.5889  12.6445  12.6557
    12.7482  12.7623  12.8330  12.8797  12.8827  12.9184  13.0521  13.0597
    13.1488  13.3356  13.3541  13.3793  13.4717  13.4839  13.5916  13.6548
    13.7042  13.8702  13.9334  13.9749  13.9910  14.1466  14.1601  14.1680
    14.2407  14.2912  14.3431  14.3739  14.4248  14.4736  14.4840  14.4926
    14.7335  14.7451  14.9101  14.9196  14.9508  15.1072  15.2582  15.3575
    15.4498  15.4560  15.4908  15.5113  15.6153  15.6839  15.6907  15.7294
    15.8047  15.8465  15.8951  15.9253  15.9362  15.9481  15.9877  16.0888
    16.1341  16.1682  16.2288  16.3742  16.4399  16.4555  16.4748  16.5369
    16.5519  16.5794  16.6276  16.6821  16.7361  16.7633  16.7725  16.9096
    16.9304  17.0353  17.0467  17.0915  17.1576  17.1734  17.2362  17.2718
    17.2729  17.3489  17.3687  17.4264  17.4388  17.4519  17.4716  17.4790
    17.5177  17.5600  17.6083  17.6818  17.7635  17.7783  17.8335  17.8436
    17.8659  17.8753  18.0344  18.0424  18.0452  18.0999  18.1547  18.2184
    18.2831  18.3554  18.3677  18.3688  18.4352  18.4808  18.4843  18.4957
    18.5712  18.5751  18.6288  18.7312  18.8011  18.8407  18.8926  18.9645
    19.0645  19.1014  19.1149  19.1960  19.1979  19.2261  19.4417  19.4449
    19.4685  19.4893  19.5593  19.5990  19.7033  19.9498  20.0263  20.0526
    20.1681  20.2879  20.3439  20.3571  20.3657  20.3974  20.4007  20.5564
    20.5735  20.6081  20.6091  20.6488  20.6490  20.6572  20.6922  20.7574
    20.7785  20.8598  20.9145  20.9162  20.9532  20.9761  21.0147  21.1333
    21.1629  21.2334  21.2355  21.2519  21.3371  21.4245  21.4506  21.4902
    21.5172  21.5508  21.6906  21.7006  21.7281  21.7583  21.7861  21.7968
    21.8388  21.8941  21.9516  22.0515  22.1029  22.1405  22.1500  22.2135
    22.2192  22.2454  22.2819  22.3673  22.4276  22.5066  22.5150  22.5165
    22.5232  22.5718  22.6092  22.6658  22.6826  22.7309  22.7989  22.8281
    22.8468  22.8829  22.9405  22.9694  23.0657  23.0702  23.1124  23.2067
    23.2194  23.2761  23.3998  23.4913  23.5380  23.6554  23.6784  23.7096
    23.8257  23.8274  23.8690  23.8969  23.8984  23.9393  24.0422  24.0568
    24.0802  24.1572  24.1655  24.1963  24.3059  24.3333  24.3512  24.4413
    24.4692  24.4816  24.5053  24.6008  24.6663  24.7404  24.7939  24.8400
    24.9055  25.0111  25.1453  25.1519  25.2793  25.3214  25.3749  25.3921
    25.4255  25.4288  25.5175  25.6185  25.6196  25.6384  25.7379  25.7729
    25.9398  25.9601  25.9788  26.0162  26.0359  26.1229  26.1592  26.2979
    26.3266  26.3427  26.3824  26.4684  26.4887  26.5219  26.5315  26.5648
    26.5927  26.6401  26.6960  26.7547

          k = 0.0000 0.0000 0.0047 ( 35921 PWs)   bands (ev):

   -29.4794 -29.4791 -27.9018 -27.9014 -21.2989 -21.1710 -20.8406 -20.3499
   -19.7083 -18.9118 -18.0144 -17.0636 -16.2230 -16.0865 -16.0268 -15.7337
   -15.6416 -15.3061 -15.2351 -14.8986 -14.8732 -14.7652 -14.4649 -14.4038
   -14.0386 -13.2716 -12.6541 -12.5909 -12.4269 -12.2248 -12.1816 -11.6318
   -11.4873 -11.3010 -10.9242 -10.5613 -10.4736 -10.2025 -10.2012 -10.2007
    -9.6645  -9.5239  -9.3207  -9.2998  -8.9936  -8.8650  -8.6291  -8.5115
    -8.2370  -8.1473  -7.9091  -7.9089  -7.8922  -7.4334  -7.1572  -7.1130
    -6.7685  -6.2949  -6.1532  -6.0635  -5.5266  -5.4048  -5.3382  -5.2809
    -5.1154  -5.0277  -4.3187  -4.0764  -3.8563  -3.4338  -3.2949  -2.8384
    -2.3534  -2.1071  -1.4587  -1.0792  -0.9174  -0.5355  -0.2731  -0.1147
    -0.0085   1.2002   1.2864   1.4140   1.6453   2.0098   2.3277   2.5158
     2.9305   2.9322   2.9357   3.0961   3.3313   3.3477   3.4525   3.7418
     3.8982   3.9461   4.0215   4.1691   4.2404   4.3138   4.4612   4.6518
     4.6758   4.7927   5.0325   5.3110   5.3270   5.6797   5.8018   5.8126
     5.8252   5.9795   6.1113   6.1691   6.2563   6.5457   6.6097   6.6365
     6.6559   6.7518   6.9447   7.2347   7.2538   7.2965   7.5446   7.5590
     7.5898   7.7478   7.8138   8.0050   8.1884   8.2467   8.2643   8.3777
     8.4737   8.5509   8.6359   8.7381   8.7701   8.7876   8.8277   8.9015
     8.9189   8.9280   9.0684   9.1390   9.1948   9.2506   9.2601   9.4238
     9.4618   9.4664   9.4719   9.5742   9.5801   9.6015   9.6668   9.8251
     9.8433   9.8553   9.8743   9.8844   9.9809   9.9896  10.0017  10.0995
    10.1038  10.1045  10.1609  10.3176  10.3201  10.3217  10.5244  10.5307
    10.5945  10.6607  10.6847  10.7109  10.7657  10.8215  10.8779  10.9350
    10.9727  11.0077  11.0670  11.0827  11.0924  11.1513  11.1990  11.2138
    11.2230  11.2903  11.3535  11.3829  11.4140  11.4379  11.5335  11.5979
    11.6267  11.6317  11.6918  11.8009  11.8022  11.8388  11.8586  11.8665
    11.9535  11.9814  12.0050  12.0735  12.0950  12.1994  12.2336  12.2411
    12.3212  12.3648  12.4219  12.4297  12.5898  12.6271  12.6340  12.6878
    12.7417  12.7801  12.8955  12.9254  12.9389  12.9808  12.9847  13.0635
    13.2173  13.2617  13.3367  13.5142  13.5298  13.5459  13.6644  13.6679
    13.6841  13.8145  13.8743  13.9165  13.9817  14.0518  14.1374  14.1982
    14.2031  14.3442  14.3508  14.3843  14.4313  14.4760  14.4971  14.6995
    14.7145  14.7420  14.9128  14.9569  15.0014  15.1037  15.2757  15.3334
    15.3658  15.4353  15.4476  15.5454  15.6051  15.6752  15.6921  15.7404
    15.7911  15.8209  15.8955  15.8984  15.9263  15.9436  15.9813  16.1089
    16.1580  16.1637  16.3119  16.3218  16.3378  16.3416  16.5099  16.5217
    16.6228  16.6237  16.6594  16.6869  16.7319  16.7766  16.8628  16.9026
    16.9266  16.9962  17.0891  17.1043  17.1362  17.2018  17.2186  17.2349
    17.2638  17.3187  17.3494  17.3981  17.4163  17.4622  17.4792  17.5202
    17.5402  17.5734  17.6186  17.6908  17.7511  17.7659  17.8151  17.8340
    17.8368  17.8772  17.9675  18.0305  18.0406  18.0439  18.1098  18.1556
    18.2412  18.3818  18.4164  18.4333  18.4388  18.4655  18.5142  18.6121
    18.6487  18.6548  18.7328  18.8122  18.8141  18.8535  18.8610  18.9064
    18.9642  19.0368  19.1644  19.2487  19.2533  19.3120  19.4116  19.4189
    19.4295  19.4954  19.5924  19.6328  19.6979  19.9328  20.0373  20.0986
    20.1855  20.1908  20.3152  20.3188  20.3755  20.3762  20.4797  20.5114
    20.5127  20.5649  20.6340  20.6413  20.6457  20.6609  20.7001  20.7500
    20.8436  20.8455  20.9401  20.9432  20.9611  20.9811  21.0124  21.2323
    21.2408  21.2563  21.2751  21.2765  21.3135  21.4012  21.4559  21.4903
    21.5395  21.5499  21.6262  21.6536  21.7411  21.7968  21.7989  21.8293
    21.8334  21.9207  21.9748  22.0511  22.0599  22.1532  22.1866  22.1966
    22.2012  22.2120  22.2752  22.3526  22.4155  22.4841  22.4848  22.5366
    22.5425  22.5570  22.5931  22.6196  22.7071  22.7548  22.8005  22.8162
    22.8211  22.9101  22.9429  22.9794  23.0660  23.0809  23.1253  23.2256
    23.2901  23.3011  23.4044  23.5180  23.5820  23.6480  23.6666  23.6715
    23.7882  23.7884  23.8613  23.8840  23.9178  23.9488  23.9701  24.0470
    24.0497  24.1125  24.1320  24.2313  24.2353  24.2943  24.4212  24.4324
    24.5044  24.5187  24.6511  24.6529  24.6783  24.7225  24.7596  24.8889
    24.9188  25.0600  25.0869  25.1678  25.2212  25.2885  25.2915  25.3180
    25.3882  25.5071  25.5528  25.6473  25.6527  25.7334  25.7397  25.7849
    25.9270  25.9491  26.0034  26.0112  26.0306  26.1269  26.1846  26.2020
    26.3325  26.3888  26.4349  26.4434  26.4701  26.4921  26.5295  26.5377
    26.5736  26.6088  26.7124  26.7269

          k = 0.0000 0.0000 0.0094 ( 35931 PWs)   bands (ev):

   -29.4757 -29.4754 -27.9072 -27.9068 -21.2918 -21.1640 -20.8337 -20.3430
   -19.7015 -18.9052 -18.0081 -17.0589 -16.2827 -16.1527 -16.1491 -15.8351
   -15.6454 -15.3533 -15.1769 -14.8943 -14.7986 -14.7236 -14.3756 -14.2843
   -14.0592 -13.3294 -12.6549 -12.5479 -12.4492 -12.1793 -12.1573 -11.6746
   -11.4444 -11.2695 -10.9579 -10.5334 -10.4515 -10.2243 -10.1957 -10.1952
    -9.6478  -9.5072  -9.3429  -9.2915  -8.9857  -8.8445  -8.6193  -8.5039
    -8.2679  -8.1249  -7.9158  -7.9156  -7.8849  -7.4156  -7.1508  -7.1501
    -6.7573  -6.2882  -6.1933  -6.0592  -5.5516  -5.4141  -5.3324  -5.2829
    -5.1207  -5.0525  -4.3155  -4.1234  -3.9051  -3.4880  -3.2979  -2.9041
    -2.3909  -2.2282  -1.3371  -1.0457  -0.8466  -0.4743  -0.2146  -0.0571
    -0.0116   1.1871   1.2960   1.4235   1.6546   2.0190   2.3373   2.4983
     2.9396   2.9406   2.9454   3.1057   3.3400   3.3573   3.4601   3.7507
     3.8785   3.9557   4.0311   4.1784   4.2499   4.3232   4.4701   4.6613
     4.6842   4.8008   5.0385   5.2905   5.3364   5.6862   5.8134   5.8219
     5.8364   5.9857   6.0797   6.1960   6.2365   6.5705   6.6152   6.6224
     6.6599   6.7379   6.9227   7.2462   7.2651   7.3161   7.5158   7.5178
     7.5770   7.7573   7.7910   8.0130   8.1940   8.2738   8.2780   8.2884
     8.4832   8.5637   8.6049   8.6777   8.7294   8.7454   8.8037   8.8373
     8.9154   8.9296   8.9319   8.9957   9.1466   9.2494   9.2599   9.3380
     9.3542   9.3990   9.4260   9.4741   9.5815   9.6070   9.8144   9.8174
     9.8607   9.8734   9.9048   9.9548   9.9639   9.9906  10.0157  10.0448
    10.0556  10.0570  10.0853  10.1592  10.3591  10.4322  10.4982  10.5187
    10.5374  10.5641  10.5675  10.6710  10.8555  10.9161  10.9229  10.9442
    11.0184  11.0377  11.0694  11.1133  11.2012  11.2101  11.2276  11.2770
    11.2903  11.3149  11.3430  11.3625  11.3671  11.4105  11.4705  11.4858
    11.5701  11.6450  11.6619  11.6718  11.6924  11.7129  11.8596  11.8780
    11.9142  11.9434  11.9882  12.0041  12.0254  12.1124  12.2732  12.3378
    12.3562  12.4095  12.4368  12.4838  12.5793  12.5967  12.6589  12.6715
    12.7365  12.9189  12.9226  13.0230  13.0730  13.0785  13.0842  13.1578
    13.2070  13.2367  13.4995  13.5123  13.5869  13.5971  13.7327  13.7363
    13.7546  13.7606  13.8093  13.9099  13.9358  14.0242  14.0519  14.1881
    14.2232  14.2333  14.3636  14.4775  14.4785  14.5433  14.5976  14.7336
    14.7579  14.8799  14.9607  15.0163  15.0931  15.1297  15.2284  15.2560
    15.2748  15.3412  15.3907  15.5799  15.6256  15.6758  15.7164  15.7387
    15.7881  15.8443  15.8477  15.8926  15.8978  15.9075  15.9324  16.0077
    16.1142  16.2116  16.2422  16.3241  16.3482  16.3721  16.4829  16.5026
    16.5780  16.6617  16.6669  16.7785  16.8662  16.8940  16.8945  16.9286
    16.9300  16.9774  16.9967  17.0441  17.0896  17.1691  17.1809  17.2189
    17.2427  17.3435  17.3636  17.3800  17.4046  17.4782  17.4905  17.5118
    17.5763  17.6302  17.6433  17.6713  17.6772  17.6968  17.7103  17.7894
    17.8455  17.8577  17.8829  18.0396  18.0507  18.0661  18.0727  18.1534
    18.2228  18.3785  18.4194  18.5313  18.5364  18.5719  18.5728  18.7050
    18.7131  18.7551  18.7615  18.7960  18.8376  18.8487  18.9464  18.9711
    19.0350  19.0540  19.2009  19.2513  19.2933  19.3218  19.4108  19.4179
    19.5468  19.5612  19.6525  19.6766  19.6859  19.8378  20.0310  20.1141
    20.1262  20.1910  20.2749  20.3043  20.3198  20.4170  20.4369  20.4431
    20.4841  20.5034  20.5214  20.6693  20.6834  20.7008  20.7052  20.7580
    20.9263  20.9266  21.0006  21.0014  21.0014  21.0940  21.0944  21.2333
    21.2343  21.2618  21.2694  21.3554  21.3675  21.4884  21.5199  21.5236
    21.5326  21.5399  21.5636  21.6181  21.7839  21.8203  21.8208  21.8311
    21.8855  21.9777  22.0070  22.0197  22.0477  22.0923  22.1089  22.1472
    22.1975  22.2468  22.2599  22.3647  22.4012  22.4028  22.4692  22.4920
    22.5422  22.5791  22.5986  22.6323  22.7315  22.7657  22.7924  22.8149
    22.8595  22.9498  22.9507  22.9710  23.0211  23.0949  23.1261  23.3033
    23.3833  23.4050  23.4558  23.5572  23.5790  23.5907  23.6441  23.6552
    23.6763  23.7041  23.8171  23.8664  23.9299  23.9323  23.9673  23.9690
    23.9762  24.1312  24.1557  24.2235  24.2422  24.2716  24.4173  24.5008
    24.5268  24.5415  24.6929  24.6934  24.7340  24.7546  24.8335  24.9106
    24.9637  25.0907  25.0924  25.1002  25.1548  25.2208  25.2266  25.3353
    25.4431  25.5059  25.5504  25.6289  25.7294  25.7562  25.8325  25.8360
    25.8975  25.9302  26.0143  26.0448  26.0700  26.1085  26.1510  26.2124
    26.2973  26.3546  26.3628  26.4293  26.4385  26.5019  26.5045  26.5103
    26.5266  26.5586  26.6187  26.7011

          k = 0.0000 0.0000 0.0141 ( 35901 PWs)   bands (ev):

   -29.4695 -29.4692 -27.9161 -27.9158 -21.2801 -21.1523 -20.8221 -20.3315
   -19.6902 -18.8941 -17.9975 -17.0516 -16.4094 -16.3064 -16.2025 -15.9483
   -15.7204 -15.3768 -15.1999 -14.8612 -14.6957 -14.5778 -14.2615 -14.1468
   -14.0752 -13.4130 -12.6841 -12.4857 -12.4476 -12.1210 -12.1148 -11.7280
   -11.3877 -11.2208 -11.0071 -10.4934 -10.4215 -10.2524 -10.1866 -10.1861
    -9.6248  -9.4819  -9.3729  -9.2777  -8.9725  -8.8120  -8.6040  -8.4913
    -8.3148  -8.0900  -7.9268  -7.9266  -7.8726  -7.3902  -7.2065  -7.1382
    -6.7459  -6.2770  -6.2470  -6.0643  -5.5914  -5.4303  -5.3229  -5.2868
    -5.1303  -5.0935  -4.3103  -4.1987  -3.9828  -3.5731  -3.3036  -3.0043
    -2.4496  -2.3769  -1.1877  -0.9936  -0.7381  -0.3774  -0.1205  -0.0166
     0.0360   1.1655   1.3120   1.4392   1.6701   2.0343   2.3533   2.4694
     2.9545   2.9546   2.9614   3.1217   3.3543   3.3733   3.4728   3.7648
     3.8470   3.9718   4.0469   4.1937   4.2657   4.3389   4.4850   4.6772
     4.6979   4.8143   5.0483   5.2576   5.3521   5.6968   5.8323   5.8374
     5.8550   5.9946   6.0460   6.2097   6.2224   6.5801   6.6065   6.6451
     6.6568   6.7305   6.8846   7.2652   7.2839   7.3410   7.4212   7.4851
     7.5915   7.7534   7.7731   8.0255   8.1442   8.2230   8.2896   8.3016
     8.4117   8.4990   8.5196   8.5841   8.6749   8.6803   8.7051   8.8298
     8.8533   8.9083   8.9373   8.9527   9.1561   9.1799   9.2248   9.2318
     9.2749   9.3232   9.3581   9.4626   9.5358   9.5853   9.6704   9.7553
     9.7878   9.8145   9.8373   9.8602   9.8846   9.9716  10.0191  10.0226
    10.0267  10.0786  10.2083  10.2437  10.2971  10.3879  10.3950  10.4855
    10.5120  10.6827  10.7319  10.7340  10.8809  10.9322  10.9555  10.9816
    11.0166  11.0332  11.0408  11.0891  11.1100  11.1293  11.1347  11.1692
    11.2114  11.2885  11.3462  11.4361  11.4833  11.4834  11.4838  11.5585
    11.5668  11.5848  11.5956  11.5980  11.6311  11.7360  11.8269  11.8729
    11.9200  11.9255  11.9584  11.9751  12.0188  12.0870  12.1837  12.2457
    12.2856  12.3303  12.4561  12.5132  12.5282  12.6353  12.7325  12.8753
    12.9316  12.9482  12.9552  13.0452  13.1206  13.1716  13.1932  13.2400
    13.3527  13.3905  13.4751  13.5307  13.5676  13.5992  13.7005  13.7663
    13.8358  13.9224  13.9259  13.9469  14.0314  14.0612  14.1230  14.1528
    14.1822  14.2246  14.3637  14.4951  14.5134  14.5890  14.6049  14.7540
    14.8930  14.9348  14.9566  15.0451  15.0739  15.0874  15.1867  15.2041
    15.2920  15.3892  15.4884  15.5480  15.5964  15.6154  15.7604  15.7664
    15.7949  15.8116  15.8172  15.8310  15.9177  15.9419  15.9422  15.9493
    16.0414  16.0936  16.2389  16.3054  16.3466  16.4736  16.4994  16.5323
    16.6336  16.6450  16.7309  16.7504  16.7877  16.7985  16.8991  16.9060
    16.9529  16.9676  16.9998  17.0236  17.1031  17.1732  17.1885  17.1947
    17.2014  17.2283  17.3494  17.3940  17.3962  17.4392  17.4781  17.5184
    17.5526  17.5739  17.6065  17.6368  17.6837  17.7235  17.7357  17.7506
    17.8584  17.8924  18.0192  18.0892  18.0954  18.1080  18.1444  18.1718
    18.2518  18.3843  18.4147  18.4804  18.5513  18.5983  18.6094  18.6492
    18.7689  18.7935  18.8147  18.8606  18.8686  18.9312  19.0014  19.0609
    19.1182  19.1439  19.2810  19.3245  19.3706  19.4253  19.4870  19.5699
    19.5908  19.6418  19.6537  19.6975  19.7766  19.8065  19.9788  20.0734
    20.0737  20.1301  20.1577  20.1975  20.3203  20.4093  20.4436  20.4582
    20.4722  20.4751  20.5600  20.7181  20.7416  20.7578  20.8042  20.8112
    20.9209  20.9403  21.0365  21.0502  21.0811  21.1374  21.1676  21.2790
    21.2818  21.2888  21.2961  21.3834  21.3865  21.4251  21.4377  21.5024
    21.5850  21.6149  21.7023  21.7588  21.7820  21.7874  21.8028  21.9372
    21.9373  21.9579  21.9695  22.0174  22.0392  22.0725  22.0863  22.1042
    22.1430  22.2174  22.2688  22.3720  22.3786  22.3837  22.4662  22.5017
    22.5420  22.6348  22.6551  22.7147  22.7211  22.7328  22.8206  22.8557
    22.8990  22.9508  22.9603  22.9643  23.0160  23.0783  23.1942  23.3304
    23.3715  23.4161  23.4219  23.4960  23.5085  23.5519  23.5531  23.5725
    23.7276  23.7921  23.7973  23.8481  23.9339  23.9484  23.9512  23.9541
    24.0222  24.1900  24.1962  24.2448  24.2591  24.2619  24.4086  24.4958
    24.5249  24.5285  24.6574  24.6783  24.7682  24.7964  24.8007  24.8775
    25.0025  25.0328  25.1038  25.1424  25.2001  25.2705  25.2900  25.3699
    25.5438  25.5495  25.5692  25.6171  25.6927  25.7786  25.8575  25.8646
    25.8708  25.9189  25.9285  25.9396  26.1279  26.1402  26.1512  26.2279
    26.2320  26.2370  26.3030  26.3056  26.4036  26.4854  26.5083  26.5206
    26.5232  26.5585  26.6107  26.6759

          k = 0.0000 0.0000 0.0188 ( 35913 PWs)   bands (ev):

   -29.4608 -29.4605 -27.9285 -27.9282 -21.2635 -21.1359 -20.8058 -20.3154
   -19.6743 -18.8786 -17.9829 -17.0426 -16.5692 -16.4707 -16.2882 -16.0289
   -15.8461 -15.3892 -15.3066 -14.7511 -14.5822 -14.4011 -14.1855 -14.0250
   -14.0006 -13.5124 -12.7505 -12.4125 -12.4102 -12.0781 -12.0350 -11.7843
   -11.3194 -11.1590 -11.0669 -10.4454 -10.4048 -10.2649 -10.1739 -10.1734
    -9.6076  -9.4505  -9.3965  -9.2584  -8.9540  -8.7705  -8.5840  -8.4735
    -8.3724  -8.0457  -7.9422  -7.9418  -7.8554  -7.3614  -7.2746  -7.1216
    -6.7397  -6.3108  -6.2614  -6.0811  -5.6442  -5.4540  -5.3096  -5.2934
    -5.1504  -5.1451  -4.3038  -4.2985  -4.0846  -3.6833  -3.3123  -3.1298
    -2.5362  -2.5250  -1.0273  -0.9268  -0.6014  -0.2508  -0.0219   0.0047
     0.1606   1.1360   1.3345   1.4612   1.6918   2.0557   2.3757   2.4297
     2.9740   2.9754   2.9839   3.1440   3.3744   3.3957   3.4905   3.7749
     3.8133   3.9944   4.0692   4.2152   4.2879   4.3609   4.5057   4.6993
     4.7162   4.8330   5.0617   5.2135   5.3740   5.7108   5.8579   5.8591
     5.8807   6.0032   6.0102   6.1823   6.2484   6.5316   6.6400   6.6439
     6.6840   6.7421   6.8327   7.2875   7.2916   7.3099   7.3841   7.4510
     7.6128   7.7015   7.7951   8.0020   8.0385   8.1338   8.2215   8.2488
     8.3117   8.3632   8.5109   8.5208   8.6102   8.6497   8.6636   8.7337
     8.8656   8.8755   8.9648   8.9801   8.9872   9.1514   9.1816   9.2159
     9.2194   9.2927   9.3015   9.3260   9.4478   9.5107   9.5426   9.5659
     9.5700   9.7724   9.7897   9.8227   9.8973   9.9458   9.9515  10.0129
    10.0435  10.0437  10.0804  10.1495  10.2900  10.4354  10.4359  10.5966
    10.6934  10.7229  10.7645  10.8156  10.8463  10.8828  10.8868  10.8904
    10.8934  10.9753  10.9886  11.0059  11.0070  11.0897  11.1023  11.1620
    11.2485  11.2959  11.3338  11.3878  11.4856  11.4913  11.5151  11.5421
    11.5423  11.5948  11.6661  11.6729  11.7605  11.8351  11.8478  11.8652
    11.8742  11.8854  11.9002  12.0073  12.0272  12.0508  12.0797  12.1127
    12.2424  12.3339  12.3857  12.5902  12.6091  12.6451  12.8048  12.9167
    12.9362  12.9579  13.0306  13.1242  13.1274  13.1696  13.2407  13.3991
    13.4110  13.5395  13.5754  13.5955  13.6329  13.7377  13.7835  13.8496
    13.9244  13.9250  14.0495  14.0743  14.0998  14.1486  14.1605  14.1881
    14.2606  14.3172  14.3988  14.4064  14.5432  14.5936  14.6470  14.8196
    14.8320  14.8966  14.9022  14.9087  15.0386  15.1307  15.2028  15.2172
    15.4145  15.4311  15.5094  15.5347  15.5952  15.6162  15.7569  15.7820
    15.8062  15.8302  15.8491  15.8571  15.8775  15.8965  15.9487  15.9565
    16.1011  16.1150  16.2785  16.3672  16.3774  16.4489  16.4693  16.5337
    16.5843  16.6226  16.6323  16.7069  16.7265  16.8003  16.8305  16.8948
    16.8982  16.9451  16.9499  16.9673  17.0369  17.0480  17.1017  17.2134
    17.2468  17.2489  17.2813  17.3313  17.3814  17.4055  17.4634  17.5002
    17.5232  17.5997  17.6785  17.7249  17.7420  17.7742  17.8747  17.8755
    17.9050  17.9231  18.0946  18.1239  18.1431  18.1818  18.2416  18.2425
    18.2444  18.3350  18.4015  18.4057  18.5393  18.5623  18.5988  18.6071
    18.8147  18.8314  18.8863  18.9233  18.9252  18.9929  19.1197  19.1265
    19.2272  19.2379  19.3522  19.3558  19.4749  19.5094  19.6245  19.6657
    19.7142  19.7319  19.7572  19.8198  19.8292  19.8823  19.9089  19.9331
    20.0000  20.0518  20.1517  20.2713  20.3091  20.3612  20.4136  20.4185
    20.5092  20.6255  20.6438  20.7383  20.7400  20.8718  20.8801  20.9168
    20.9470  20.9843  21.0538  21.0587  21.1075  21.1209  21.1531  21.2505
    21.2722  21.2895  21.3187  21.3573  21.4144  21.4583  21.5230  21.5835
    21.6112  21.7113  21.7218  21.7636  21.7700  21.8437  21.8501  21.8576
    21.9061  21.9499  21.9675  21.9891  22.0191  22.0368  22.1308  22.1622
    22.2194  22.2994  22.3108  22.3236  22.3691  22.4366  22.5018  22.5140
    22.5683  22.6269  22.6409  22.6920  22.7153  22.8552  22.9010  22.9365
    22.9524  22.9580  22.9721  23.0162  23.0306  23.1117  23.1653  23.2507
    23.2806  23.3275  23.3498  23.4237  23.4372  23.4497  23.5188  23.5876
    23.7539  23.7952  23.8876  23.9034  23.9271  23.9558  23.9886  24.0692
    24.1117  24.1471  24.1568  24.2331  24.2840  24.3796  24.3813  24.4522
    24.4956  24.5538  24.6356  24.6660  24.7204  24.8147  24.8239  24.8602
    24.8637  25.0301  25.1704  25.1764  25.2638  25.2822  25.4406  25.5108
    25.5581  25.5872  25.6231  25.6656  25.6700  25.7095  25.7218  25.8217
    25.8303  25.8361  25.9459  25.9569  26.0145  26.0455  26.0748  26.1806
    26.2199  26.2627  26.2796  26.2907  26.4367  26.4898  26.5194  26.5606
    26.5642  26.5782  26.6540  26.7428

          k = 0.0000 0.0000 0.0235 ( 35923 PWs)   bands (ev):

   -29.4497 -29.4494 -27.9444 -27.9440 -21.2423 -21.1149 -20.7849 -20.2947
   -19.6539 -18.8587 -17.9641 -17.0345 -16.7416 -16.6366 -16.4213 -16.0658
   -15.9933 -15.4375 -15.4105 -14.6227 -14.4878 -14.2089 -14.1529 -13.8851
   -13.8502 -13.6170 -12.8405 -12.3489 -12.3389 -12.0350 -11.9426 -11.8305
   -11.2409 -11.1389 -11.0825 -10.4305 -10.3918 -10.2318 -10.1577 -10.1572
    -9.6175  -9.4147  -9.3905  -9.2335  -8.9303  -8.7261  -8.5597  -8.4508
    -8.4328  -7.9953  -7.9616  -7.9613  -7.8333  -7.3514  -7.3334  -7.1003
    -6.7423  -6.3828  -6.2414  -6.1099  -5.7085  -5.4846  -5.3043  -5.2926
    -5.2217  -5.1655  -4.4186  -4.2995  -4.2024  -3.8131  -3.3243  -3.2725
    -2.6995  -2.6133  -0.8626  -0.8492  -0.4444  -0.1061  -0.0212   0.1562
     0.3124   1.0994   1.3633   1.4895   1.7196   2.0831   2.3800   2.4045
     2.9989   3.0021   3.0127   3.1728   3.4003   3.4244   3.5132   3.7351
     3.8243   4.0233   4.0978   4.2427   4.3164   4.3891   4.5322   4.7277
     4.7379   4.8569   5.0784   5.1605   5.4022   5.7268   5.8868   5.8900
     5.9135   5.9736   6.0047   6.1638   6.2743   6.4704   6.6190   6.6770
     6.7259   6.7677   6.7896   7.1556   7.3251   7.3430   7.4077   7.4095
     7.6358   7.6384   7.8213   7.8546   7.8569   8.0202   8.0392   8.2050
     8.2657   8.3400   8.4577   8.4596   8.5484   8.5798   8.6384   8.7332
     8.8107   8.9038   8.9101   8.9784   8.9901   9.0119   9.1090   9.1335
     9.1648   9.2280   9.2330   9.2571   9.3192   9.3440   9.3626   9.4620
     9.5597   9.6220   9.6801   9.7142   9.8284   9.9326   9.9461  10.0194
    10.0244  10.0687  10.0892  10.1015  10.2944  10.3405  10.4336  10.4786
    10.6129  10.6187  10.6396  10.7148  10.7299  10.8090  10.8844  10.9295
    10.9510  10.9702  11.0132  11.0166  11.0269  11.0908  11.1411  11.1546
    11.2282  11.2708  11.3491  11.4762  11.4853  11.4932  11.5550  11.5961
    11.6300  11.6455  11.6668  11.6944  11.7495  11.7771  11.7915  11.8129
    11.8131  11.9081  11.9491  11.9691  12.0393  12.0594  12.0862  12.1104
    12.2729  12.3549  12.4660  12.5698  12.6614  12.7343  12.8219  12.8651
    12.8862  12.8902  12.9974  13.0113  13.1251  13.2302  13.4683  13.5456
    13.5805  13.6382  13.7218  13.7472  13.7900  13.8029  13.9259  13.9373
    13.9701  14.0367  14.0818  14.1106  14.1474  14.2081  14.2461  14.2771
    14.3440  14.3762  14.4232  14.4257  14.5878  14.6070  14.6460  14.7992
    14.8070  14.8653  14.8886  14.9753  15.0174  15.1199  15.1577  15.2199
    15.3080  15.4572  15.4834  15.5037  15.5869  15.7362  15.7464  15.7859
    15.8344  15.8523  15.9251  15.9521  15.9629  16.0027  16.0122  16.0168
    16.0777  16.2131  16.3736  16.3777  16.3989  16.4170  16.4557  16.4710
    16.5130  16.5246  16.5258  16.6563  16.6853  16.6885  16.7666  16.8108
    16.8188  16.8940  16.9321  16.9647  16.9882  16.9952  17.0959  17.1016
    17.1330  17.2041  17.2478  17.2886  17.3076  17.4261  17.5648  17.5939
    17.7082  17.7443  17.7780  17.7803  17.8189  17.8401  17.9025  17.9199
    17.9675  17.9699  18.0886  18.1189  18.1586  18.2121  18.2328  18.2534
    18.3157  18.3688  18.3969  18.4491  18.4629  18.5179  18.6930  18.7057
    18.7982  18.8774  18.9112  18.9643  19.0159  19.1097  19.2130  19.2476
    19.2651  19.3407  19.4290  19.4406  19.4679  19.5421  19.6205  19.7216
    19.7497  19.7893  19.8636  19.8839  19.8903  19.9430  19.9986  20.0375
    20.1449  20.1505  20.2337  20.2483  20.3540  20.3618  20.3905  20.4145
    20.6144  20.7045  20.7252  20.7561  20.8234  20.8983  20.9047  20.9693
    20.9927  21.0055  21.0092  21.0280  21.1339  21.1537  21.1568  21.2367
    21.3048  21.3113  21.3124  21.3829  21.4173  21.4543  21.5197  21.6394
    21.6897  21.6992  21.7096  21.7506  21.7871  21.8015  21.8112  21.8678
    21.9010  21.9210  22.0387  22.0412  22.0634  22.1001  22.1318  22.1790
    22.2843  22.2925  22.2959  22.4352  22.4444  22.4855  22.5254  22.5949
    22.5996  22.6216  22.6259  22.7319  22.7582  22.8399  22.9055  22.9252
    22.9888  23.0040  23.0389  23.0403  23.1021  23.1440  23.1824  23.2085
    23.2852  23.3018  23.3401  23.3596  23.3925  23.4102  23.5081  23.5740
    23.7322  23.7964  23.7990  23.9012  23.9214  23.9337  24.0349  24.0821
    24.1045  24.1432  24.2378  24.2764  24.2824  24.3406  24.4166  24.4849
    24.4934  24.5602  24.6582  24.6885  24.7253  24.7721  24.8052  24.8639
    24.9186  25.1713  25.1877  25.2227  25.2539  25.2968  25.4212  25.4365
    25.4753  25.5412  25.5675  25.6207  25.6239  25.6363  25.7184  25.7689
    25.8203  25.8723  25.9212  25.9822  26.0305  26.0387  26.1408  26.1612
    26.2032  26.3293  26.3447  26.4213  26.4826  26.5193  26.5270  26.5350
    26.6037  26.6121  26.6271  26.6813

          k = 0.0000 0.0000 0.0282 ( 35946 PWs)   bands (ev):

   -29.4362 -29.4359 -27.9635 -27.9631 -21.2164 -21.0891 -20.7594 -20.2695
   -19.6290 -18.8344 -17.9415 -17.0373 -16.9189 -16.7911 -16.5780 -16.1489
   -16.0844 -15.5715 -15.4473 -14.4970 -14.4441 -14.0769 -14.0086 -13.7671
   -13.7174 -13.6484 -12.9427 -12.2865 -12.2726 -11.9961 -11.8424 -11.8408
   -11.2119 -11.1543 -11.0020 -10.4847 -10.3344 -10.1662 -10.1380 -10.1375
    -9.6606  -9.3758  -9.3476  -9.2031  -8.9013  -8.6950  -8.5315  -8.4793
    -8.4229  -7.9851  -7.9848  -7.9422  -7.8063  -7.4344  -7.3096  -7.0743
    -6.7556  -6.4617  -6.2170  -6.1502  -5.7833  -5.5223  -5.3312  -5.2959
    -5.2721  -5.1919  -4.5547  -4.3601  -4.2695  -3.9574  -3.4265  -3.3403
    -2.8634  -2.7109  -0.7638  -0.6971  -0.2733  -0.0466   0.0851   0.3294
     0.4871   1.0567   1.3986   1.5240   1.7537   2.1166   2.3211   2.4395
     3.0290   3.0345   3.0480   3.2079   3.4318   3.4596   3.5407   3.6696
     3.8568   4.0586   4.1327   4.2761   4.3512   4.4235   4.5646   4.7598
     4.7621   4.8859   5.0979   5.1028   5.4365   5.7415   5.9186   5.9283
     5.9417   5.9530   5.9909   6.1637   6.2999   6.3972   6.6031   6.6812
     6.7131   6.8008   6.8437   7.0182   7.3357   7.3652   7.3830   7.4147
     7.5573   7.5906   7.6747   7.6992   7.8108   7.8589   7.9339   8.1231
     8.2495   8.2831   8.3678   8.3743   8.4954   8.5815   8.6601   8.7004
     8.7342   8.7648   8.9380   8.9485   8.9567   8.9623   9.0229   9.0464
     9.0733   9.0782   9.1333   9.1403   9.1550   9.2631   9.3362   9.3721
     9.3924   9.5909   9.6238   9.6506   9.7450   9.8239   9.9654  10.0485
    10.0647  10.0707  10.0981  10.1295  10.1680  10.2397  10.3448  10.3456
    10.3738  10.4316  10.4487  10.5300  10.7021  10.7708  10.7915  10.8086
    10.9220  11.0044  11.0343  11.0398  11.0619  11.1421  11.2627  11.3066
    11.3357  11.4070  11.4156  11.4592  11.4788  11.4915  11.5521  11.5717
    11.5907  11.6423  11.6621  11.6789  11.7089  11.7314  11.8283  11.8311
    11.9000  11.9064  11.9080  11.9456  12.0311  12.0629  12.1306  12.3030
    12.3122  12.3739  12.4911  12.5950  12.6051  12.6941  12.7673  12.7994
    12.8563  12.9840  13.0224  13.0331  13.1879  13.2187  13.5715  13.6573
    13.7428  13.7756  13.8065  13.8657  13.8659  13.9506  13.9687  13.9981
    14.0531  14.0531  14.1305  14.2077  14.2120  14.2804  14.3307  14.3823
    14.4034  14.4145  14.4403  14.4551  14.4942  14.6926  14.7308  14.7907
    14.8526  14.8916  14.9891  14.9934  15.0436  15.0582  15.2303  15.2383
    15.3081  15.3759  15.4255  15.4400  15.6527  15.6616  15.7824  15.8569
    15.8764  15.8929  15.9989  16.0065  16.0641  16.0677  16.0774  16.1238
    16.2008  16.2928  16.3263  16.3511  16.3737  16.3897  16.4248  16.4277
    16.4518  16.4545  16.4981  16.6122  16.6208  16.6255  16.6724  16.7777
    16.8241  16.8523  16.8859  16.9458  16.9488  16.9947  17.0241  17.0589
    17.1112  17.1497  17.2247  17.3278  17.3509  17.5284  17.6284  17.6295
    17.7321  17.7968  17.8081  17.8546  17.8848  17.9005  17.9351  17.9538
    18.0280  18.0602  18.0667  18.1017  18.1029  18.1755  18.2359  18.2835
    18.2857  18.3896  18.4704  18.5342  18.5836  18.5913  18.6672  18.7884
    18.8958  18.9497  19.0113  19.1101  19.1103  19.1180  19.1505  19.2744
    19.4347  19.4452  19.4473  19.4854  19.5902  19.5953  19.5966  19.7127
    19.7282  19.7670  19.9434  19.9613  20.0075  20.0379  20.1245  20.1617
    20.1893  20.2703  20.3163  20.3619  20.4054  20.4663  20.5366  20.5760
    20.6970  20.7733  20.7760  20.8135  20.8251  20.9137  20.9279  20.9453
    20.9579  20.9926  21.0206  21.0588  21.1066  21.1727  21.2239  21.2873
    21.3150  21.3354  21.4001  21.4031  21.4302  21.4346  21.5324  21.6149
    21.6207  21.6751  21.7202  21.7420  21.7827  21.8386  21.8404  21.8466
    21.8895  21.8999  22.0373  22.0448  22.1345  22.1760  22.1980  22.2301
    22.2354  22.3321  22.3843  22.4528  22.4756  22.5245  22.5603  22.5761
    22.6364  22.6659  22.7146  22.7640  22.7836  22.8184  22.8278  22.8948
    23.0318  23.0830  23.0838  23.1493  23.1711  23.1811  23.2327  23.2886
    23.3100  23.3180  23.3710  23.3785  23.4061  23.4211  23.5254  23.6547
    23.7027  23.7216  23.7414  23.7906  23.8574  23.8714  24.0177  24.0732
    24.0849  24.0878  24.1712  24.2602  24.3574  24.3802  24.4363  24.4487
    24.5539  24.6243  24.7033  24.7099  24.7337  24.8548  24.8815  24.9699
    25.0403  25.1008  25.1295  25.1493  25.2441  25.2945  25.3417  25.3532
    25.3787  25.4438  25.4818  25.5825  25.5993  25.6334  25.6546  25.6852
    25.8109  25.8977  25.9596  26.1004  26.1116  26.1632  26.2337  26.2703
    26.3237  26.3552  26.4110  26.4346  26.4984  26.5110  26.5192  26.5923
    26.6077  26.6314  26.6458  26.6789

          k = 0.0000 0.0000 0.0329 ( 35962 PWs)   bands (ev):

   -29.4204 -29.4201 -27.9857 -27.9854 -21.1858 -21.0587 -20.7292 -20.2397
   -19.5996 -18.8058 -17.9151 -17.0975 -17.0916 -16.8929 -16.7431 -16.3066
   -16.1051 -15.6973 -15.5009 -14.4397 -14.3814 -13.9561 -13.8856 -13.7756
   -13.5400 -13.4949 -13.0493 -12.2879 -12.1858 -11.9419 -11.8080 -11.7332
   -11.2898 -11.0624 -10.9123 -10.5495 -10.2747 -10.1150 -10.1145 -10.0849
    -9.7221  -9.3344  -9.2817  -9.1672  -8.8671  -8.7090  -8.4996  -8.4801
    -8.3901  -8.0125  -8.0121  -7.8896  -7.7743  -7.5214  -7.2925  -7.0436
    -6.7805  -6.5464  -6.2012  -6.1883  -5.8679  -5.5669  -5.4199  -5.3270
    -5.2482  -5.2240  -4.7032  -4.5042  -4.2636  -4.1120  -3.5873  -3.3621
    -3.0250  -2.8155  -0.6730  -0.5334  -0.0925  -0.0462   0.2685   0.5204
     0.6812   1.0091   1.4402   1.5648   1.7938   2.1560   2.2540   2.4808
     3.0642   3.0725   3.0897   3.2493   3.4690   3.5010   3.5732   3.5930
     3.8971   4.1003   4.1740   4.3155   4.3922   4.4640   4.6026   4.7741
     4.8025   4.9198   5.0490   5.1196   5.4770   5.7477   5.9128   5.9617
     5.9638   5.9727   5.9991   6.1835   6.3129   6.3238   6.5961   6.6186
     6.7462   6.8294   6.8938   6.9356   7.2217   7.2692   7.4083   7.4297
     7.4700   7.4707   7.4776   7.6799   7.7122   7.7830   7.8982   7.9726
     8.1552   8.1990   8.3445   8.3972   8.4142   8.4837   8.6071   8.6170
     8.6442   8.7849   8.7924   8.8025   8.8116   8.9667   8.9672   8.9769
     8.9885   9.0205   9.0395   9.0782   9.0958   9.1185   9.1696   9.3011
     9.4094   9.5731   9.6128   9.6277   9.6684   9.7006   9.9103  10.0040
    10.0545  10.0644  10.0808  10.1067  10.1230  10.1284  10.1393  10.1671
    10.2128  10.2853  10.3589  10.4786  10.5273  10.6439  10.6858  10.8145
    10.8312  11.0165  11.0668  11.1029  11.1718  11.1941  11.2178  11.3187
    11.3266  11.3312  11.3737  11.4478  11.4944  11.5560  11.5894  11.5951
    11.6011  11.7043  11.7068  11.7089  11.7592  11.7827  11.8344  11.8724
    11.8765  11.9242  11.9255  12.0772  12.0832  12.0913  12.2081  12.3230
    12.3830  12.3896  12.4278  12.4297  12.5202  12.7118  12.7293  12.8547
    12.9704  12.9876  13.0442  13.1442  13.2484  13.4148  13.5017  13.5252
    13.6888  13.7564  13.9453  13.9830  14.0225  14.0393  14.0548  14.0791
    14.1223  14.2064  14.2074  14.2077  14.2125  14.2687  14.3725  14.4384
    14.4579  14.4938  14.5388  14.5745  14.6762  14.6778  14.7392  14.8097
    14.8148  14.9050  14.9400  15.0098  15.2140  15.2407  15.2627  15.3206
    15.3213  15.3632  15.5036  15.5198  15.5888  15.6302  15.8176  15.8890
    15.9238  15.9985  16.0138  16.0225  16.0353  16.0435  16.1118  16.1269
    16.1767  16.2193  16.2206  16.2616  16.3109  16.3866  16.4624  16.4976
    16.5038  16.5117  16.5574  16.5906  16.6197  16.6676  16.6786  16.6965
    16.7622  16.8901  16.9061  16.9569  16.9619  17.0057  17.0189  17.0437
    17.1312  17.1900  17.2575  17.3652  17.3877  17.5536  17.6212  17.6698
    17.7199  17.7978  17.8344  17.8413  17.8892  17.8902  17.9388  17.9592
    18.0252  18.0452  18.0955  18.1275  18.2228  18.2314  18.2531  18.2833
    18.3616  18.3848  18.4702  18.5328  18.7323  18.7599  18.7891  18.8776
    18.9508  19.0042  19.0369  19.0698  19.1368  19.2923  19.3136  19.3368
    19.4277  19.4951  19.5758  19.5766  19.5873  19.6612  19.6933  19.7279
    19.8732  19.8837  19.9604  20.0269  20.0507  20.0894  20.0932  20.1612
    20.2610  20.3076  20.3526  20.5235  20.6204  20.6734  20.6928  20.7063
    20.7163  20.8270  20.8354  20.8885  20.9438  20.9468  20.9571  20.9665
    20.9788  21.0340  21.0608  21.0776  21.1486  21.1543  21.2338  21.2747
    21.3074  21.4284  21.4309  21.4503  21.4817  21.4994  21.5356  21.5604
    21.5683  21.6534  21.7014  21.7019  21.7587  21.8347  21.8552  21.8821
    21.9175  21.9833  21.9914  21.9972  22.1771  22.1844  22.2219  22.2270
    22.2852  22.3677  22.4373  22.4435  22.4946  22.5293  22.5679  22.6340
    22.6541  22.6829  22.6918  22.7064  22.7128  22.9001  22.9620  23.0496
    23.0541  23.1346  23.1570  23.1796  23.1877  23.2185  23.2983  23.3442
    23.3446  23.3743  23.4194  23.4264  23.4352  23.5413  23.5888  23.6431
    23.6666  23.6934  23.6936  23.8113  23.8197  23.8379  23.9683  24.0187
    24.0721  24.1369  24.1801  24.2186  24.3465  24.3500  24.4792  24.4821
    24.5779  24.5923  24.6445  24.8342  24.8487  24.8557  24.9021  24.9505
    24.9692  24.9943  25.0946  25.1502  25.1510  25.1860  25.2654  25.3210
    25.4219  25.4678  25.5582  25.6034  25.6136  25.6165  25.7465  25.7740
    25.7854  25.8587  26.0369  26.0405  26.1197  26.1337  26.3179  26.3918
    26.4044  26.4321  26.4489  26.4562  26.5561  26.5791  26.5926  26.6170
    26.6255  26.7275  26.7297  26.7530

          k = 0.0000 0.0000 0.0376 ( 35962 PWs)   bands (ev):

   -29.4022 -29.4019 -28.0110 -28.0106 -21.1504 -21.0237 -20.6944 -20.2053
   -19.5658 -18.7729 -17.8855 -17.2753 -17.2247 -16.9156 -16.9105 -16.4613
   -16.1459 -15.8003 -15.5708 -14.4452 -14.2823 -13.9788 -13.8201 -13.5718
   -13.3672 -13.3170 -13.1446 -12.3435 -12.0921 -11.8567 -11.7430 -11.6232
   -11.3679 -10.9696 -10.8149 -10.6157 -10.2152 -10.0887 -10.0883  -9.9939
    -9.7896  -9.2909  -9.2033  -9.1258  -8.8276  -8.7686  -8.4639  -8.4352
    -8.3524  -8.0436  -8.0427  -7.8421  -7.7375  -7.6092  -7.2841  -7.0082
    -6.8172  -6.6360  -6.2622  -6.1553  -5.9617  -5.6185  -5.5343  -5.3505
    -5.2613  -5.2213  -4.8606  -4.6619  -4.2735  -4.2525  -3.7512  -3.3948
    -3.1782  -2.9251  -0.5783  -0.3767  -0.0410   0.0941   0.4670   0.7251
     0.8912   0.9591   1.4882   1.6119   1.8400   2.1798   2.2013   2.5284
     3.1042   3.1158   3.1377   3.2968   3.5077   3.5119   3.5488   3.6104
     3.9441   4.1483   4.2216   4.3605   4.4393   4.5107   4.6461   4.7632
     4.8488   4.9583   5.0176   5.1427   5.5235   5.7351   5.9101   5.9240
     6.0100   6.0231   6.0516   6.2171   6.2185   6.3426   6.5610   6.5998
     6.7470   6.7743   6.8911   7.0254   7.0338   7.0841   7.2451   7.3569
     7.3765   7.4722   7.4828   7.5910   7.6642   7.7632   7.7890   7.9309
     7.9695   8.2207   8.2512   8.2856   8.3409   8.4497   8.4818   8.4906
     8.5544   8.6200   8.6730   8.7087   8.7916   8.8243   8.8467   8.8691
     8.9226   8.9368   9.0030   9.0232   9.0744   9.1083   9.1269   9.3460
     9.4534   9.4639   9.4813   9.5692   9.6031   9.6702   9.7063   9.8480
     9.8935   9.9040  10.0298  10.0519  10.0992  10.1112  10.1315  10.1590
    10.1926  10.2171  10.2310  10.3231  10.3422  10.5660  10.6444  10.8622
    10.8826  10.9491  11.0674  11.1054  11.1128  11.1430  11.2033  11.2066
    11.2360  11.3076  11.3665  11.3883  11.4723  11.5661  11.5809  11.6052
    11.6423  11.7304  11.7587  11.7982  11.8257  11.8794  11.9111  11.9215
    11.9523  12.0711  12.0721  12.1077  12.1248  12.1803  12.2308  12.2449
    12.3116  12.3382  12.3507  12.4490  12.6500  12.7046  12.7641  12.8737
    12.8968  13.0384  13.0960  13.2651  13.3038  13.4084  13.4952  13.5165
    13.5870  13.7701  13.8636  13.9548  14.0168  14.0429  14.1285  14.1896
    14.2139  14.2298  14.2777  14.3500  14.3781  14.4030  14.4225  14.4823
    14.4828  14.5401  14.6406  14.6435  14.6713  14.7340  14.7870  14.8574
    14.9035  14.9528  15.0003  15.0370  15.2209  15.2500  15.3244  15.3246
    15.4502  15.5172  15.5987  15.6808  15.6978  15.8150  15.8205  15.9071
    15.9150  15.9416  15.9565  15.9568  15.9618  16.0130  16.0566  16.0697
    16.0706  16.1836  16.1968  16.2467  16.3194  16.4215  16.4424  16.4913
    16.4976  16.5456  16.5892  16.5944  16.6538  16.7347  16.7668  16.7809
    16.7871  16.9458  16.9760  16.9859  17.0004  17.0746  17.1388  17.1680
    17.1811  17.2159  17.2391  17.3733  17.3789  17.4803  17.6535  17.6628
    17.6925  17.7953  17.8021  17.8553  17.9360  17.9421  17.9499  17.9887
    18.0549  18.0639  18.0991  18.1008  18.2473  18.2832  18.3092  18.3224
    18.3433  18.4016  18.5712  18.6473  18.7605  18.8229  18.8669  18.9023
    18.9839  19.0435  19.0614  19.2342  19.3191  19.3763  19.4255  19.4707
    19.4777  19.5809  19.5894  19.5919  19.6920  19.7838  19.8165  19.8207
    19.8642  20.0048  20.0125  20.0456  20.1020  20.1453  20.2276  20.2315
    20.3001  20.3164  20.3629  20.5306  20.6103  20.6463  20.7025  20.7906
    20.8901  20.9265  20.9474  20.9927  21.0066  21.0408  21.0693  21.0764
    21.1248  21.1302  21.1499  21.1527  21.2379  21.2393  21.2406  21.2454
    21.3626  21.4070  21.4132  21.4280  21.5304  21.5697  21.5831  21.6036
    21.6169  21.6404  21.6494  21.6952  21.7814  21.8054  21.8396  21.8428
    21.9171  21.9603  22.0387  22.1181  22.1414  22.2238  22.2450  22.2519
    22.2531  22.2643  22.4494  22.4668  22.4835  22.5489  22.6109  22.6423
    22.6465  22.6841  22.7269  22.7513  22.8405  22.9006  23.0219  23.0235
    23.0309  23.0767  23.1579  23.2225  23.3009  23.3185  23.3251  23.3257
    23.3659  23.4404  23.4729  23.4799  23.4884  23.5266  23.6294  23.6339
    23.6959  23.8530  23.8537  23.8701  23.8783  23.8814  23.9207  24.0551
    24.0700  24.1783  24.2558  24.3303  24.3503  24.4040  24.4754  24.4878
    24.4887  24.5066  24.5537  24.6410  24.7781  24.8025  24.8225  24.8705
    24.9170  24.9872  25.0827  25.1174  25.1202  25.2314  25.2910  25.4176
    25.4910  25.5478  25.5950  25.6527  25.6962  25.7084  25.7875  25.8157
    25.8405  25.9128  26.0441  26.0555  26.1225  26.1376  26.3093  26.3765
    26.3889  26.4540  26.5106  26.5122  26.5509  26.6328  26.6473  26.6495
    26.7058  26.7668  26.7814  26.8089

          k = 0.0000 0.0000 0.0423 ( 35954 PWs)   bands (ev):

   -29.3819 -29.3815 -28.0390 -28.0387 -21.1104 -20.9840 -20.6551 -20.1664
   -19.5275 -18.7358 -17.8539 -17.4503 -17.3854 -17.0773 -16.9170 -16.6044
   -16.2228 -15.8658 -15.6553 -14.4469 -14.2275 -14.0457 -13.6883 -13.3555
   -13.3164 -13.1294 -13.1058 -12.4277 -11.9972 -11.7569 -11.6572 -11.5190
   -11.4349 -10.8901 -10.7103 -10.6677 -10.1626 -10.0593 -10.0589  -9.8962
    -9.8520  -9.2464  -9.1179  -9.0790  -8.8460  -8.7830  -8.4247  -8.3723
    -8.3099  -8.0780  -8.0766  -7.8118  -7.6958  -7.6866  -7.2858  -6.9682
    -6.8652  -6.7297  -6.3325  -6.1182  -6.0644  -5.6774  -5.6622  -5.3777
    -5.3029  -5.1926  -5.0235  -4.8262  -4.4394  -4.2428  -3.9140  -3.4579
    -3.3034  -3.0380  -0.4810  -0.2418  -0.0136   0.2826   0.6750   0.8951
     0.9552   1.1143   1.5426   1.6651   1.8923   2.0997   2.2523   2.5820
     3.1490   3.1642   3.1922   3.3486   3.4169   3.5605   3.6029   3.6524
     3.9974   4.2023   4.2755   4.4112   4.4925   4.5636   4.6950   4.7122
     4.9007   5.0012   5.0246   5.1658   5.5758   5.7033   5.8836   5.9294
     6.0628   6.0794   6.1093   6.1161   6.2599   6.3476   6.5149   6.6085
     6.6437   6.7622   6.7718   6.9203   6.9463   7.0445   7.1711   7.1971
     7.2442   7.4745   7.5309   7.5418   7.5908   7.6359   7.7964   7.8189
     7.9895   8.0172   8.1604   8.2053   8.2392   8.2839   8.3287   8.4309
     8.4675   8.5273   8.5460   8.5630   8.6374   8.7453   8.7801   8.7838
     8.8041   8.9002   8.9312   9.0712   9.0913   9.1425   9.1803   9.2838
     9.3796   9.3924   9.3975   9.4222   9.5055   9.5590   9.6104   9.6807
     9.7149   9.7242   9.9445   9.9485  10.0536  10.1011  10.1172  10.1601
    10.1923  10.2011  10.2395  10.2403  10.2728  10.5139  10.5595  10.7161
    10.9129  10.9406  11.0108  11.0252  11.0998  11.1204  11.1359  11.1617
    11.2284  11.2397  11.3392  11.4078  11.5001  11.5211  11.5444  11.5450
    11.6501  11.7597  11.7882  11.8266  11.8757  11.9161  11.9482  11.9738
    12.0436  12.1247  12.1352  12.1682  12.2065  12.2299  12.3002  12.3079
    12.3447  12.3575  12.4334  12.4971  12.7021  12.7218  12.7984  12.8255
    12.9082  13.0725  13.1502  13.1522  13.2141  13.3214  13.3778  13.4977
    13.7797  13.8286  13.9144  13.9159  13.9302  14.0310  14.1454  14.1766
    14.2042  14.2502  14.2944  14.4228  14.4432  14.5169  14.5533  14.5632
    14.6430  14.6454  14.6934  14.7266  14.7381  14.8083  14.8106  14.8258
    14.8890  14.9548  15.1796  15.2047  15.2136  15.3252  15.3254  15.3442
    15.4937  15.6941  15.6961  15.7131  15.7514  15.7822  15.7827  15.8499
    15.9193  15.9308  15.9952  16.0276  16.0402  16.0517  16.0577  16.0996
    16.1106  16.1436  16.2111  16.2651  16.3137  16.3378  16.4361  16.5383
    16.5401  16.5728  16.6154  16.6284  16.6339  16.6775  16.8121  16.8190
    16.9410  17.0334  17.0678  17.1012  17.1329  17.1502  17.1771  17.2029
    17.2173  17.2263  17.2989  17.4031  17.4697  17.5420  17.6159  17.6181
    17.6941  17.7649  17.7920  17.9028  17.9666  17.9736  17.9751  18.0261
    18.0678  18.0940  18.1535  18.1556  18.2731  18.3319  18.3509  18.3656
    18.4536  18.4888  18.5160  18.6332  18.7052  18.8387  18.9902  19.0125
    19.0216  19.0759  19.1858  19.3505  19.4619  19.4625  19.5345  19.5561
    19.5763  19.6199  19.6343  19.6398  19.7871  19.8006  19.8072  19.9873
    20.0756  20.0988  20.1175  20.1284  20.1771  20.2058  20.2377  20.2499
    20.3313  20.4092  20.4702  20.5399  20.5487  20.6383  20.7512  20.8711
    20.9293  20.9521  20.9754  20.9887  20.9947  21.0577  21.0645  21.0661
    21.0855  21.2183  21.2896  21.3606  21.3631  21.3718  21.3896  21.4221
    21.4338  21.4511  21.4974  21.5372  21.5476  21.6174  21.6350  21.6491
    21.6673  21.6741  21.6822  21.7692  21.7948  21.8130  21.8397  21.8562
    21.8626  21.9792  21.9966  22.1102  22.1508  22.2214  22.2345  22.2588
    22.2952  22.3432  22.4251  22.4959  22.5316  22.5401  22.5711  22.6793
    22.7281  22.7291  22.7572  22.7963  22.8249  22.8307  22.9111  22.9736
    23.0281  23.0857  23.1236  23.2119  23.2475  23.2881  23.3042  23.3462
    23.3950  23.4052  23.4946  23.5332  23.6271  23.6466  23.7491  23.7997
    23.8739  23.8800  23.9845  24.0062  24.0079  24.0194  24.0761  24.1618
    24.1691  24.2034  24.2429  24.2500  24.2959  24.3745  24.4069  24.4567
    24.4776  24.5318  24.5374  24.6701  24.7408  24.7431  24.7500  24.7878
    24.8880  24.9270  24.9416  25.0585  25.1098  25.2825  25.4420  25.5193
    25.5421  25.5582  25.6352  25.6475  25.6768  25.7027  25.8396  25.9738
    26.0294  26.0484  26.1005  26.1295  26.1506  26.1872  26.3162  26.3201
    26.3859  26.4368  26.4699  26.4743  26.5591  26.5905  26.5919  26.6351
    26.6831  26.7098  26.7617  26.7744

          k = 0.0000 0.0000 0.0469 ( 35992 PWs)   bands (ev):

   -29.3593 -29.3590 -28.0697 -28.0694 -21.0657 -20.9397 -20.6111 -20.1229
   -19.4848 -18.6946 -17.8250 -17.6180 -17.5512 -17.2413 -16.9447 -16.7095
   -16.3338 -15.8971 -15.7518 -14.4412 -14.2739 -14.0156 -13.5907 -13.3748
   -13.1398 -12.9333 -12.9206 -12.5242 -11.9147 -11.6577 -11.5526 -11.5111
   -11.3883 -10.8715 -10.6564 -10.5992 -10.1361 -10.0270 -10.0266  -9.8877
    -9.7941  -9.2037  -9.0293  -9.0267  -8.9260  -8.7331  -8.3822  -8.3049
    -8.2634  -8.1155  -8.1127  -7.8445  -7.7087  -7.6493  -7.2983  -6.9238
    -6.9235  -6.8271  -6.4119  -6.1756  -6.0769  -5.8015  -5.7437  -5.4095
    -5.3479  -5.2064  -5.1459  -4.9946  -4.6072  -4.2460  -4.0639  -3.5761
    -3.3751  -3.1529  -0.3819  -0.1616   0.0697   0.4652   0.8590   0.8898
     1.1739   1.3484   1.6034   1.7244   1.9505   2.0153   2.3090   2.6416
     3.1980   3.2175   3.2530   3.3110   3.4153   3.6147   3.6633   3.6990
     4.0570   4.2621   4.3357   4.4671   4.5517   4.6225   4.6302   4.7489
     4.9579   5.0480   5.0621   5.1870   5.6333   5.6610   5.8449   5.9623
     6.0034   6.1211   6.1416   6.1756   6.3082   6.3159   6.4822   6.5048
     6.5900   6.6304   6.6572   6.7639   6.9387   6.9954   7.0427   7.1197
     7.2635   7.3000   7.4607   7.5366   7.5969   7.6060   7.7212   7.8138
     7.9115   7.9628   7.9960   8.0193   8.1015   8.1061   8.2343   8.3125
     8.3220   8.3467   8.4749   8.5373   8.5761   8.6130   8.6462   8.7040
     8.7910   8.8863   8.9508   9.0583   9.0754   9.1218   9.1721   9.1817
     9.2538   9.2611   9.2837   9.3810   9.3883   9.4555   9.4739   9.5377
     9.5622   9.7610   9.7752   9.8811   9.9158   9.9506  10.1537  10.1980
    10.2283  10.2364  10.2418  10.2932  10.3170  10.4381  10.4598  10.5505
    10.7652  10.8247  10.9584  10.9772  11.0329  11.0922  11.1632  11.1998
    11.2798  11.2800  11.2938  11.4239  11.4591  11.4737  11.4940  11.5523
    11.6783  11.6978  11.7119  11.7446  11.8958  11.9503  12.0038  12.0599
    12.0851  12.1572  12.1821  12.2176  12.2910  12.2946  12.2971  12.4183
    12.4218  12.5263  12.5619  12.6142  12.6801  12.7262  12.8017  12.8257
    12.9338  12.9843  13.1099  13.1390  13.2142  13.2547  13.2795  13.3249
    13.7817  13.8372  13.8634  13.9281  13.9550  13.9753  14.1528  14.2589
    14.2593  14.2915  14.3849  14.4612  14.5460  14.5668  14.6314  14.6346
    14.6384  14.6704  14.7048  14.7340  14.7666  14.8246  14.8675  14.8757
    15.0821  15.1675  15.1840  15.2171  15.2737  15.3083  15.4464  15.4596
    15.5050  15.5806  15.6361  15.6374  15.6733  15.7386  15.7641  15.9150
    15.9191  16.0163  16.0638  16.0984  16.1501  16.1527  16.1648  16.1920
    16.2385  16.2509  16.2917  16.3032  16.3249  16.4558  16.4639  16.5261
    16.5895  16.6053  16.6083  16.6408  16.6532  16.7397  16.8361  16.9084
    16.9480  16.9994  17.1241  17.1556  17.1643  17.2038  17.2115  17.2559
    17.2939  17.3149  17.3942  17.4325  17.4957  17.6520  17.6705  17.7790
    17.7799  17.8020  17.8405  17.8609  17.9661  18.0001  18.0157  18.0349
    18.0786  18.1299  18.1652  18.2367  18.2829  18.3669  18.4368  18.4709
    18.5809  18.5862  18.5891  18.6327  18.7199  18.8399  18.9994  19.0415
    19.0848  19.2192  19.2750  19.3365  19.4345  19.4495  19.5335  19.5950
    19.6013  19.6426  19.8211  19.8953  19.9135  19.9293  19.9832  20.0262
    20.0847  20.1007  20.1272  20.1921  20.1929  20.3485  20.3548  20.4194
    20.4542  20.5317  20.5529  20.6051  20.6104  20.7103  20.7743  20.8103
    20.8898  20.9325  20.9459  20.9533  20.9975  21.0078  21.0104  21.0904
    21.1398  21.2440  21.2448  21.3751  21.4344  21.4671  21.4757  21.4810
    21.5045  21.5711  21.5936  21.6700  21.6803  21.6892  21.7267  21.7484
    21.7688  21.7941  21.8627  21.8701  21.8778  21.8834  21.8995  21.9124
    21.9382  22.0008  22.0458  22.0719  22.1210  22.1797  22.2238  22.3122
    22.3453  22.4565  22.4748  22.4817  22.5042  22.5060  22.5607  22.5799
    22.6114  22.7846  22.8296  22.8526  22.9115  22.9197  22.9344  22.9392
    22.9716  22.9838  23.0429  23.0897  23.1697  23.1795  23.2635  23.3820
    23.4648  23.5324  23.5523  23.5853  23.7257  23.8113  23.8440  23.8466
    23.9115  23.9903  24.0144  24.1171  24.1250  24.1740  24.1776  24.1890
    24.2138  24.2907  24.2994  24.3487  24.3608  24.3855  24.4126  24.4130
    24.4790  24.6058  24.6067  24.6412  24.6687  24.6715  24.7263  24.7839
    24.9282  24.9699  25.0194  25.1273  25.1570  25.2888  25.3059  25.3120
    25.5078  25.6421  25.6597  25.6715  25.7852  25.8312  25.9121  26.0019
    26.0577  26.1469  26.1580  26.1724  26.1772  26.2279  26.2932  26.3501
    26.3829  26.3894  26.4074  26.4578  26.5212  26.5999  26.6345  26.6620
    26.7277  26.7330  26.7779  26.7821

          k = 0.0000 0.0000 0.0516 ( 36020 PWs)   bands (ev):

   -29.3347 -29.3344 -28.1027 -28.1024 -21.0163 -20.8908 -20.5625 -20.0749
   -19.4377 -18.6495 -17.8450 -17.7346 -17.7167 -17.3988 -17.0385 -16.7413
   -16.4635 -15.9108 -15.8573 -14.4282 -14.3639 -13.9416 -13.6072 -13.3379
   -12.9293 -12.7316 -12.7149 -12.6214 -11.8748 -11.5629 -11.5185 -11.4342
   -11.2803 -10.9224 -10.5707 -10.4827 -10.1613  -9.9919  -9.9916  -9.8691
    -9.6906  -9.1737  -8.9920  -8.9689  -8.9404  -8.6782  -8.3369  -8.2389
    -8.2169  -8.1558  -8.1464  -7.9285  -7.6874  -7.5978  -7.3213  -6.9917
    -6.9277  -6.8743  -6.5006  -6.2948  -6.0316  -5.9504  -5.8175  -5.4453
    -5.3954  -5.3697  -5.1652  -5.1208  -4.7741  -4.3151  -4.1472  -3.7229
    -3.4198  -3.2688  -0.2819  -0.1314   0.2047   0.6104   0.8535   1.1088
     1.4082   1.5914   1.6705   1.7899   1.9286   2.0146   2.3713   2.7071
     3.2071   3.2511   3.2750   3.3202   3.4809   3.6747   3.7299   3.7503
     4.1228   4.3255   4.4021   4.5279   4.5329   4.6166   4.6875   4.8072
     5.0194   5.0979   5.1173   5.2038   5.6149   5.6937   5.8130   5.8858
     6.0006   6.1679   6.2049   6.2096   6.2467   6.3532   6.3693   6.4280
     6.4632   6.5380   6.6233   6.6858   6.7672   6.9855   7.0237   7.0298
     7.1578   7.1772   7.3703   7.4920   7.6318   7.6656   7.6709   7.7526
     7.7581   7.8438   7.8439   7.9035   7.9515   8.0240   8.1031   8.1070
     8.1495   8.2931   8.4005   8.4330   8.4901   8.5497   8.5967   8.6553
     8.8079   8.8380   8.8524   8.9403   8.9801   9.0311   9.0859   9.1132
     9.1747   9.1942   9.1967   9.2760   9.2815   9.3349   9.3593   9.5197
     9.6095   9.6251   9.7257   9.8275   9.8387   9.8602  10.1481  10.1632
    10.2091  10.2707  10.3025  10.3068  10.3525  10.3957  10.3960  10.4993
    10.5850  10.6986  10.7847  10.9764  11.0392  11.0472  11.2101  11.2243
    11.2334  11.3111  11.3364  11.3680  11.4335  11.4466  11.4547  11.5807
    11.5917  11.6383  11.7015  11.7333  11.9418  11.9586  12.0645  12.0724
    12.1655  12.1726  12.2515  12.2916  12.2999  12.3073  12.3437  12.4047
    12.4703  12.6094  12.6325  12.6720  12.7466  12.7758  12.7960  12.8525
    12.8999  12.9922  13.0408  13.2028  13.2076  13.2096  13.2120  13.2813
    13.6631  13.6792  13.7813  13.8675  13.9258  13.9305  14.2812  14.3202
    14.3888  14.4004  14.4445  14.4814  14.4876  14.4944  14.5878  14.6707
    14.6866  14.7281  14.7940  14.8428  14.8688  14.9019  14.9127  14.9388
    15.1099  15.1801  15.2167  15.2573  15.3066  15.3637  15.4507  15.4718
    15.4760  15.5629  15.5897  15.6354  15.6430  15.7736  15.8224  15.9352
    15.9356  16.0477  16.0596  16.1443  16.1993  16.2189  16.2475  16.2642
    16.3337  16.3865  16.4109  16.4512  16.4865  16.5027  16.5246  16.5687
    16.6099  16.6541  16.7430  16.7515  16.7530  16.8549  16.8793  16.9277
    16.9713  17.0606  17.1316  17.1541  17.1803  17.1828  17.2296  17.2926
    17.3186  17.4240  17.4485  17.5229  17.5989  17.7546  17.7613  17.8075
    17.8238  17.8556  17.9880  18.0016  18.0049  18.0093  18.0457  18.0650
    18.1452  18.1753  18.2391  18.2769  18.3612  18.3694  18.4101  18.5630
    18.7213  18.7372  18.7413  18.7478  18.8552  18.9388  18.9721  19.0745
    19.1211  19.2462  19.2628  19.3057  19.3697  19.4644  19.4678  19.5931
    19.5941  19.7867  19.8760  19.8769  19.9959  20.0535  20.0771  20.0886
    20.1561  20.2406  20.2945  20.3033  20.3296  20.4928  20.5227  20.5342
    20.5612  20.5783  20.5936  20.6366  20.6666  20.7462  20.7562  20.8118
    20.8131  20.8194  20.8934  20.9838  21.0410  21.0509  21.0660  21.1936
    21.2237  21.2359  21.2843  21.3081  21.3353  21.4236  21.5055  21.5708
    21.5747  21.6112  21.6425  21.6657  21.7049  21.8398  21.8454  21.8574
    21.9063  21.9116  21.9290  21.9601  21.9695  22.0067  22.0254  22.0899
    22.1020  22.1150  22.1190  22.1356  22.1438  22.2240  22.2746  22.2791
    22.3790  22.3922  22.4240  22.4679  22.4801  22.5451  22.6127  22.6544
    22.6735  22.7348  22.7794  22.8500  22.8770  22.9494  22.9559  22.9674
    23.0348  23.0400  23.0539  23.0732  23.1205  23.1860  23.2314  23.4021
    23.5307  23.5396  23.6296  23.6335  23.6463  23.6802  23.7999  23.8838
    23.9611  23.9844  24.0430  24.1677  24.2458  24.2679  24.3135  24.3148
    24.3271  24.3819  24.3998  24.4291  24.4420  24.4532  24.4920  24.4979
    24.5642  24.5880  24.5963  24.7157  24.7189  24.7399  24.8110  24.8562
    25.0000  25.0595  25.0930  25.1487  25.1845  25.2717  25.3154  25.3891
    25.4623  25.6747  25.7003  25.7005  25.7760  25.7803  25.8614  25.9487
    25.9566  25.9990  26.0749  26.1648  26.2022  26.2741  26.3074  26.3877
    26.4277  26.4666  26.5108  26.5467  26.5786  26.6377  26.7033  26.7147
    26.7821  26.8321  26.8734  26.8925

          k = 0.0000 0.0000 0.0563 ( 36018 PWs)   bands (ev):

   -29.3080 -29.3077 -28.1380 -28.1376 -20.9622 -20.8372 -20.5094 -20.0225
   -19.3863 -18.6009 -17.9862 -17.8798 -17.7410 -17.5360 -17.1730 -16.7266
   -16.6012 -15.9690 -15.9191 -14.4551 -14.4100 -13.8633 -13.6965 -13.2329
   -12.7360 -12.7274 -12.5030 -12.5024 -11.8994 -11.4732 -11.4618 -11.3087
   -11.1693 -10.9919 -10.4576 -10.3628 -10.2254  -9.9543  -9.9540  -9.8071
    -9.5910  -9.1859  -9.0090  -8.9058  -8.8544  -8.6184  -8.2898  -8.2118
    -8.1983  -8.1778  -8.1364  -8.0216  -7.6642  -7.5415  -7.3542  -7.0677
    -7.0310  -6.8204  -6.5996  -6.4218  -6.1064  -5.9826  -5.8985  -5.5419
    -5.4847  -5.4445  -5.3365  -5.0959  -4.9307  -4.4587  -4.1553  -3.8758
    -3.4595  -3.3842  -0.1820  -0.1167   0.3571   0.6438   0.9611   1.3277
     1.6491   1.7438   1.8344   1.8509   1.8613   2.0844   2.4389   2.7783
     3.0979   3.3077   3.3365   3.3937   3.5539   3.7403   3.8026   3.8063
     4.1946   4.3675   4.4525   4.4747   4.5928   4.6869   4.7587   4.8690
     5.0836   5.1497   5.1840   5.2129   5.5692   5.7389   5.7644   5.8065
     5.9545   6.0639   6.2045   6.2494   6.2832   6.3047   6.3239   6.4021
     6.4268   6.4675   6.5415   6.6142   6.7343   6.8426   6.9064   6.9619
     7.1079   7.1368   7.2041   7.4691   7.5162   7.6073   7.6151   7.6896
     7.7209   7.7355   7.7551   7.7776   7.8238   7.8955   7.9438   8.0413
     8.1055   8.2178   8.2288   8.3226   8.3844   8.4807   8.6122   8.6449
     8.6978   8.7208   8.7241   8.8625   8.8742   8.9212   8.9798   8.9891
     9.0222   9.0749   9.0813   9.1788   9.2573   9.3523   9.4198   9.5078
     9.5758   9.5886   9.6940   9.7749   9.7782   9.8868   9.9593  10.0356
    10.1702  10.3108  10.3235  10.3654  10.3698  10.4098  10.4168  10.4544
    10.4719  10.6352  10.6759  10.9283  10.9999  11.0959  11.1227  11.1722
    11.2505  11.2574  11.2984  11.3377  11.3931  11.4164  11.4454  11.6139
    11.6497  11.7128  11.7167  11.7441  11.9323  11.9357  12.0206  12.1418
    12.1536  12.1583  12.2886  12.3140  12.3305  12.3373  12.3670  12.4699
    12.5094  12.5613  12.5757  12.6346  12.7059  12.7114  12.8731  12.9171
    12.9843  13.0517  13.1515  13.1613  13.1900  13.2171  13.2659  13.3483
    13.5150  13.5643  13.6383  13.7949  13.8922  13.9632  14.1790  14.2945
    14.3014  14.3552  14.4660  14.4850  14.4951  14.6254  14.6845  14.7025
    14.7524  14.7592  14.8327  14.9136  14.9386  14.9848  15.0202  15.0462
    15.1068  15.1504  15.1851  15.1961  15.2944  15.3633  15.4333  15.4410
    15.4694  15.4954  15.6057  15.7918  15.8346  15.8366  15.8536  15.9357
    15.9730  15.9832  16.1293  16.2161  16.2198  16.2944  16.3223  16.3286
    16.3443  16.3955  16.4207  16.4467  16.5259  16.6874  16.7214  16.7220
    16.7704  16.7766  16.8159  16.8538  16.8629  16.8792  16.9828  17.0042
    17.1097  17.1321  17.1364  17.1932  17.2457  17.2627  17.2787  17.3141
    17.3613  17.4443  17.6033  17.6169  17.6940  17.7783  17.7801  17.8158
    17.9005  17.9843  18.0047  18.0114  18.0507  18.0559  18.1087  18.1569
    18.2003  18.2962  18.3081  18.3790  18.4614  18.5529  18.6480  18.6551
    18.7665  18.7910  18.8293  18.9175  18.9359  19.0527  19.0967  19.1220
    19.1301  19.1731  19.2730  19.3074  19.4370  19.4377  19.5408  19.5443
    19.5811  19.7141  19.7306  19.8220  20.0534  20.1397  20.1675  20.2286
    20.3353  20.4006  20.4072  20.4211  20.4693  20.4752  20.5614  20.6018
    20.6126  20.6292  20.6353  20.6821  20.7218  20.7251  20.7752  20.7784
    20.8268  20.8549  20.9200  20.9929  21.0415  21.1361  21.2077  21.2666
    21.2709  21.2738  21.3484  21.3765  21.4061  21.4265  21.4906  21.5233
    21.6179  21.6601  21.6657  21.7353  21.7933  21.8923  21.9159  21.9299
    21.9551  21.9680  21.9784  21.9983  22.0275  22.0311  22.0537  22.0838
    22.1011  22.1109  22.2119  22.2128  22.2397  22.3457  22.3572  22.4489
    22.4598  22.4676  22.5138  22.5542  22.5632  22.5922  22.5954  22.6406
    22.7280  22.7573  22.7655  22.8813  22.9376  22.9688  23.0069  23.0589
    23.0654  23.0696  23.1230  23.1524  23.1615  23.2436  23.2674  23.3843
    23.4399  23.4982  23.5881  23.6268  23.6822  23.6979  23.7304  23.8840
    23.8943  23.9750  24.1481  24.1890  24.1916  24.2988  24.3100  24.3701
    24.3750  24.3909  24.4572  24.4728  24.4931  24.5980  24.6280  24.6691
    24.6939  24.7577  24.7767  24.8136  24.8756  24.9333  24.9465  24.9496
    24.9849  24.9960  25.1363  25.2006  25.3598  25.3779  25.4010  25.5050
    25.5270  25.7005  25.7130  25.7169  25.7340  25.7787  25.7913  25.8428
    25.8786  25.8816  25.9815  26.0771  26.1249  26.2285  26.2544  26.4501
    26.4782  26.4817  26.6843  26.7099  26.7144  26.7305  26.7315  26.7984
    26.8446  26.8865  26.8987  26.9014

          k = 0.0000 0.0000 0.0610 ( 35984 PWs)   bands (ev):

   -29.2796 -29.2793 -28.1751 -28.1747 -20.9036 -20.7790 -20.4518 -19.9656
   -19.3307 -18.5497 -18.1472 -18.0387 -17.7965 -17.5946 -17.3185 -16.7414
   -16.6964 -16.0840 -15.9291 -14.5376 -14.3905 -13.7938 -13.7887 -13.1197
   -12.8342 -12.5372 -12.2874 -12.2765 -11.9629 -11.3959 -11.3648 -11.1812
   -11.0565 -11.0540 -10.3325 -10.3142 -10.2308  -9.9144  -9.9142  -9.7241
    -9.5096  -9.2294  -8.9745  -8.8373  -8.7752  -8.5539  -8.2506  -8.2447
    -8.2424  -8.1247  -8.1109  -8.0794  -7.6472  -7.4803  -7.3953  -7.1503
    -7.1368  -6.7620  -6.7104  -6.5559  -6.2668  -5.9860  -5.9303  -5.7149
    -5.5269  -5.5069  -5.4945  -5.1528  -5.0017  -4.6179  -4.1478  -4.0285
    -3.4999  -3.4977  -0.1040  -0.0835   0.5132   0.6109   1.1379   1.5282
     1.7783   1.8234   1.8948   1.9387   2.0990   2.1600   2.5118   2.8549
     2.9854   3.3675   3.4011   3.4736   3.6335   3.8118   3.8669   3.8810
     4.2724   4.2831   4.4977   4.5535   4.6607   4.7619   4.8358   4.9326
     5.1456   5.2007   5.2105   5.2595   5.5271   5.6450   5.7274   5.7397
     5.8587   6.0086   6.0988   6.2385   6.2865   6.3236   6.3606   6.3617
     6.4070   6.4349   6.5586   6.5795   6.6924   6.7039   6.7858   6.8226
     6.9597   7.1682   7.2521   7.2855   7.2858   7.3900   7.5393   7.5422
     7.5608   7.5854   7.8068   7.8148   7.8201   7.8432   7.8801   7.9358
     8.0036   8.1337   8.1441   8.1980   8.2958   8.3888   8.5096   8.5130
     8.5607   8.6491   8.7163   8.7413   8.7783   8.7842   8.8320   8.8776
     8.8957   8.9374   8.9960   9.1784   9.3311   9.4287   9.4328   9.4679
     9.5039   9.6504   9.6844   9.7106   9.7329   9.7692   9.8699   9.9713
    10.0369  10.2096  10.2467  10.3967  10.4149  10.4427  10.4463  10.4863
    10.5274  10.6058  10.6828  10.8899  10.9476  10.9551  11.0358  11.1240
    11.2039  11.2138  11.2740  11.3502  11.3987  11.4505  11.4876  11.7098
    11.7128  11.7210  11.7243  11.7746  11.8831  11.8860  11.9747  12.0840
    12.1333  12.2139  12.2452  12.3430  12.3535  12.3583  12.4007  12.4574
    12.4592  12.4732  12.5453  12.5737  12.7527  12.7538  12.7937  12.9768
    13.0605  13.1374  13.1743  13.1817  13.2228  13.3070  13.3521  13.4030
    13.4797  13.4879  13.5130  13.7124  13.8388  14.0062  14.0468  14.1626
    14.1887  14.2696  14.4606  14.4702  14.5180  14.6613  14.7740  14.7881
    14.7901  14.8021  14.8252  14.8812  14.8977  14.9656  15.0317  15.0730
    15.0826  15.1604  15.2502  15.3203  15.3505  15.3737  15.4141  15.4521
    15.5037  15.5761  15.6460  15.7586  15.7965  15.8468  15.8784  16.0413
    16.0566  16.1120  16.1965  16.2291  16.3132  16.3217  16.3544  16.3552
    16.3739  16.4295  16.4405  16.5149  16.5762  16.6952  16.7483  16.8524
    16.8744  16.9395  16.9430  16.9935  16.9953  17.0068  17.0465  17.0726
    17.1300  17.1765  17.1896  17.2380  17.3187  17.3921  17.4652  17.4695
    17.5065  17.6322  17.6525  17.7555  17.8029  17.8062  17.8674  17.8787
    17.8797  17.9460  18.0143  18.0285  18.0616  18.0804  18.1949  18.2835
    18.3295  18.4976  18.5269  18.5324  18.5365  18.6857  18.7631  18.7895
    18.8336  18.9028  18.9580  19.0002  19.0397  19.0788  19.0977  19.1487
    19.2089  19.2105  19.3545  19.3618  19.4088  19.5068  19.5241  19.5758
    19.5987  19.6642  19.7899  19.8381  20.0089  20.1344  20.2223  20.2303
    20.2856  20.4076  20.4173  20.4622  20.5135  20.5674  20.5700  20.5828
    20.5835  20.6179  20.7391  20.7445  20.7481  20.7747  20.8289  20.8557
    20.9501  21.0116  21.0343  21.0796  21.1234  21.1301  21.1997  21.3363
    21.3430  21.3508  21.4336  21.4557  21.4603  21.5226  21.5409  21.5848
    21.6368  21.7134  21.7622  21.7889  21.7898  21.8231  21.8856  21.9239
    21.9487  21.9709  22.0001  22.0068  22.0674  22.0679  22.1080  22.1187
    22.2387  22.2398  22.2701  22.2790  22.3332  22.3597  22.4211  22.4717
    22.4869  22.4956  22.5407  22.5740  22.6071  22.6471  22.7830  22.8121
    22.8475  22.8536  22.8815  22.9015  22.9373  22.9940  23.0346  23.1146
    23.2001  23.2055  23.2163  23.2666  23.2695  23.2752  23.3592  23.4034
    23.4043  23.4522  23.6000  23.6860  23.6903  23.7085  23.7143  23.8162
    23.8894  23.9649  24.0806  24.0968  24.2371  24.2720  24.3353  24.3833
    24.4384  24.4422  24.5012  24.5360  24.6068  24.6302  24.6851  24.7315
    24.7759  24.8451  24.9462  24.9534  25.0187  25.0621  25.0862  25.1467
    25.1653  25.2072  25.2103  25.2944  25.3174  25.3437  25.5171  25.6561
    25.6597  25.6653  25.7116  25.7214  25.7263  25.7736  25.8200  25.8360
    25.8768  25.9104  26.0351  26.0856  26.1166  26.1246  26.2383  26.3979
    26.3996  26.4281  26.4905  26.5813  26.6920  26.7105  26.7932  26.8180
    26.8369  26.8418  26.8690  26.9442

          k = 0.0000 0.0000 0.0657 ( 35976 PWs)   bands (ev):

   -29.2494 -29.2490 -28.2138 -28.2135 -20.8402 -20.7163 -20.3896 -19.9044
   -19.2710 -18.4994 -18.3075 -18.1899 -17.9258 -17.5700 -17.4657 -16.8810
   -16.6618 -16.1987 -15.9456 -14.6068 -14.3760 -13.8813 -13.7219 -13.0099
   -12.9272 -12.3570 -12.0932 -12.0406 -12.0180 -11.3566 -11.2547 -11.0965
   -11.0359 -10.9417 -10.3985 -10.1999 -10.1063  -9.8726  -9.8724  -9.6298
    -9.4861  -9.2326  -8.9210  -8.7635  -8.7090  -8.4862  -8.2960  -8.2865
    -8.2367  -8.1564  -8.0828  -8.0125  -7.6380  -7.4424  -7.4144  -7.2447
    -7.2383  -6.8352  -6.6992  -6.6962  -6.4281  -6.0791  -5.8875  -5.8769
    -5.6739  -5.5712  -5.5450  -5.3038  -4.9752  -4.7784  -4.1786  -4.1404
    -3.6069  -3.5427  -0.0889   0.0111   0.5681   0.6679   1.3297   1.5914
     1.8542   1.9092   2.0218   2.1433   2.2409   2.3604   2.5895   2.8717
     2.9367   3.4300   3.4681   3.5597   3.7195   3.8889   3.9323   3.9630
     4.1648   4.3557   4.5799   4.6381   4.7289   4.8400   4.9189   4.9943
     5.1904   5.1930   5.2447   5.3426   5.4766   5.5436   5.5438   5.6605
     5.8576   5.9459   6.0846   6.1457   6.2281   6.2362   6.4188   6.4288
     6.4361   6.4960   6.5398   6.5445   6.5759   6.6032   6.6796   6.7424
     6.9005   7.0596   7.0988   7.1707   7.2489   7.3099   7.3473   7.3566
     7.3754   7.3842   7.6926   7.7598   7.8261   7.8359   7.9187   7.9530
     7.9540   7.9621   8.0074   8.1707   8.2087   8.3140   8.3609   8.3813
     8.4301   8.5517   8.5728   8.6385   8.6452   8.6747   8.7226   8.7325
     8.8532   8.8860   9.0765   9.2429   9.3472   9.3972   9.4109   9.4835
     9.4871   9.5471   9.6144   9.6546   9.6821   9.7710   9.8499   9.8630
    10.0013  10.0846  10.1212  10.3807  10.4802  10.5126  10.5209  10.5613
    10.6018  10.6406  10.6528  10.7757  10.8561  10.9088  10.9320  11.0709
    11.0776  11.2739  11.2822  11.3754  11.4686  11.4760  11.5601  11.5970
    11.7028  11.7412  11.7769  11.8084  11.8348  11.8363  12.0092  12.0465
    12.0828  12.1682  12.2552  12.2974  12.3001  12.3042  12.3769  12.3822
    12.3882  12.5189  12.5671  12.6347  12.6853  12.8277  12.8467  12.9738
    13.0688  13.1244  13.1788  13.1804  13.3675  13.4016  13.4157  13.4353
    13.4525  13.4584  13.5364  13.6569  13.7612  13.8829  14.0497  14.0771
    14.0975  14.1674  14.4124  14.5246  14.5394  14.5991  14.6840  14.7086
    14.7880  14.7976  14.8225  14.8383  14.9186  14.9617  15.0278  15.0654
    15.1273  15.1570  15.2905  15.2956  15.4160  15.4199  15.4263  15.5274
    15.5481  15.6260  15.7501  15.8354  15.8364  15.8526  15.9733  15.9901
    16.1150  16.2017  16.2204  16.2400  16.3187  16.3577  16.3895  16.4041
    16.4610  16.5121  16.5633  16.5890  16.6991  16.7401  16.7959  16.8536
    16.8618  16.9132  17.0019  17.0108  17.0538  17.0991  17.1771  17.2151
    17.2280  17.3262  17.3378  17.3824  17.4765  17.4912  17.5249  17.6856
    17.6891  17.7544  17.7614  17.7665  17.8746  17.8914  17.9238  17.9910
    18.0315  18.0378  18.0607  18.0934  18.1041  18.1738  18.3501  18.4011
    18.4148  18.5709  18.6670  18.6725  18.7233  18.7884  18.8042  18.9001
    18.9307  18.9468  19.0007  19.0430  19.0549  19.1317  19.2507  19.2588
    19.3200  19.3357  19.3402  19.4336  19.4477  19.5130  19.5404  19.5792
    19.6629  19.7212  19.9521  19.9549  20.0579  20.0643  20.1085  20.1916
    20.2114  20.3782  20.4114  20.4783  20.4869  20.5364  20.5688  20.5859
    20.5914  20.6599  20.6678  20.7230  20.7237  20.8650  20.9736  21.0097
    21.0164  21.0496  21.1831  21.1839  21.2241  21.2709  21.3339  21.3710
    21.3856  21.4072  21.4250  21.5006  21.5308  21.5656  21.5818  21.6458
    21.6624  21.7258  21.7478  21.8337  21.8396  21.8694  21.9174  21.9560
    22.0012  22.0386  22.0461  22.0522  22.0966  22.1473  22.1608  22.1683
[...]
     7.3567   7.3575   7.4207   7.4414   7.4478   7.5270   7.8551   7.8805
     8.0710   8.1041   8.2242   8.2602   8.2785   8.3120   8.3336   8.4469
     8.8692   8.8721   8.8913   8.9259   9.1565   9.2122   9.2247   9.3012
     9.3142   9.5562   9.7412   9.7500   9.7701   9.7997   9.8763   9.9320
    10.0465  10.1020  10.2515  10.2518  10.2631  10.3696  10.5111  10.5127
    10.5210  10.6864  10.7080  10.7124  10.7417  10.7645  10.8426  10.9200
    11.1089  11.2170  11.2892  11.2922  11.3001  11.3646  11.3992  11.4233
    11.4293  11.4389  11.5030  11.5803  11.5975  11.6314  11.9008  11.9029
    11.9278  11.9962  12.1652  12.1931  12.2009  12.2405  12.3232  12.3599
    12.3620  12.3743  12.4308  12.4412  12.6601  12.7719  12.8953  12.9918
    13.0681  13.0849  13.1013  13.1941  13.2536  13.3001  13.3735  13.3765
    13.4799  13.4824  13.6121  13.7533  13.9194  13.9305  14.0049  14.0684
    14.0733  14.1398  14.2052  14.2172  14.2302  14.2979  14.4042  14.4420
    14.5051  14.5404  14.6124  14.6752  14.8363  14.8786  14.8951  15.0567
    15.0631  15.0710  15.1967  15.3636  15.3684  15.3921  15.4077  15.5705
    15.5942  15.6464  15.7381  15.9002  15.9536  16.0488  16.2228  16.2498
    16.3314  16.3966  16.4135  16.4343  16.4370  16.5081  16.5868  16.5985
    16.6508  16.6949  16.7566  16.7628  16.7871  16.9169  17.0327  17.0654
    17.0761  17.2460  17.2536  17.4698  17.4712  17.5490  17.5786  17.6511
    17.6597  17.7558  17.7970  17.8867  17.9034  18.0771  18.0924  18.1021
    18.1812  18.3160  18.3778  18.4318  18.6291  18.6460  18.6478  18.6753
    18.7115  18.7790  18.7913  18.8268  18.8716  18.9899  18.9935  19.0375
    19.1640  19.2014  19.2670  19.2674  19.3374  19.4055  19.5410  19.5771
    19.6060  19.7361  19.7626  19.7641  19.7806  19.9051  20.0539  20.0704
    20.0811  20.1365  20.1701  20.2551  20.2823  20.3328  20.4486  20.4897
    20.4980  20.5361  20.5558  20.5589  20.5752  20.6739  20.6851  20.7614
    20.8097  20.8512  20.8521  20.9030  20.9752  20.9924  21.0225  21.0504
    21.0815  21.1117  21.1676  21.2102  21.2241  21.2347  21.2546  21.3329
    21.3341  21.3656  21.3840  21.3850  21.4254  21.4687  21.4948  21.5410
    21.6401  21.6458  21.6721  21.7351  21.7778  21.8065  21.8421  21.9286
    21.9713  22.0020  22.0084  22.0981  22.1044  22.1140  22.1742  22.2579
    22.2791  22.3587  22.3693  22.3746  22.4570  22.4872  22.4940  22.5139
    22.5396  22.5562  22.6744  22.7148  22.7324  22.7346  22.7761  22.7988
    22.8202  22.8873  22.9434  23.0242  23.0520  23.0819  23.1378  23.1886
    23.1886  23.2453  23.2745  23.2964  23.3847  23.3972  23.4362  23.4692
    23.4769  23.5718  23.6028  23.6441  23.6907  23.7372  23.7948  23.8654
    23.8899  23.9003  23.9269  24.0093  24.0322  24.0807  24.0834  24.1148
    24.1946  24.2052  24.2394  24.3280  24.3297  24.3817  24.4272  24.4695
    24.5061  24.5524  24.5983  24.6306  24.6630  24.6735  24.7101  24.7498
    24.7987  24.8647  24.9057  24.9627  24.9808  25.0315  25.0431  25.0612
    25.1938  25.2131  25.2785  25.2789  25.2985  25.3030  25.3844  25.3875
    25.4169  25.5212  25.5250  25.5898  25.5932  25.6163  25.6651  25.7500
    25.7533  25.7981  25.8335  25.9041  25.9317  26.0018  26.0171  26.0227
    26.0257  26.1109  26.1345  26.1863  26.2364  26.2951  26.3221  26.3958
    26.4077  26.4461  26.4836  26.5562

          k = 0.0000 0.0000 0.1080 ( 35988 PWs)   bands (ev):

   -28.9568 -28.9565 -28.5592 -28.5589 -20.0650 -19.9521 -19.6566 -19.5781
   -19.4960 -19.1652 -19.1429 -18.6892 -18.5230 -18.0699 -17.7559 -17.3135
   -16.9167 -16.5149 -16.2064 -14.8503 -14.5488 -14.0289 -13.6766 -13.0032
   -12.7803 -12.0735 -11.8847 -11.3351 -10.9998 -10.7018 -10.6533 -10.4880
   -10.0974  -9.7632  -9.7498  -9.6498  -9.5135  -9.5134  -9.3927  -8.9075
    -8.8736  -8.7847  -8.7445  -8.6911  -8.6909  -8.6171  -8.4796  -8.3622
    -8.3099  -8.2213  -8.1268  -8.1037  -7.8550  -7.8321  -7.7657  -7.6041
    -7.4690  -7.3462  -7.3239  -7.1730  -7.0874  -6.9905  -6.6728  -6.6077
    -6.1142  -5.9356  -5.9007  -5.8966  -5.4461  -5.1861  -4.7141  -4.4840
    -3.9918  -3.8923   0.0815   0.2378   0.7344   1.0899   1.7382   2.1435
     2.8684   2.8810   2.9161   3.1258   3.1350   3.3940   3.6218   3.7681
     3.8389   3.9188   3.9199   4.0829   4.1201   4.3239   4.4748   4.5637
     4.6078   4.7227   4.7474   4.7703   4.8247   4.8808   4.9009   5.0268
     5.2517   5.3087   5.3281   5.4139   5.4196   5.4810   5.5797   5.6517
     5.6521   5.6709   5.6721   5.7847   5.7893   5.8727   5.8957   5.9065
     5.9892   6.0327   6.0733   6.1810   6.2093   6.2663   6.2811   6.3250
     6.3444   6.3896   6.4619   6.4771   6.5427   6.6293   6.6597   6.7589
     6.8037   6.9017   6.9564   7.0084   7.0093   7.0424   7.0888   7.0972
     7.4692   7.4953   7.5071   7.5203   7.5611   7.6323   7.7084   7.7107
     7.9948   8.0989   8.1191   8.1393   8.1713   8.2314   8.3452   8.4175
     8.8201   8.8836   9.0069   9.0125   9.1621   9.1856   9.1944   9.3064
     9.4421   9.5985   9.6128   9.6871   9.7872   9.9082   9.9118   9.9580
    10.0596  10.0783  10.2381  10.2529  10.3400  10.3910  10.4527  10.4691
    10.5444  10.6087  10.6534  10.7594  10.7728  10.8032  10.8423  10.9590
    10.9862  11.1629  11.1651  11.2131  11.2772  11.3948  11.4399  11.4832
    11.4875  11.5047  11.5384  11.5595  11.5635  11.6619  11.8368  11.8386
    11.8863  11.9744  12.0796  12.1682  12.1900  12.2725  12.2899  12.3010
    12.3091  12.4522  12.4760  12.5054  12.7131  12.7862  12.8904  12.9487
    13.0460  13.0678  13.0839  13.1342  13.2412  13.3461  13.3475  13.3791
    13.3881  13.5976  13.6529  13.7856  13.8658  13.8945  13.9914  14.0667
    14.0755  14.1348  14.2094  14.2192  14.2272  14.3246  14.3414  14.4384
    14.5394  14.5583  14.5979  14.6833  14.7236  14.9716  14.9741  15.0356
    15.0950  15.1084  15.1421  15.2706  15.3268  15.3677  15.5504  15.5758
    15.6028  15.7147  15.7950  15.8768  15.9912  16.0947  16.1221  16.1291
    16.2313  16.2655  16.3040  16.4928  16.5222  16.5318  16.5786  16.6092
    16.6151  16.7292  16.8006  16.8249  16.8586  16.9373  16.9376  17.1646
    17.1834  17.1849  17.2370  17.4797  17.4824  17.5267  17.5270  17.5374
    17.5922  17.7421  17.7988  17.9632  18.0005  18.0019  18.0255  18.0604
    18.1460  18.2769  18.3347  18.4404  18.5672  18.5849  18.6164  18.7375
    18.7424  18.7634  18.7688  19.0340  19.0644  19.1313  19.1766  19.2189
    19.2198  19.2708  19.3405  19.4280  19.4644  19.4954  19.5048  19.6554
    19.6964  19.7641  19.7763  19.8744  19.9101  19.9114  20.0122  20.1619
    20.1782  20.2705  20.2859  20.2938  20.4322  20.4450  20.5008  20.6024
    20.6128  20.6447  20.6611  20.6979  20.7032  20.7608  20.7730  20.7851
    20.8211  20.8274  20.8982  20.9102  20.9155  21.0390  21.0538  21.0654
    21.0676  21.0871  21.1557  21.1803  21.1851  21.2165  21.3555  21.3736
    21.3978  21.4249  21.4440  21.4643  21.5259  21.5497  21.5522  21.5858
    21.6775  21.7325  21.8124  21.8139  21.8412  21.8743  21.8874  21.8892
    21.9202  21.9617  21.9711  22.0380  22.0769  22.1209  22.1730  22.1815
    22.1896  22.2883  22.4943  22.4995  22.5119  22.5130  22.5629  22.5736
    22.6221  22.6513  22.7023  22.7069  22.7567  22.7615  22.7713  22.8354
    22.8818  22.9320  22.9540  23.0103  23.0875  23.0921  23.1120  23.1378
    23.2005  23.2048  23.2737  23.2876  23.2972  23.3134  23.3659  23.4135
    23.4742  23.5486  23.5529  23.6258  23.6974  23.7199  23.7402  23.8115
    23.8842  23.9201  23.9597  23.9950  24.0366  24.1362  24.1472  24.1491
    24.1690  24.1723  24.2020  24.2483  24.2709  24.2777  24.2810  24.3372
    24.3552  24.3669  24.4709  24.5095  24.5309  24.6282  24.6662  24.7114
    24.7255  24.8815  24.9310  24.9669  24.9849  25.0025  25.0432  25.0492
    25.2197  25.2746  25.3144  25.3222  25.3453  25.3688  25.4001  25.4074
    25.4279  25.4894  25.5102  25.5177  25.5500  25.5855  25.6238  25.6944
    25.7650  25.8340  25.8665  25.8714  25.9153  25.9277  25.9346  25.9568
    25.9600  26.0301  26.1358  26.1636  26.1955  26.2452  26.2927  26.3506
    26.3572  26.3938  26.4441  26.4549

          k = 0.0000 0.0000 0.1127 ( 36004 PWs)   bands (ev):

   -28.9397 -28.9394 -28.5779 -28.5776 -19.9576 -19.8494 -19.7279 -19.6071
   -19.5296 -19.2741 -19.0521 -18.7960 -18.4329 -18.1726 -17.6711 -17.4088
   -16.8455 -16.5893 -16.1880 -14.8781 -14.5157 -14.0763 -13.6412 -13.0442
   -12.7388 -12.1199 -11.8117 -11.4097 -10.8764 -10.6770 -10.6599 -10.5787
    -9.9676  -9.6952  -9.5648  -9.5095  -9.4973  -9.4971  -9.4577  -9.0223
    -8.8722  -8.8713  -8.7083  -8.7081  -8.6404  -8.5843  -8.4715  -8.3660
    -8.2847  -8.2505  -8.2242  -8.2103  -7.9156  -7.7593  -7.7292  -7.4846
    -7.4830  -7.4630  -7.2775  -7.2224  -7.0781  -7.0578  -6.8023  -6.5015
    -6.2334  -5.9122  -5.9086  -5.8449  -5.5487  -5.1193  -4.7890  -4.4557
    -4.0214  -3.8895   0.0712   0.2718   0.6885   1.1665   1.6589   2.2592
     2.7569   2.9568   2.9784   3.2444   3.2845   3.4679   3.5153   3.7559
     3.7600   3.7729   4.0965   4.1223   4.1241   4.3428   4.5258   4.6132
     4.6218   4.7106   4.7475   4.9068   4.9221   4.9548   4.9886   5.1718
     5.2215   5.2442   5.2481   5.2660   5.2691   5.4669   5.4877   5.5633
     5.6057   5.6581   5.7575   5.7771   5.7992   5.8447   5.8704   5.9828
     6.0132   6.0512   6.1144   6.1279   6.1363   6.2323   6.2529   6.3173
     6.3770   6.4543   6.4613   6.4887   6.5361   6.5695   6.6343   6.7077
     6.7133   6.7656   6.7954   6.8462   6.9732   7.0805   7.1222   7.1820
     7.4796   7.5233   7.5535   7.6384   7.6455   7.6635   7.7067   7.7698
     7.8956   7.9416   7.9726   8.0123   8.0366   8.2187   8.4759   8.4816
     8.7171   8.7669   9.0756   9.1455   9.1495   9.1572   9.3064   9.4465
     9.4596   9.4598   9.5869   9.6283   9.7703   9.8787   9.9172  10.0434
    10.0602  10.1704  10.1902  10.2658  10.3383  10.3755  10.4435  10.4780
    10.5295  10.5340  10.7192  10.7729  10.8096  10.8663  10.9090  10.9385
    10.9619  11.0352  11.0511  11.1659  11.2600  11.3037  11.3316  11.4458
    11.5496  11.5685  11.6769  11.6811  11.7074  11.7507  11.7625  11.7937
    11.8222  11.9552  11.9678  12.0252  12.0594  12.1105  12.3587  12.3637
    12.4421  12.5086  12.5442  12.5582  12.7120  12.7381  12.9102  12.9595
    13.0013  13.0381  13.0606  13.0905  13.2381  13.3012  13.3165  13.3526
    13.5200  13.6378  13.6593  13.7504  13.8026  13.8963  14.0358  14.0923
    14.1056  14.1264  14.1881  14.1928  14.2306  14.2756  14.3363  14.3907
    14.5642  14.5890  14.6298  14.7282  14.7803  14.9444  14.9529  15.0126
    15.0271  15.0618  15.1315  15.2878  15.3442  15.3724  15.6316  15.6853
    15.6991  15.7337  15.8203  15.8742  15.9452  15.9673  16.0239  16.0743
    16.1980  16.2312  16.2652  16.4873  16.4992  16.5541  16.5575  16.5932
    16.7110  16.7801  16.7963  16.8958  16.9526  16.9548  16.9887  17.0852
    17.0957  17.2925  17.3007  17.3018  17.3401  17.5162  17.5512  17.5999
    17.6300  17.6740  17.8397  17.9201  17.9758  18.0068  18.0417  18.1131
    18.1579  18.1731  18.3305  18.4567  18.4604  18.5325  18.5771  18.6693
    18.6930  18.7667  18.9094  19.0702  19.1028  19.1866  19.2175  19.3118
    19.3799  19.4085  19.4372  19.5065  19.5277  19.6425  19.6425  19.7174
    19.7517  19.8168  19.8626  19.8850  19.9244  20.0202  20.1240  20.2122
    20.2679  20.3432  20.3691  20.3764  20.4422  20.4502  20.4812  20.4904
    20.5103  20.7292  20.7354  20.7537  20.7760  20.7865  20.7929  20.8550
    20.8662  20.8779  20.9007  20.9181  21.0138  21.0227  21.0385  21.0744
    21.0906  21.1072  21.1147  21.1670  21.1927  21.2149  21.2299  21.3078
    21.3833  21.4471  21.4569  21.4972  21.5203  21.5323  21.5968  21.6662
    21.6844  21.7759  21.8152  21.8517  21.8599  21.9133  21.9401  21.9567
    21.9734  21.9994  22.1098  22.1179  22.1881  22.1892  22.2084  22.2560
    22.2824  22.3689  22.4203  22.4565  22.4891  22.5780  22.5890  22.6470
    22.6483  22.6608  22.6618  22.7237  22.7853  22.8026  22.8268  22.8268
    22.8948  22.9395  22.9403  22.9921  22.9956  23.0603  23.0611  23.0729
    23.1351  23.1895  23.2895  23.2982  23.3041  23.3349  23.3913  23.3974
    23.4334  23.4504  23.5219  23.5250  23.5992  23.6282  23.7092  23.7107
    23.8802  23.8844  23.9401  23.9610  24.0007  24.0207  24.1707  24.1789
    24.1809  24.2068  24.2284  24.2446  24.2447  24.2732  24.3163  24.3221
    24.3597  24.4069  24.4825  24.5135  24.5457  24.5571  24.5867  24.6784
    24.6932  24.7166  24.7776  24.8365  24.8846  24.9306  24.9580  25.1356
    25.1356  25.2877  25.3048  25.3562  25.3780  25.3919  25.3974  25.4427
    25.4787  25.5079  25.5109  25.5399  25.5641  25.5927  25.6619  25.6635
    25.6648  25.6969  25.7415  25.7998  25.8291  25.9201  26.0052  26.0201
    26.0272  26.1474  26.1549  26.2319  26.2553  26.2953  26.3457  26.3990
    26.4143  26.4199  26.4630  26.5411

          k = 0.0000 0.0000-0.1174 ( 35980 PWs)   bands (ev):

   -28.9335 -28.9332 -28.5846 -28.5843 -19.8635 -19.8238 -19.7749 -19.6848
   -19.4699 -19.3399 -18.9935 -18.8594 -18.3784 -18.2312 -17.6227 -17.4606
   -16.8093 -16.6266 -16.1816 -14.8876 -14.5027 -14.0941 -13.6281 -13.0592
   -12.7233 -12.1370 -11.7801 -11.4418 -10.7841 -10.7217 -10.6688 -10.6006
    -9.9037  -9.7011  -9.5295  -9.4916  -9.4915  -9.4696  -9.2683  -9.2592
    -8.8860  -8.8730  -8.7142  -8.7140  -8.5832  -8.5568  -8.4165  -8.3789
    -8.3689  -8.2584  -8.2573  -8.2061  -7.9563  -7.7568  -7.6035  -7.5934
    -7.4890  -7.3742  -7.3358  -7.2311  -7.1306  -6.9608  -6.9038  -6.4298
    -6.3095  -5.9160  -5.9126  -5.7948  -5.6028  -5.0886  -4.8223  -4.4452
    -4.0322  -3.8886   0.0677   0.2851   0.6711   1.1984   1.6260   2.3123
     2.7051   2.9850   3.0013   3.3343   3.3680   3.4164   3.5060   3.6928
     3.7103   3.7667   4.0900   4.1274   4.2549   4.3831   4.4865   4.5089
     4.5591   4.8744   4.8760   4.8837   4.9671   4.9968   5.0397   5.1310
     5.1421   5.2049   5.2136   5.3136   5.3294   5.4167   5.4179   5.4350
     5.5815   5.7127   5.7148   5.7482   5.8002   5.9469   5.9491   5.9583
     5.9989   6.0375   6.0755   6.1033   6.1854   6.1906   6.2793   6.3043
     6.3552   6.3799   6.4620   6.5792   6.6297   6.6299   6.6487   6.6678
     6.6851   6.6917   6.6927   6.7205   6.9094   7.0903   7.1733   7.3080
     7.3585   7.4798   7.5598   7.6627   7.7729   7.8024   7.8049   7.8186
     7.8517   7.8540   7.8605   7.8993   7.9057   8.2230   8.5285   8.6085
     8.6408   8.6555   9.0392   9.1362   9.2910   9.2929   9.3017   9.3210
     9.4177   9.5115   9.5955   9.6467   9.6991   9.7992  10.0036  10.0254
    10.1504  10.1997  10.2315  10.2320  10.2764  10.2927  10.3732  10.5423
    10.5750  10.6677  10.6682  10.6958  10.8699  10.8922  10.9121  10.9452
    10.9573  11.0040  11.0315  11.0900  11.2473  11.2625  11.3562  11.3570
    11.6309  11.6407  11.6715  11.6971  11.7533  11.7958  11.8239  11.8315
    11.8488  11.8703  11.8940  11.9228  11.9812  12.0529  12.3768  12.3923
    12.5292  12.5475  12.5776  12.5864  12.5896  12.7867  12.8625  12.9791
    12.9833  13.0541  13.0740  13.0965  13.1432  13.2781  13.3028  13.4511
    13.5306  13.6274  13.6573  13.7065  13.7953  13.9423  14.0330  14.1179
    14.1336  14.1447  14.1650  14.1672  14.1747  14.2671  14.3534  14.4239
    14.4531  14.6048  14.7291  14.8413  14.8437  14.8696  14.8717  14.9373
    15.0200  15.0249  15.1397  15.2749  15.3441  15.5002  15.6256  15.6728
    15.7944  15.8223  15.8311  15.8618  15.8643  15.8988  15.9666  16.0136
    16.1528  16.2915  16.3001  16.4180  16.4867  16.5462  16.5791  16.6510
    16.6901  16.7105  16.9384  16.9426  16.9522  16.9868  16.9989  17.1057
    17.1074  17.1397  17.1799  17.3493  17.4052  17.4875  17.5430  17.6252
    17.6448  17.6586  17.8559  17.8785  17.9697  18.0223  18.0575  18.0993
    18.1104  18.2927  18.3171  18.3256  18.4667  18.5313  18.5803  18.6365
    18.6676  18.7621  19.0232  19.0486  19.0800  19.1909  19.2225  19.3520
    19.3806  19.4239  19.4397  19.4847  19.5812  19.7466  19.7528  19.7890
    19.8394  19.8952  19.9033  19.9780  19.9943  20.0805  20.1527  20.1795
    20.1857  20.2199  20.3409  20.3900  20.3928  20.4260  20.5076  20.5115
    20.5281  20.6925  20.7836  20.7897  20.8109  20.8116  20.8448  20.8483
    20.8752  20.8801  20.9251  20.9328  20.9444  20.9803  21.0096  21.0098
    21.1162  21.1218  21.1634  21.1862  21.1878  21.2961  21.3185  21.3735
    21.3849  21.3861  21.4075  21.4203  21.5005  21.5215  21.6367  21.6653
    21.7032  21.7306  21.7510  21.8046  21.8526  21.8576  21.9756  22.0442
    22.0799  22.0966  22.1676  22.1888  22.1898  22.2096  22.2497  22.2855
    22.3592  22.4055  22.4235  22.4337  22.5882  22.5961  22.6013  22.6333
    22.6930  22.7004  22.7101  22.7364  22.7692  22.7720  22.7884  22.7901
    22.8950  22.8982  22.9446  22.9791  22.9995  23.0152  23.1059  23.1143
    23.1311  23.1787  23.1893  23.1991  23.2197  23.2396  23.2481  23.2613
    23.4752  23.5656  23.5867  23.6214  23.6222  23.6254  23.6327  23.7865
    23.7946  23.8547  23.8954  23.8998  24.0487  24.0533  24.1077  24.1197
    24.1532  24.2217  24.2429  24.2632  24.2749  24.2776  24.3569  24.3927
    24.3976  24.4060  24.4512  24.5144  24.5340  24.5839  24.5932  24.5962
    24.6285  24.6381  24.6877  24.8367  24.9258  24.9739  25.0741  25.1752
    25.1837  25.2247  25.2299  25.2856  25.2967  25.3147  25.3407  25.3427
    25.3923  25.3963  25.4139  25.5639  25.5908  25.6015  25.6759  25.6841
    25.7006  25.7096  25.7719  25.8960  25.9802  26.0251  26.0417  26.0674
    26.1393  26.1903  26.2235  26.2319  26.2573  26.2706  26.2836  26.3658
    26.4208  26.4289  26.4463  26.5096

     the Fermi energy is    -1.9734 ev

     Writing output data file F15.save/

     init_run     :      6.56s CPU      6.90s WALL (       1 calls)
     electrons    :   2691.67s CPU   2767.71s WALL (       1 calls)

     Called by init_run:
     wfcinit      :      0.00s CPU      0.00s WALL (       1 calls)
     potinit      :      0.37s CPU      0.57s WALL (       1 calls)
     hinit0       :      5.42s CPU      5.50s WALL (       1 calls)

     Called by electrons:
     c_bands      :   2691.65s CPU   2767.68s WALL (       1 calls)
     v_of_rho     :      0.29s CPU      0.32s WALL (       1 calls)
     newd         :      0.24s CPU      0.29s WALL (       1 calls)

     Called by c_bands:
     init_us_2    :      0.08s CPU      0.11s WALL (      26 calls)
     cegterg      :   2644.98s CPU   2718.45s WALL (      68 calls)

     Called by sum_band:

     Called by *egterg:
     h_psi        :    369.46s CPU    383.93s WALL (    1220 calls)
     s_psi        :     28.37s CPU     28.62s WALL (    1220 calls)
     g_psi        :      2.80s CPU      2.85s WALL (    1126 calls)
     cdiaghg      :   1674.63s CPU   1712.23s WALL (    1152 calls)

     Called by h_psi:
     h_psi:pot    :    367.42s CPU    380.98s WALL (    1220 calls)
     h_psi:calbec :     31.36s CPU     34.42s WALL (    1220 calls)
     vloc_psi     :    307.69s CPU    317.62s WALL (    1220 calls)
     add_vuspsi   :     28.34s CPU     28.65s WALL (    1220 calls)

     General routines
     calbec       :     31.32s CPU     34.12s WALL (    1220 calls)
     fft          :      0.23s CPU      0.33s WALL (      14 calls)
     ffts         :      0.00s CPU      0.02s WALL (       1 calls)
     fftw         :    278.54s CPU    287.82s WALL (  394008 calls)
     interpolate  :      0.02s CPU      0.04s WALL (       1 calls)
     davcio       :      0.01s CPU      1.17s WALL (      52 calls)

     Parallel routines
     fft_scatt_xy :     42.42s CPU     43.11s WALL (  394023 calls)
     fft_scatt_yz :     89.76s CPU     93.33s WALL (  394023 calls)

     PWSCF        : 45m13.15s CPU    48m38.83s WALL


   This run was terminated on:  21:23:30  21Apr2021            

=------------------------------------------------------------------------------=
   JOB DONE.
=------------------------------------------------------------------------------=
