
     Program PWSCF v.6.3 starts on 21Apr2021 at 22:35:12 

     This program is part of the open-source Quantum ESPRESSO suite
     for quantum simulation of materials; please cite
         "P. Giannozzi et al., J. Phys.:Condens. Matter 21 395502 (2009);
         "P. Giannozzi et al., J. Phys.:Condens. Matter 29 465901 (2017);
          URL http://www.quantum-espresso.org", 
     in publications or presentations arising from this work. More details at
     http://www.quantum-espresso.org/quote

     Parallel version (MPI), running on    16 processors
     R & G space division:  proc/nbgrp/npool/nimage =      16
     Waiting for input...
     Reading input from standard input
     Message from routine read_cards :
     DEPRECATED: no units specified in CELL_PARAMETERS card

     Current dimensions of program PWSCF are:
     Max number of different atomic species (ntypx) = 10
     Max number of k-points (npk) =  40000
     Max angular momentum in pseudopotentials (lmaxx) =  3

     Atomic positions and unit cell read from directory:
     /home/zfwang/scratch/GNRDATASET/AGNR/F16/F16.save/


     Subspace diagonalization in iterative solution of the eigenvalue problem:
     a serial algorithm will be used


     Parallelization info
     --------------------
     sticks:   dense  smooth     PW     G-vecs:    dense   smooth      PW
     Min        2602     867    243                97426    18753    2807
     Max        2603     869    245                97427    18754    2808
     Sum       41645   13885   3911              1558829   300053   44919



     bravais-lattice index     =            0
     lattice parameter (alat)  =       1.8897  a.u.
     unit-cell volume          =    8779.6102 (a.u.)^3
     number of atoms/cell      =           36
     number of atomic types    =            2
     number of electrons       =       156.00
     number of Kohn-Sham states=          500
     kinetic-energy cutoff     =      40.0000  Ry
     charge density cutoff     =     480.0000  Ry
     Exchange-correlation      = PBE ( 1  4  3  4 0 0)

     celldm(1)=  18.897261  celldm(2)=   3.054000  celldm(3)=   0.426000
     celldm(4)=   0.000000  celldm(5)=   0.000000  celldm(6)=   0.000000

     crystal axes: (cart. coord. in units of alat)
               a(1) = (  10.000000   0.000000   0.000000 )  
               a(2) = (   0.000000  30.540000   0.000000 )  
               a(3) = (   0.000000   0.000000   4.260000 )  

     reciprocal axes: (cart. coord. in units 2 pi/alat)
               b(1) = (  0.100000  0.000000  0.000000 )  
               b(2) = (  0.000000  0.032744  0.000000 )  
               b(3) = (  0.000000  0.000000  0.234742 )  


     PseudoPot. # 1 for C  read from file:
     /home/zfwang/hp_home/MySoftware/qe-6.3/pseudo/C.pbe-n-rrkjus_psl.0.1.UPF
     MD5 check sum: fff530ed632a789b3b184014e67dd7f1
     Pseudo is Ultrasoft + core correction, Zval =  4.0
     Generated using "atomic" code by A. Dal Corso v.5.0.2 svn rev. 9415
     Using radial grid of 1073 points,  4 beta functions with: 
                l(1) =   0
                l(2) =   0
                l(3) =   1
                l(4) =   1
     Q(r) pseudized with 0 coefficients 


     PseudoPot. # 2 for F  read from file:
     /home/zfwang/hp_home/MySoftware/qe-6.3/pseudo/F.pbe-n-rrkjus_psl.0.1.UPF
     MD5 check sum: 147397eca92fbb10e5415488e6f13084
     Pseudo is Ultrasoft + core correction, Zval =  7.0
     Generated using "atomic" code by A. Dal Corso v.5.0.2 svn rev. 9415
     Using radial grid of 1105 points,  4 beta functions with: 
                l(1) =   0
                l(2) =   0
                l(3) =   1
                l(4) =   1
     Q(r) pseudized with 0 coefficients 


     atomic species   valence    mass     pseudopotential
        C              4.00    12.01070     C ( 1.00)
        F              7.00    18.99840     F ( 1.00)

     No symmetry found



   Cartesian axes

     site n.     atom                  positions (alat units)
         1           C   tau(   1) = (   5.0000055   6.0810423   2.8050956  )
         2           C   tau(   2) = (   4.9999988   7.2561229   3.5536724  )
         3           C   tau(   3) = (   4.9999979   6.0810373   1.4548975  )
         4           C   tau(   4) = (   4.9999980   8.4850284   2.8385596  )
         5           C   tau(   5) = (   5.0000012   9.7211509   3.5519318  )
         6           C   tau(   6) = (   4.9999966   7.2561189   0.7063196  )
         7           C   tau(   7) = (   4.9999986   8.4850263   1.4214323  )
         8           C   tau(   8) = (   5.0000050  10.9531428   2.8417143  )
         9           C   tau(   9) = (   5.0000067  12.1845887   3.5496230  )
        10           C   tau(  10) = (   5.0000020   9.7211500   0.7080627  )
        11           C   tau(  11) = (   5.0000050  10.9531424   1.4182838  )
        12           C   tau(  12) = (   5.0000072  13.4197297   2.8389799  )
        13           C   tau(  13) = (   5.0000057  14.6539589   3.5490587  )
        14           C   tau(  14) = (   5.0000067  12.1845889   0.7103771  )
        15           C   tau(  15) = (   5.0000073  13.4197294   1.4210218  )
        16           C   tau(  16) = (   5.0000028  15.8860035   2.8409438  )
        17           C   tau(  17) = (   4.9999985  17.1202499   3.5510230  )
        18           C   tau(  18) = (   5.0000060  14.6539586   0.7109435  )
        19           C   tau(  19) = (   5.0000027  15.8860035   1.4190590  )
        20           C   tau(  20) = (   4.9999958  18.3554080   2.8403781  )
        21           C   tau(  21) = (   4.9999935  19.5868667   3.5482806  )
        22           C   tau(  22) = (   4.9999983  17.1202493   0.7089786  )
        23           C   tau(  23) = (   4.9999958  18.3554081   1.4196234  )
        24           C   tau(  24) = (   4.9999910  20.8188482   2.8380632  )
        25           C   tau(  25) = (   4.9999884  22.0549735   3.5514463  )
        26           C   tau(  26) = (   4.9999935  19.5868663   0.7117201  )
        27           C   tau(  27) = (   4.9999902  20.8188475   1.4219373  )
        28           C   tau(  28) = (   4.9999889  23.2838846   2.8363113  )
        29           C   tau(  29) = (   4.9999925  24.4589852   3.5849239  )
        30           C   tau(  30) = (   4.9999880  22.0549730   0.7085547  )
        31           C   tau(  31) = (   4.9999911  23.2838827   1.4236894  )
        32           C   tau(  32) = (   5.0000005  24.4589829   0.6750777  )
        33           F   tau(  33) = (   5.0000246   4.8183695   3.2314657  )
        34           F   tau(  34) = (   4.9999986   4.8183562   1.0285434  )
        35           F   tau(  35) = (   4.9999955  25.7216750   3.1585341  )
        36           F   tau(  36) = (   5.0000223  25.7216690   1.1014749  )

     number of k points=    26  Marzari-Vanderbilt smearing, width (Ry)=  0.0100
                       cart. coord. in units 2pi/alat
        k(    1) = (   0.0000000   0.0000000   0.0000000), wk =   0.0400000
        k(    2) = (   0.0000000   0.0000000   0.0046948), wk =   0.0800000
        k(    3) = (   0.0000000   0.0000000   0.0093897), wk =   0.0800000
        k(    4) = (   0.0000000   0.0000000   0.0140845), wk =   0.0800000
        k(    5) = (   0.0000000   0.0000000   0.0187793), wk =   0.0800000
        k(    6) = (   0.0000000   0.0000000   0.0234742), wk =   0.0800000
        k(    7) = (   0.0000000   0.0000000   0.0281690), wk =   0.0800000
        k(    8) = (   0.0000000   0.0000000   0.0328638), wk =   0.0800000
        k(    9) = (   0.0000000   0.0000000   0.0375587), wk =   0.0800000
        k(   10) = (   0.0000000   0.0000000   0.0422535), wk =   0.0800000
        k(   11) = (   0.0000000   0.0000000   0.0469484), wk =   0.0800000
        k(   12) = (   0.0000000   0.0000000   0.0516432), wk =   0.0800000
        k(   13) = (   0.0000000   0.0000000   0.0563380), wk =   0.0800000
        k(   14) = (   0.0000000   0.0000000   0.0610329), wk =   0.0800000
        k(   15) = (   0.0000000   0.0000000   0.0657277), wk =   0.0800000
        k(   16) = (   0.0000000   0.0000000   0.0704225), wk =   0.0800000
        k(   17) = (   0.0000000   0.0000000   0.0751174), wk =   0.0800000
        k(   18) = (   0.0000000   0.0000000   0.0798122), wk =   0.0800000
        k(   19) = (   0.0000000   0.0000000   0.0845070), wk =   0.0800000
        k(   20) = (   0.0000000   0.0000000   0.0892019), wk =   0.0800000
        k(   21) = (   0.0000000   0.0000000   0.0938967), wk =   0.0800000
        k(   22) = (   0.0000000   0.0000000   0.0985915), wk =   0.0800000
        k(   23) = (   0.0000000   0.0000000   0.1032864), wk =   0.0800000
        k(   24) = (   0.0000000   0.0000000   0.1079812), wk =   0.0800000
        k(   25) = (   0.0000000   0.0000000   0.1126761), wk =   0.0800000
        k(   26) = (   0.0000000   0.0000000  -0.1173709), wk =   0.0400000

     Dense  grid:  1558829 G-vectors     FFT dimensions: ( 135, 405,  60)

     Smooth grid:   300053 G-vectors     FFT dimensions: (  80, 240,  36)

     Estimated max dynamical RAM per process >     459.35 MB

     Estimated total dynamical RAM >       7.18 GB

     Check: negative/imaginary core charge=   -0.000004    0.000000

     The potential is recalculated from file :
     /home/zfwang/scratch/GNRDATASET/AGNR/F16/F16.save/charge-density.dat


     negative rho (up, down):  1.892E-03 0.000E+00
     Starting wfcs are  144 randomized atomic wfcs +  356 random wfcs

     Band Structure Calculation
     Davidson diagonalization with overlap

     ethr =  6.41E-09,  avg # of iterations = 19.4

     total cpu time spent up to now is     1938.7 secs

     End of band structure calculation

          k = 0.0000 0.0000 0.0000 ( 37391 PWs)   bands (ev):

   -29.4182 -29.4176 -27.8370 -27.8364 -21.2575 -21.1432 -20.8566 -20.4246
   -19.8586 -19.1545 -18.3470 -17.4636 -16.5823 -16.0038 -15.9308 -15.8824
   -15.6890 -15.4454 -15.3256 -15.0815 -14.8636 -14.8434 -14.8005 -14.4099
   -14.4072 -14.2269 -13.5253 -12.7514 -12.6185 -12.5019 -12.3291 -12.0657
   -11.9618 -11.5408 -11.3738 -11.2410 -10.6455 -10.5843 -10.5660 -10.1417
   -10.1412  -9.8817  -9.8456  -9.5881  -9.2734  -9.0960  -9.0008  -8.9408
    -8.7045  -8.5719  -8.4363  -8.0159  -7.8902  -7.8896  -7.8424  -7.8419
    -7.3531  -7.2053  -6.8356  -6.5838  -6.5778  -5.9803  -5.8923  -5.7091
    -5.4076  -5.3172  -5.2103  -5.0341  -4.9627  -4.7685  -4.0171  -3.8198
    -3.7948  -3.4466  -2.9149  -2.8462  -2.2403  -1.9892  -1.3887  -1.2731
    -0.7886  -0.4533  -0.4198  -0.2246  -0.0904   0.6672   1.3320   1.4503
     1.6643   1.8590   1.9975   2.3030   2.8510   2.9510   2.9780   3.1261
     3.1303   3.2897   3.3608   3.4845   3.7227   3.9391   4.0417   4.0908
     4.1068   4.3101   4.4445   4.4555   4.5710   4.6101   4.7540   4.9818
     5.2589   5.4992   5.6368   5.6591   5.6881   5.6961   5.7600   6.1304
     6.2210   6.3199   6.4307   6.5407   6.5953   6.6787   6.9743   6.9812
     6.9876   7.0238   7.1519   7.2025   7.2650   7.3310   7.6713   7.7631
     7.9049   8.0415   8.0569   8.1582   8.3104   8.3533   8.4081   8.5737
     8.6382   8.8210   8.8607   8.8855   8.8978   8.9142   8.9234   8.9824
     9.0586   9.1697   9.1725   9.2390   9.2826   9.3025   9.3544   9.3827
     9.4020   9.4372   9.4469   9.5089   9.5102   9.5954   9.6631   9.7341
     9.8377   9.8473   9.8676   9.8922   9.9904   9.9924  10.0525  10.0642
    10.1482  10.2632  10.3458  10.3464  10.4916  10.5041  10.5388  10.5487
    10.6066  10.6827  10.7089  10.8256  10.8376  10.8557  10.8897  10.9193
    11.0056  11.0107  11.0351  11.0519  11.0694  11.0800  11.1565  11.1676
    11.1745  11.1945  11.2313  11.3061  11.4299  11.4315  11.4326  11.5029
    11.5616  11.5728  11.5887  11.6788  11.6846  11.7858  11.8041  11.8078
    11.8600  11.9312  11.9393  11.9990  12.0454  12.0842  12.1119  12.1322
    12.1404  12.2343  12.3896  12.4321  12.4561  12.4729  12.5132  12.5183
    12.6794  12.6998  12.7111  12.7519  12.7536  12.7694  12.8587  13.0489
    13.1134  13.1626  13.1836  13.3027  13.3442  13.4602  13.4789  13.4972
    13.5885  13.6047  13.6172  13.6987  13.7725  13.7750  13.8124  13.9671
    13.9923  14.0177  14.0722  14.1380  14.1730  14.1791  14.1809  14.3406
    14.4385  14.4532  14.7114  14.7384  14.8195  14.8588  14.8976  15.0318
    15.1533  15.1554  15.2128  15.2141  15.2334  15.3463  15.3860  15.4256
    15.5895  15.6077  15.6318  15.6547  15.7086  15.7617  15.8721  15.9133
    15.9372  16.0052  16.1226  16.1894  16.2208  16.2250  16.2343  16.2417
    16.3005  16.4296  16.4483  16.4907  16.5283  16.5300  16.5957  16.7456
    16.7672  16.7873  16.8070  16.8860  16.9017  16.9095  17.0114  17.0386
    17.0743  17.1063  17.1230  17.1681  17.2079  17.2166  17.2363  17.3028
    17.3028  17.4104  17.4528  17.5050  17.5568  17.5597  17.5892  17.7237
    17.7964  17.8438  17.8476  17.8579  17.9055  17.9109  17.9154  17.9165
    17.9568  17.9591  17.9704  17.9978  18.0468  18.0505  18.0879  18.1175
    18.1415  18.1884  18.2295  18.2411  18.2737  18.3024  18.5223  18.5313
    18.5661  18.6318  18.8217  18.8631  18.9394  18.9906  19.0618  19.0639
    19.1076  19.1425  19.2219  19.2767  19.3623  19.5609  19.6187  19.6216
    19.6743  19.6802  19.6807  19.7723  19.7908  19.8656  19.9396  20.0117
    20.0406  20.0700  20.1336  20.1666  20.2237  20.2934  20.2971  20.3715
    20.3903  20.4061  20.4264  20.5765  20.6188  20.6995  20.7086  20.7429
    20.7494  20.8270  20.9432  20.9778  20.9924  20.9930  21.0173  21.0553
    21.0821  21.1007  21.1183  21.1529  21.2891  21.3137  21.4530  21.4824
    21.5232  21.5971  21.6341  21.7080  21.7465  21.7837  21.7972  21.8834
    21.8836  21.8911  21.9189  21.9249  21.9277  22.0559  22.0966  22.1035
    22.1733  22.1925  22.1972  22.2356  22.2838  22.3840  22.4253  22.4384
    22.4528  22.4873  22.5146  22.6287  22.6876  22.7718  22.7903  22.8231
    22.8281  22.8883  22.9068  22.9151  22.9328  22.9418  22.9435  23.0016
    23.0144  23.0383  23.0479  23.0759  23.1237  23.1307  23.2041  23.3079
    23.4085  23.4648  23.4815  23.4944  23.7800  23.8154  23.8173  23.8758
    24.0068  24.0569  24.0647  24.0706  24.0808  24.1362  24.1918  24.2063
    24.2539  24.2841  24.3041  24.4052  24.4465  24.5928  24.6497  24.7179
    24.7782  24.7831  24.8228  24.8309  24.9938  24.9980  25.0217  25.1466
    25.1841  25.3001  25.3774  25.4421  25.5023  25.5209  25.5214  25.5378
    25.5745  25.6315  25.6839  25.7083

          k = 0.0000 0.0000 0.0047 ( 37419 PWs)   bands (ev):

   -29.4170 -29.4164 -27.8388 -27.8382 -21.2551 -21.1409 -20.8543 -20.4223
   -19.8563 -19.1523 -18.3448 -17.4616 -16.5820 -16.0600 -15.9798 -15.8861
   -15.7112 -15.4617 -15.3211 -15.0489 -14.9024 -14.8051 -14.7709 -14.4043
   -14.3558 -14.2083 -13.5438 -12.7777 -12.6057 -12.4870 -12.3126 -12.0548
   -11.9781 -11.5273 -11.3630 -11.2520 -10.6466 -10.5829 -10.5562 -10.1399
   -10.1394  -9.8978  -9.8324  -9.5796  -9.2706  -9.0958  -8.9981  -8.9469
    -8.6969  -8.5693  -8.4326  -8.0134  -7.9018  -7.8816  -7.8446  -7.8441
    -7.3506  -7.1994  -6.8505  -6.5785  -6.5755  -5.9943  -5.8907  -5.7070
    -5.4163  -5.3200  -5.2110  -5.0362  -4.9710  -4.7669  -4.0331  -3.8371
    -3.7939  -3.4647  -2.9363  -2.8498  -2.2753  -2.0230  -1.3556  -1.2376
    -0.7653  -0.4337  -0.4170  -0.2047  -0.0708   0.6639   1.3352   1.4535
     1.6675   1.8538   2.0006   2.3062   2.8541   2.9539   2.9812   3.1239
     3.1293   3.2924   3.3640   3.4870   3.7258   3.9423   4.0448   4.0940
     4.1101   4.3132   4.4369   4.4583   4.5746   4.6132   4.7567   4.9842
     5.2621   5.5023   5.6384   5.6630   5.6903   5.6986   5.7550   6.1284
     6.2166   6.3145   6.4356   6.5441   6.6065   6.6767   6.9734   6.9780
     6.9919   7.0109   7.1499   7.1859   7.2879   7.3342   7.6557   7.7623
     7.9076   8.0122   8.0492   8.1716   8.3139   8.3574   8.4119   8.5652
     8.6420   8.8019   8.8618   8.8641   8.8957   8.9150   8.9192   8.9880
     9.0602   9.0654   9.1726   9.1755   9.2407   9.2705   9.3066   9.3311
     9.3538   9.3947   9.4387   9.5007   9.6160   9.6665   9.7165   9.7339
     9.8154   9.8339   9.8394   9.9679   9.9852  10.0152  10.0544  10.1004
    10.1193  10.2010  10.2769  10.3471  10.3692  10.4758  10.5410  10.6577
    10.6748  10.6784  10.6838  10.7123  10.8056  10.8289  10.8869  10.9179
    10.9986  11.0055  11.0394  11.0788  11.1386  11.1419  11.1592  11.2269
    11.2327  11.2631  11.2812  11.3239  11.4191  11.4486  11.4563  11.5061
    11.5591  11.5755  11.5772  11.5986  11.6732  11.6900  11.7589  11.7751
    11.7785  11.8305  11.8871  11.9559  11.9589  12.0480  12.1615  12.1626
    12.2438  12.2652  12.3480  12.4115  12.4674  12.4785  12.5685  12.6051
    12.6467  12.7053  12.7248  12.7870  12.8338  12.8392  12.8593  13.0012
    13.0871  13.1667  13.2461  13.3269  13.4127  13.4403  13.4721  13.4949
    13.6087  13.6111  13.6322  13.6926  13.8041  13.8120  13.8131  13.8285
    13.9720  14.0377  14.0911  14.1542  14.1644  14.1776  14.2928  14.4060
    14.4325  14.5025  14.6947  14.7229  14.8463  14.8938  14.9344  15.0503
    15.0689  15.1175  15.1605  15.1726  15.1794  15.3808  15.3890  15.4296
    15.5346  15.6142  15.6213  15.7035  15.7279  15.8752  15.9051  15.9263
    15.9508  15.9614  16.1043  16.1135  16.2108  16.2380  16.2393  16.2633
    16.3463  16.4019  16.4784  16.5470  16.5617  16.5767  16.5910  16.6065
    16.7291  16.7429  16.7881  16.8399  16.9159  16.9271  16.9872  17.0172
    17.0591  17.0894  17.1501  17.1647  17.1940  17.2277  17.2784  17.3504
    17.3757  17.4254  17.4353  17.4536  17.4815  17.5509  17.6004  17.6406
    17.7189  17.7894  17.8174  17.8509  17.8777  17.8811  17.8849  17.9074
    17.9251  17.9375  17.9601  18.0474  18.0855  18.1226  18.1312  18.1655
    18.2288  18.2497  18.2934  18.3568  18.3669  18.3827  18.5180  18.5483
    18.5960  18.6165  18.7691  18.8109  18.8849  18.9529  19.0701  19.0783
    19.1077  19.1202  19.2231  19.3155  19.3627  19.4683  19.6185  19.6441
    19.6704  19.7024  19.7294  19.7454  19.8318  19.9027  19.9071  19.9515
    19.9867  20.0342  20.0560  20.2858  20.3066  20.3107  20.3820  20.3862
    20.4223  20.4469  20.5243  20.6223  20.6697  20.6921  20.7022  20.7440
    20.7520  20.8101  20.9208  20.9297  20.9486  20.9572  21.0053  21.0320
    21.0756  21.1387  21.1668  21.1911  21.2540  21.3511  21.4765  21.4826
    21.5281  21.5959  21.6420  21.6719  21.7123  21.7403  21.7963  21.7986
    21.8770  21.8823  21.9193  21.9472  21.9709  22.0071  22.1008  22.1080
    22.1393  22.1870  22.2114  22.2422  22.2936  22.4041  22.4310  22.4361
    22.4419  22.5177  22.5241  22.6410  22.6694  22.7443  22.8008  22.8495
    22.8560  22.8852  22.9109  22.9205  22.9621  22.9631  22.9702  23.0084
    23.0371  23.0446  23.0563  23.0783  23.1716  23.1825  23.2078  23.3503
    23.4445  23.4662  23.4823  23.5161  23.7483  23.8016  23.8052  23.8123
    23.8811  23.9103  23.9847  24.0718  24.0786  24.1531  24.2080  24.2179
    24.2881  24.3614  24.4030  24.4174  24.4356  24.5793  24.6670  24.6928
    24.7161  24.7442  24.8368  24.8554  24.8969  25.0080  25.0724  25.2171
    25.3024  25.3511  25.3851  25.4399  25.4899  25.4990  25.4995  25.5256
    25.5357  25.6317  25.6555  25.6923

          k = 0.0000 0.0000 0.0094 ( 37427 PWs)   bands (ev):

   -29.4132 -29.4127 -27.8442 -27.8436 -21.2481 -21.1339 -20.8473 -20.4154
   -19.8495 -19.1456 -18.3383 -17.4557 -16.5818 -16.1842 -16.0968 -15.9454
   -15.7423 -15.5509 -15.2775 -15.0486 -14.9139 -14.7077 -14.6915 -14.3788
   -14.2394 -14.1536 -13.5957 -12.8443 -12.5710 -12.4508 -12.2667 -12.0234
   -12.0213 -11.4905 -11.3355 -11.2796 -10.6601 -10.5684 -10.5284 -10.1344
   -10.1339  -9.9311  -9.8069  -9.5549  -9.2622  -9.0987  -8.9901  -8.9607
    -8.6750  -8.5616  -8.4212  -8.0060  -7.9348  -7.8587  -7.8513  -7.8508
    -7.3434  -7.1832  -6.8908  -6.5686  -6.5670  -6.0303  -5.8913  -5.7007
    -5.4413  -5.3282  -5.2126  -5.0427  -4.9961  -4.7622  -4.0802  -3.8864
    -3.7924  -3.5175  -2.9980  -2.8608  -2.3681  -2.1087  -1.2724  -1.1431
    -0.6981  -0.4145  -0.3701  -0.1462  -0.0130   0.6542   1.3448   1.4629
     1.6768   1.8381   2.0098   2.3158   2.8632   2.9628   2.9908   3.1051
     3.1389   3.3006   3.3737   3.4944   3.7353   3.9519   4.0544   4.1037
     4.1198   4.3225   4.4149   4.4669   4.5851   4.6223   4.7649   4.9911
     5.2715   5.5116   5.6417   5.6746   5.6965   5.7061   5.7420   6.1209
     6.2039   6.3031   6.4492   6.5542   6.6375   6.6709   6.9516   6.9745
     6.9892   7.0032   7.1310   7.1796   7.3218   7.3438   7.6112   7.7659
     7.9133   7.9397   8.0261   8.1988   8.3243   8.3699   8.4234   8.5303
     8.6532   8.7313   8.7864   8.7890   8.8601   8.8743   8.8902   8.9339
     9.0040   9.0648   9.0690   9.1812   9.1825   9.2113   9.2449   9.3131
     9.3381   9.3520   9.4228   9.4759   9.5369   9.6226   9.6554   9.7830
     9.8437   9.8985   9.9355   9.9624   9.9750   9.9825  10.0107  10.0433
    10.1290  10.1347  10.1825  10.3533  10.4060  10.4177  10.4759  10.5358
    10.6453  10.6548  10.7118  10.8146  10.8328  10.8390  10.8959  10.9493
    11.0072  11.0265  11.0344  11.1082  11.1402  11.1512  11.2441  11.2868
    11.3278  11.3367  11.3704  11.3718  11.3868  11.4423  11.4745  11.4810
    11.5428  11.5587  11.5731  11.5771  11.5897  11.6055  11.6651  11.6798
    11.6898  11.7303  11.8700  11.8814  11.9076  11.9700  12.0138  12.1627
    12.1639  12.3396  12.3515  12.4829  12.4868  12.5589  12.5680  12.6275
    12.7049  12.7418  12.7813  12.7946  12.8120  12.9886  13.0625  13.1386
    13.1673  13.1810  13.2041  13.2962  13.3852  13.3921  13.5018  13.5585
    13.6247  13.6575  13.7170  13.7305  13.7547  13.7822  13.8554  13.9383
    14.0080  14.0757  14.1120  14.1375  14.1977  14.2211  14.3334  14.4121
    14.4648  14.7063  14.7425  14.7619  14.7706  14.8875  14.9341  14.9692
    14.9910  15.0290  15.1365  15.1379  15.2500  15.3428  15.4194  15.4432
    15.4542  15.5996  15.6411  15.7341  15.8596  15.8603  15.9207  15.9411
    15.9485  16.0316  16.0406  16.1093  16.2211  16.2313  16.2704  16.3263
    16.3541  16.3841  16.4920  16.5114  16.5148  16.6032  16.6216  16.6278
    16.6534  16.7377  16.7596  16.7948  16.8499  16.8829  16.9780  16.9868
    16.9896  17.0522  17.0931  17.2280  17.2319  17.2319  17.2368  17.3166
    17.3230  17.3780  17.4666  17.4717  17.5242  17.5677  17.6081  17.6234
    17.6648  17.6905  17.6931  17.7586  17.8288  17.8307  17.8475  17.8617
    17.9225  18.0072  18.0859  18.1084  18.1328  18.1948  18.2030  18.2584
    18.3274  18.3568  18.4019  18.5114  18.5282  18.5515  18.5551  18.5849
    18.6517  18.6615  18.6901  18.7274  18.7781  18.9536  18.9624  19.1271
    19.1498  19.1697  19.1753  19.3520  19.3593  19.3776  19.5237  19.6127
    19.6470  19.6814  19.7474  19.7862  19.8261  19.8813  19.9308  20.0074
    20.0394  20.0486  20.0838  20.3555  20.3692  20.3849  20.4373  20.4581
    20.5326  20.6219  20.6262  20.6557  20.6721  20.7352  20.7365  20.7702
    20.7739  20.8180  20.8524  20.8580  20.9411  20.9543  21.0213  21.0408
    21.0527  21.1063  21.2445  21.2463  21.2516  21.3686  21.4663  21.5244
    21.5319  21.5620  21.5806  21.6161  21.6314  21.6777  21.7354  21.7849
    21.8473  21.8629  21.8987  21.9499  21.9806  22.0243  22.0405  22.1231
    22.1531  22.1722  22.2016  22.2152  22.3243  22.3447  22.4261  22.4918
    22.5257  22.5349  22.6101  22.6122  22.7054  22.7915  22.8499  22.8648
    22.8704  22.8713  22.8932  22.9039  22.9464  23.0156  23.0175  23.0479
    23.0771  23.1223  23.1347  23.1467  23.2014  23.2380  23.2769  23.4565
    23.4608  23.4974  23.5183  23.5880  23.6373  23.6433  23.6915  23.7676
    23.7782  23.8854  23.9131  23.9582  24.0714  24.1596  24.2285  24.2532
    24.2944  24.3667  24.3954  24.3960  24.4429  24.4637  24.6349  24.6667
    24.7155  24.7581  24.9310  24.9494  24.9637  24.9939  25.0749  25.3127
    25.3344  25.3713  25.3962  25.4067  25.4319  25.4377  25.4419  25.5325
    25.5354  25.6445  25.6549  25.6982

          k = 0.0000 0.0000 0.0141 ( 37421 PWs)   bands (ev):

   -29.4070 -29.4065 -27.8531 -27.8525 -21.2363 -21.1221 -20.8356 -20.4038
   -19.8380 -19.1344 -18.3274 -17.4460 -16.5854 -16.3388 -16.2404 -16.0683
   -15.7584 -15.6855 -15.2383 -15.1693 -14.7902 -14.6431 -14.5357 -14.3191
   -14.0979 -14.0644 -13.6724 -12.9344 -12.5233 -12.4029 -12.1982 -12.0793
   -11.9745 -11.4371 -11.3482 -11.2657 -10.6934 -10.5330 -10.4862 -10.1253
   -10.1248  -9.9751  -9.7738  -9.5167  -9.2484  -9.1153  -8.9768  -8.9684
    -8.6419  -8.5488  -8.4021  -7.9935  -7.9850  -7.8623  -7.8618  -7.8239
    -7.3313  -7.1609  -6.9486  -6.5571  -6.5570  -6.0811  -5.9004  -5.6903
    -5.4809  -5.3429  -5.2159  -5.0542  -5.0377  -4.7543  -4.1556  -3.9645
    -3.7906  -3.6009  -3.0931  -2.8794  -2.4962  -2.2221  -1.1631  -1.0123
    -0.5937  -0.4050  -0.2737  -0.0520   0.0803   0.6383   1.3609   1.4787
     1.6924   1.8124   2.0251   2.3317   2.8784   2.9777   3.0068   3.0741
     3.1549   3.3142   3.3897   3.5068   3.7510   3.9681   4.0704   4.1198
     4.1359   4.3379   4.3793   4.4810   4.6019   4.6374   4.7784   5.0026
     5.2872   5.5271   5.6387   5.6936   5.7067   5.7184   5.7288   6.1053
     6.1838   6.2947   6.4698   6.5702   6.6622   6.6840   6.9158   6.9198
     7.0078   7.0218   7.1000   7.1926   7.3392   7.3597   7.5577   7.7778
     7.8253   7.9325   7.9881   8.2243   8.3414   8.3905   8.4412   8.4424
     8.4794   8.6320   8.6574   8.6717   8.7443   8.8500   8.8907   8.9580
     9.0251   9.0261   9.0325   9.0735   9.1928   9.1956   9.2241   9.2472
     9.3181   9.3497   9.3627   9.4349   9.4989   9.5319   9.6654   9.6823
     9.7595   9.7903   9.8472   9.8523   9.8766   9.8972   9.9777  10.0442
    10.0819  10.1402  10.2344  10.3364  10.4070  10.4139  10.5095  10.5815
    10.6829  10.7187  10.7650  10.8313  10.8558  10.9101  10.9150  10.9411
    10.9788  11.0007  11.0232  11.0768  11.0809  11.1548  11.2209  11.2428
    11.2504  11.3006  11.3503  11.3553  11.3617  11.4666  11.5259  11.5348
    11.5352  11.5432  11.5774  11.6170  11.6384  11.6396  11.6696  11.6721
    11.6726  11.7053  11.7380  11.7387  11.9578  11.9644  11.9894  12.0656
    12.2270  12.2421  12.2437  12.3400  12.5013  12.5036  12.6022  12.6946
    12.7561  12.7771  12.8769  12.9517  13.0067  13.0263  13.0785  13.2014
    13.2111  13.2251  13.3265  13.3810  13.3890  13.4505  13.5208  13.5294
    13.5417  13.7327  13.8365  13.8517  13.8588  13.8664  13.9748  14.0161
    14.0727  14.1033  14.1566  14.1956  14.2701  14.3026  14.3049  14.3844
    14.4525  14.6384  14.7205  14.7478  14.7967  14.8822  14.8839  14.9344
    14.9402  15.0688  15.2163  15.2414  15.3482  15.3644  15.3682  15.4475
    15.4819  15.5272  15.5704  15.7205  15.8731  15.9153  15.9355  15.9373
    15.9854  16.0020  16.0954  16.1608  16.2013  16.2171  16.2512  16.3467
    16.3505  16.3817  16.4320  16.4976  16.5289  16.5659  16.5950  16.6276
    16.6743  16.7437  16.7857  16.7860  16.8073  16.8550  16.9053  16.9263
    16.9362  17.0103  17.0564  17.0820  17.1561  17.1642  17.2855  17.3227
    17.3590  17.3882  17.4892  17.4983  17.5045  17.5404  17.5961  17.6040
    17.6121  17.6434  17.6882  17.7712  17.8039  17.8733  17.8788  17.8986
    17.9324  18.1406  18.1507  18.1738  18.1830  18.2001  18.2615  18.2680
    18.2795  18.3974  18.4269  18.5008  18.5842  18.6256  18.6341  18.6419
    18.6690  18.7558  18.7981  18.8827  18.9234  18.9774  18.9958  19.0355
    19.2097  19.2339  19.2421  19.2607  19.3352  19.3708  19.4829  19.5781
    19.6030  19.6685  19.6820  19.7498  19.8952  19.9167  19.9676  20.0924
    20.1068  20.1413  20.2217  20.4361  20.4458  20.4531  20.4882  20.5518
    20.5669  20.5815  20.6094  20.6710  20.7567  20.7623  20.7681  20.7726
    20.8266  20.8277  20.8731  20.9402  20.9727  21.0201  21.0576  21.0731
    21.1180  21.1344  21.2570  21.2932  21.2939  21.3347  21.3740  21.4920
    21.5206  21.5293  21.5322  21.5984  21.6118  21.6473  21.7281  21.7319
    21.7545  21.8549  21.8910  21.8976  21.9347  21.9834  22.0230  22.1317
    22.1756  22.2447  22.2457  22.2641  22.3012  22.3841  22.4409  22.5368
    22.5653  22.5767  22.6682  22.6773  22.7210  22.7594  22.7802  22.8591
    22.8806  22.8894  22.9108  22.9346  22.9730  23.0693  23.0830  23.1207
    23.1629  23.1780  23.2023  23.2091  23.2695  23.2806  23.3337  23.3654
    23.3997  23.5161  23.5239  23.5329  23.5697  23.7106  23.7468  23.7534
    23.7981  23.8405  23.8873  24.0461  24.0611  24.0769  24.1872  24.2426
    24.2578  24.2794  24.3080  24.3348  24.3845  24.4594  24.5697  24.6327
    24.6992  24.8139  24.9724  25.0275  25.0924  25.1200  25.1396  25.1937
    25.2647  25.2882  25.2996  25.3165  25.3373  25.4665  25.4949  25.5197
    25.5469  25.6257  25.6379  25.6852

          k = 0.0000 0.0000 0.0188 ( 37417 PWs)   bands (ev):

   -29.3983 -29.3978 -27.8656 -27.8650 -21.2197 -21.1057 -20.8193 -20.3877
   -19.8221 -19.1187 -18.3122 -17.4326 -16.6062 -16.5082 -16.3796 -16.2210
   -15.8368 -15.7763 -15.3009 -15.2389 -14.6425 -14.5841 -14.3558 -14.2227
   -13.9467 -13.9441 -13.7635 -13.0387 -12.4787 -12.3473 -12.1334 -12.1122
   -11.9130 -11.4084 -11.3713 -11.2021 -10.7414 -10.4813 -10.4338 -10.1126
   -10.1121 -10.0284  -9.7319  -9.4682  -9.2289  -9.1552  -8.9581  -8.9569
    -8.6014  -8.5308  -8.3757  -8.0468  -7.9762  -7.8776  -7.8771  -7.7809
    -7.3145  -7.1372  -7.0184  -6.5542  -6.5409  -6.1430  -5.9204  -5.6757
    -5.5336  -5.3644  -5.2219  -5.0954  -5.0714  -4.7433  -4.2555  -4.0674
    -3.7887  -3.7097  -3.2135  -2.9063  -2.6426  -2.3492  -1.0417  -0.8616
    -0.4603  -0.3914  -0.1464   0.0733   0.2052   0.6170   1.3834   1.5008
     1.7142   1.7772   2.0466   2.3540   2.8996   2.9984   3.0271   3.0337
     3.1773   3.3333   3.4122   3.5241   3.7730   3.9906   4.0927   4.1424
     4.1585   4.3313   4.3596   4.5008   4.6248   4.6583   4.7973   5.0185
     5.3091   5.5487   5.6150   5.7199   5.7202   5.7309   5.7353   6.0802
     6.1577   6.2946   6.4965   6.5911   6.6529   6.7430   6.8542   6.8664
     7.0337   7.0475   7.0607   7.2143   7.3247   7.3821   7.5256   7.6902
     7.7964   7.9354   7.9513   8.1477   8.2913   8.2937   8.3649   8.3800
     8.4187   8.4684   8.5058   8.6971   8.7268   8.7952   8.8454   8.9130
     8.9256   8.9901   9.0408   9.0947   9.1135   9.2157   9.2159   9.2362
     9.3072   9.3519   9.3548   9.3651   9.3777   9.4224   9.5345   9.6200
     9.6281   9.6544   9.6566   9.8100   9.8184   9.8422   9.9018   9.9438
     9.9921  10.0109  10.2676  10.3645  10.3889  10.4799  10.6386  10.7123
    10.7248  10.7439  10.7924  10.8064  10.8187  10.8732  10.8789  10.9081
    10.9170  10.9356  10.9409  11.0501  11.0560  11.0860  11.2015  11.2060
    11.3030  11.3045  11.3114  11.3579  11.3864  11.4134  11.4195  11.4656
    11.5531  11.5608  11.5617  11.6169  11.6653  11.6955  11.7021  11.7070
    11.7271  11.7696  11.7929  11.8907  11.9122  11.9399  11.9407  12.0372
    12.1276  12.1769  12.2081  12.3458  12.4579  12.5214  12.6026  12.7689
    12.7784  12.7936  12.8068  12.8124  13.0679  13.0781  13.1843  13.3017
    13.3040  13.3320  13.3571  13.4092  13.5597  13.5946  13.6078  13.6589
    13.6720  13.7632  13.9031  13.9512  13.9535  14.0377  14.0402  14.0676
    14.1360  14.1366  14.2451  14.2566  14.2810  14.3288  14.3733  14.4239
    14.5115  14.5386  14.5903  14.6187  14.7727  14.8222  14.8665  14.9213
    15.1260  15.2191  15.2439  15.2483  15.3859  15.3952  15.4320  15.4744
    15.5131  15.5613  15.5938  15.6028  15.7704  15.9049  15.9566  15.9954
    16.0291  16.0742  16.0931  16.1499  16.1792  16.1971  16.2154  16.3172
    16.3467  16.3518  16.4782  16.5035  16.5257  16.5428  16.5579  16.6198
    16.6670  16.6864  16.7131  16.7244  16.7561  16.7846  16.8491  16.8705
    16.8868  17.0375  17.0417  17.0897  17.1855  17.2537  17.2843  17.3007
    17.3542  17.3808  17.3908  17.4631  17.4743  17.5005  17.5402  17.6706
    17.7008  17.7060  17.7652  17.7671  17.8141  17.8841  17.9407  17.9586
    17.9754  18.0723  18.1212  18.1228  18.2039  18.2113  18.2347  18.3142
    18.3222  18.3868  18.4973  18.5058  18.5574  18.6472  18.7462  18.7534
    18.7546  18.7683  18.8052  19.0186  19.0482  19.1204  19.1481  19.1755
    19.2291  19.2562  19.2728  19.3177  19.3665  19.4864  19.5255  19.5538
    19.6082  19.6803  19.6908  19.7773  19.9048  19.9305  19.9429  20.1139
    20.1496  20.2317  20.3605  20.5016  20.5126  20.5597  20.5612  20.5699
    20.5867  20.6171  20.6268  20.6896  20.7180  20.7785  20.7874  20.8040
    20.8202  20.8505  20.8803  20.9578  20.9734  21.0855  21.1316  21.1445
    21.2280  21.2373  21.2675  21.2815  21.3050  21.3441  21.3944  21.4181
    21.5071  21.5152  21.5419  21.5799  21.6370  21.6748  21.6928  21.7039
    21.7872  21.8051  21.8616  21.9109  21.9354  21.9758  22.0101  22.1074
    22.1758  22.2636  22.3328  22.3393  22.3505  22.4614  22.4826  22.5484
    22.5817  22.6314  22.6721  22.6798  22.7088  22.7269  22.7691  22.7720
    22.8639  22.9424  22.9510  23.0104  23.0151  23.0889  23.1193  23.1308
    23.1617  23.2062  23.2199  23.2221  23.2348  23.2375  23.2544  23.4773
    23.4830  23.5260  23.5582  23.5650  23.5761  23.7509  23.7522  23.7625
    23.8685  23.9237  23.9435  23.9660  24.0547  24.1361  24.1656  24.1975
    24.2122  24.2879  24.2922  24.3125  24.3566  24.4914  24.5277  24.5974
    24.6317  24.7417  24.9141  24.9578  25.0463  25.0480  25.1300  25.1873
    25.1877  25.2849  25.3474  25.3500  25.3552  25.3914  25.5034  25.5043
    25.5384  25.5789  25.6989  25.7030

          k = 0.0000 0.0000 0.0235 ( 37445 PWs)   bands (ev):

   -29.3872 -29.3867 -27.8814 -27.8808 -21.1985 -21.0847 -20.7984 -20.3669
   -19.8016 -19.0985 -18.2928 -17.4158 -16.6849 -16.6844 -16.4677 -16.3857
   -15.9925 -15.8106 -15.4211 -15.2825 -14.5288 -14.4917 -14.1608 -14.0967
   -13.8807 -13.7996 -13.7705 -13.1517 -12.4681 -12.2865 -12.1512 -12.0127
   -11.8429 -11.4792 -11.2960 -11.1242 -10.7986 -10.4172 -10.3752 -10.0964
   -10.0959 -10.0885  -9.6808  -9.4130  -9.2146  -9.2039  -8.9342  -8.9265
    -8.5571  -8.5077  -8.3456  -8.1128  -7.9541  -7.8970  -7.8964  -7.7337
    -7.2928  -7.1163  -7.0968  -6.5613  -6.5202  -6.2137  -5.9518  -5.6571
    -5.5982  -5.3928  -5.2318  -5.1682  -5.0945  -4.7296  -4.3757  -4.1905
    -3.8381  -3.7871  -3.3517  -2.9447  -2.7948  -2.4832  -0.9145  -0.7018
    -0.3718  -0.3053   0.0061   0.2250   0.3574   0.5911   1.4123   1.5292
     1.7332   1.7422   2.0742   2.3825   2.9268   2.9780   3.0248   3.0584
     3.2061   3.3577   3.4410   3.5462   3.8011   4.0195   4.1214   4.1715
     4.1876   4.2718   4.3873   4.5260   4.6538   4.6849   4.8214   5.0386
     5.3373   5.5682   5.5761   5.7359   5.7510   5.7530   5.7561   6.0475
     6.1280   6.3035   6.5277   6.6143   6.6480   6.7834   6.8040   6.8151
     7.0006   7.0666   7.0804   7.2420   7.2979   7.4105   7.5116   7.5377
     7.8187   7.8688   7.8812   7.9765   8.0861   8.1615   8.2203   8.3755
     8.3946   8.4534   8.5007   8.6816   8.7131   8.7143   8.7359   8.7425
     8.9408   9.0267   9.0271   9.0329   9.1141   9.1331   9.1952   9.2416
     9.2582   9.2961   9.3046   9.3275   9.3383   9.3654   9.3831   9.3956
     9.3981   9.5798   9.6219   9.6676   9.7294   9.7508   9.8181   9.9816
    10.0026  10.0154  10.1589  10.3390  10.3486  10.4692  10.4818  10.5431
    10.5925  10.6514  10.6910  10.7423  10.8178  10.9037  10.9072  10.9193
    10.9666  10.9925  11.0298  11.0414  11.0984  11.0987  11.1408  11.1491
    11.2009  11.2349  11.3346  11.3976  11.4284  11.4575  11.4779  11.5368
    11.5473  11.5748  11.6028  11.6221  11.6610  11.7009  11.7169  11.7195
    11.7592  11.7632  11.8062  11.8205  11.9027  11.9518  12.0223  12.0235
    12.1287  12.1771  12.1967  12.4446  12.5031  12.5507  12.5626  12.6300
    12.6677  12.7566  12.8543  12.8932  12.9141  13.0472  13.2701  13.3487
    13.3852  13.4850  13.5878  13.5971  13.6037  13.7086  13.7803  13.7815
    13.7950  13.8567  13.9791  13.9962  14.0483  14.0664  14.1356  14.1381
    14.1784  14.1875  14.1980  14.2312  14.3450  14.3704  14.4095  14.4247
    14.4995  14.6491  14.7445  14.7536  14.7640  14.8049  14.8377  14.8881
    15.1197  15.1728  15.1746  15.2890  15.3076  15.4528  15.5045  15.5073
    15.5798  15.6571  15.6599  15.7019  15.8025  15.8176  15.9566  15.9946
    16.0150  16.0318  16.1106  16.1394  16.1892  16.1895  16.1995  16.3761
    16.3770  16.3930  16.4116  16.4751  16.4782  16.4806  16.5236  16.5776
    16.6113  16.6511  16.6790  16.7201  16.7263  16.7334  16.7779  16.7832
    16.8883  17.0685  17.0720  17.1447  17.2150  17.2254  17.2548  17.3114
    17.3694  17.3925  17.4309  17.4526  17.4668  17.5600  17.5698  17.6596
    17.7473  17.7605  17.7959  17.8595  17.8827  17.8832  17.9104  17.9439
    17.9680  17.9844  18.0318  18.0373  18.0961  18.2502  18.2539  18.3552
    18.4158  18.4575  18.5061  18.5550  18.6348  18.6663  18.7194  18.8326
    18.8940  18.9001  18.9059  18.9344  19.0087  19.2364  19.2499  19.2514
    19.3447  19.4294  19.4402  19.4855  19.4957  19.6033  19.6564  19.6643
    19.7079  19.7222  19.7311  19.8087  19.8509  19.8693  19.9599  20.1210
    20.2052  20.2975  20.4123  20.5312  20.5515  20.5609  20.5659  20.5799
    20.6543  20.6700  20.7218  20.7286  20.7629  20.8037  20.8050  20.8420
    20.8441  20.8582  20.9339  20.9350  20.9454  21.0901  21.1519  21.1563
    21.1593  21.2024  21.2245  21.2331  21.3788  21.4178  21.4451  21.5106
    21.5239  21.5565  21.5622  21.6351  21.7315  21.7444  21.7966  21.8046
    21.8181  21.8630  21.8787  21.8965  21.9338  21.9756  22.0894  22.1072
    22.1887  22.2463  22.3456  22.3914  22.4094  22.4606  22.5308  22.5460
    22.5472  22.6042  22.6159  22.6908  22.7268  22.7491  22.7492  22.7973
    22.8440  22.8502  22.9153  23.0091  23.0191  23.0767  23.1187  23.1277
    23.1682  23.2183  23.2479  23.2583  23.2722  23.2785  23.3020  23.4465
    23.5018  23.5559  23.5773  23.6075  23.7150  23.7641  23.7707  23.8273
    23.8414  23.8530  24.0238  24.0347  24.0418  24.1136  24.1342  24.2581
    24.2917  24.3247  24.3478  24.3686  24.4657  24.5334  24.5372  24.5855
    24.6027  24.6492  24.7816  24.8194  24.8399  24.8777  25.0013  25.0866
    25.2327  25.2637  25.3342  25.3443  25.3463  25.4322  25.4484  25.4713
    25.6695  25.7061  25.7295  25.7553

          k = 0.0000 0.0000 0.0282 ( 37450 PWs)   bands (ev):

   -29.3737 -29.3732 -27.9005 -27.8999 -21.1726 -21.0589 -20.7728 -20.3416
   -19.7765 -19.0739 -18.2691 -17.3964 -16.8630 -16.8279 -16.5550 -16.4995
   -16.1433 -15.8759 -15.5141 -15.3589 -14.4772 -14.3456 -13.9860 -13.9500
   -13.9497 -13.6385 -13.6076 -13.2693 -12.5148 -12.2229 -12.1084 -11.9039
   -11.7674 -11.5522 -11.2151 -11.0368 -10.8594 -10.3434 -10.3170 -10.1493
   -10.0767 -10.0762  -9.6206  -9.3541  -9.2857  -9.1734  -8.9049  -8.8821
    -8.5119  -8.4796  -8.3272  -8.1651  -7.9305  -7.9203  -7.9163  -7.6856
    -7.2663  -7.1816  -7.1013  -6.5799  -6.4950  -6.2918  -5.9941  -5.6736
    -5.6344  -5.4280  -5.2644  -5.2374  -5.1236  -4.7136  -4.5116  -4.3292
    -3.9813  -3.7873  -3.5006  -3.0171  -2.9250  -2.6209  -0.7849  -0.5432
    -0.3408  -0.1350   0.1787   0.3984   0.5327   0.5622   1.4476   1.5639
     1.6812   1.7763   2.1078   2.4174   2.9147   2.9597   3.0570   3.0936
     3.2413   3.3874   3.4762   3.5730   3.8352   4.0548   4.1565   4.2019
     4.2069   4.2231   4.4212   4.5565   4.6887   4.7167   4.8507   5.0624
     5.3717   5.5059   5.6090   5.7524   5.7796   5.7828   5.7928   6.0111
     6.0979   6.3189   6.5620   6.6300   6.6587   6.7170   6.7293   6.8971
     6.9163   7.1064   7.1201   7.2678   7.2941   7.3755   7.4467   7.4762
     7.6084   7.7887   7.8223   7.8729   7.9614   7.9963   8.0528   8.3371
     8.4305   8.4795   8.4918   8.5230   8.5385   8.6369   8.7552   8.7751
     8.8689   8.9728   8.9851   8.9919   9.0479   9.0809   9.1120   9.1342
     9.1715   9.1843   9.2176   9.2299   9.2685   9.2739   9.2766   9.3307
     9.3933   9.4232   9.6186   9.6305   9.6477   9.7245   9.7782  10.0183
    10.0316  10.0425  10.0901  10.2006  10.2009  10.2498  10.2501  10.3385
    10.4021  10.5482  10.6444  10.7652  10.8117  10.8354  10.8585  10.8851
    10.9187  10.9313  10.9985  11.0062  11.0194  11.1615  11.2218  11.3083
    11.3311  11.3330  11.3655  11.3973  11.4446  11.4587  11.5102  11.5373
    11.5551  11.5766  11.5853  11.6416  11.6559  11.6791  11.7104  11.7956
    11.7995  11.8037  11.8251  11.8336  11.8477  12.0533  12.0539  12.0799
    12.1042  12.2054  12.3324  12.3470  12.3611  12.5292  12.5769  12.6254
    12.6618  12.7741  12.8475  12.8902  12.9484  13.2079  13.2498  13.3305
    13.3778  13.6100  13.6140  13.7048  13.8122  13.8444  13.8578  13.8770
    13.9559  13.9902  14.0003  14.0061  14.0611  14.0890  14.1404  14.1483
    14.1652  14.2057  14.2587  14.3234  14.3907  14.4150  14.5149  14.5982
    14.6410  14.6824  14.7584  14.7810  14.7995  14.9900  15.0076  15.0101
    15.0286  15.1285  15.1352  15.2192  15.2247  15.4257  15.5150  15.5507
    15.6051  15.6160  15.6746  15.7404  15.7983  15.9084  15.9797  16.0365
    16.0958  16.1113  16.1308  16.1628  16.1826  16.1907  16.2371  16.2487
    16.3006  16.3978  16.4011  16.4093  16.4175  16.4620  16.5430  16.5496
    16.6171  16.6446  16.6600  16.6690  16.7354  16.7799  16.8126  16.9091
    16.9549  16.9825  17.0367  17.0586  17.1206  17.1611  17.1749  17.3632
    17.4017  17.4416  17.4817  17.5424  17.5870  17.5886  17.6445  17.7006
    17.7276  17.7646  17.7715  17.8060  17.8087  17.8641  17.8760  17.9553
    17.9673  17.9890  18.0347  18.0348  18.2258  18.2643  18.2998  18.3064
    18.3349  18.5108  18.5594  18.5654  18.6984  18.7952  18.8045  18.8639
    18.9190  19.0171  19.0366  19.0371  19.0452  19.2969  19.3299  19.3591
    19.3629  19.5535  19.5810  19.6006  19.6043  19.6675  19.7429  19.7922
    19.7961  19.8077  19.8465  19.8747  19.9468  20.0359  20.0526  20.1791
    20.2453  20.3542  20.3607  20.4311  20.5206  20.5617  20.6195  20.6268
    20.6753  20.7056  20.7401  20.7852  20.8166  20.8178  20.8321  20.8359
    20.9068  20.9196  20.9454  20.9644  21.0129  21.0150  21.0543  21.1460
    21.1780  21.2036  21.2170  21.2598  21.3705  21.4426  21.4834  21.5158
    21.6257  21.6460  21.6897  21.7534  21.7745  21.8032  21.8278  21.8436
    21.9343  21.9409  21.9569  22.0243  22.0469  22.0813  22.1210  22.1818
    22.2417  22.2658  22.2909  22.3504  22.4323  22.4395  22.4700  22.4748
    22.5644  22.6055  22.6073  22.6233  22.6437  22.7046  22.7374  22.8265
    22.8374  22.8925  22.8967  22.9410  23.0608  23.0803  23.1163  23.1668
    23.1808  23.2182  23.2669  23.2894  23.3376  23.3519  23.4424  23.4437
    23.4513  23.4774  23.5574  23.6240  23.7131  23.7493  23.7627  23.8335
    23.9568  23.9896  23.9927  24.0161  24.1325  24.1508  24.2381  24.2526
    24.3252  24.3699  24.4027  24.4360  24.4842  24.5211  24.5373  24.6286
    24.6316  24.6543  24.6742  24.7547  24.7742  24.8614  24.8974  25.0119
    25.1292  25.2008  25.2311  25.2820  25.3451  25.3900  25.4046  25.5686
    25.7280  25.7562  25.7616  25.7693

          k = 0.0000 0.0000 0.0329 ( 37428 PWs)   bands (ev):

   -29.3579 -29.3573 -27.9228 -27.9222 -21.1419 -21.0285 -20.7426 -20.3116
   -19.7469 -19.0449 -18.2413 -17.3764 -17.0401 -16.9931 -16.7248 -16.5316
   -16.2705 -15.9779 -15.5738 -15.4570 -14.4291 -14.2092 -14.0864 -13.7917
   -13.7392 -13.4776 -13.4322 -13.3765 -12.5998 -12.1619 -12.0240 -11.7936
   -11.6880 -11.6147 -11.1407 -10.9420 -10.9110 -10.2904 -10.2616 -10.1798
   -10.0536 -10.0531  -9.5517  -9.3648  -9.2926  -9.1374  -8.8703  -8.8268
    -8.4665  -8.4463  -8.3580  -8.1662  -7.9491  -7.9475  -7.8927  -7.6396
    -7.2711  -7.2350  -7.0947  -6.6106  -6.4653  -6.3761  -6.0468  -5.7593
    -5.6078  -5.4704  -5.3633  -5.2593  -5.1582  -4.7006  -4.6546  -4.4798
    -4.1348  -3.7959  -3.6497  -3.1575  -2.9962  -2.7603  -0.6544  -0.4142
    -0.2725   0.0447   0.3671   0.5283   0.5939   0.7273   1.4893   1.6049
     1.6224   1.8167   2.1474   2.4584   2.8426   2.9984   3.0946   3.1352
     3.2829   3.4225   3.5177   3.6045   3.8747   4.0965   4.1232   4.1979
     4.2489   4.2651   4.4610   4.5922   4.7298   4.7529   4.8850   5.0897
     5.4121   5.4329   5.6462   5.7673   5.8023   5.8231   5.8389   5.9769
     6.0718   6.3386   6.5963   6.6373   6.6430   6.6573   6.6800   6.8274
     6.9898   7.1529   7.1666   7.2163   7.2708   7.3166   7.3402   7.3847
     7.4867   7.6593   7.6961   7.7552   7.7943   7.9381   8.0377   8.2497
     8.2500   8.3724   8.4723   8.5257   8.5369   8.5815   8.7112   8.7689
     8.7960   8.8230   8.8793   8.9130   8.9374   8.9631   9.0107   9.0428
     9.0515   9.0594   9.0860   9.1119   9.1249   9.2480   9.3116   9.3291
     9.4287   9.4586   9.5803   9.6225   9.6599   9.7344   9.7494   9.8958
     9.9306  10.0142  10.0428  10.0501  10.0604  10.0897  10.1061  10.1633
    10.1719  10.4481  10.5389  10.6493  10.6615  10.8137  10.8300  10.8636
    10.8747  10.9791  11.0019  11.0131  11.0387  11.1361  11.1754  11.2004
    11.2766  11.3425  11.3794  11.4517  11.4621  11.4678  11.5200  11.5815
    11.6140  11.6245  11.6896  11.7007  11.7061  11.7260  11.7472  11.8141
    11.8197  11.8443  11.8971  11.9557  11.9948  12.0239  12.0987  12.1372
    12.1695  12.1767  12.1985  12.2236  12.3264  12.5053  12.5978  12.6778
    12.6900  12.7180  12.9075  12.9490  13.1149  13.1609  13.2404  13.3382
    13.4843  13.5432  13.6276  13.7536  13.7804  13.8526  13.8551  14.0004
    14.0217  14.0994  14.1001  14.1309  14.1310  14.1324  14.1799  14.2189
    14.2511  14.2529  14.3149  14.3897  14.4922  14.5451  14.6169  14.6329
    14.7055  14.7091  14.7167  14.8546  14.8671  15.0955  15.1015  15.1029
    15.1133  15.1562  15.2263  15.2762  15.3691  15.4034  15.4500  15.4896
    15.5135  15.5701  15.6283  15.6859  15.8730  15.9703  15.9772  15.9870
    16.0255  16.0576  16.1463  16.1501  16.1855  16.2830  16.3302  16.3402
    16.3547  16.3834  16.3990  16.4221  16.4845  16.5024  16.5171  16.5261
    16.6205  16.6787  16.6902  16.7170  16.7466  16.8411  16.8882  16.9023
    16.9442  16.9747  17.0177  17.0282  17.0692  17.1505  17.2025  17.3207
    17.3314  17.3942  17.4299  17.5068  17.6267  17.6451  17.6807  17.7026
    17.7097  17.7430  17.8002  17.8451  17.8958  17.9084  17.9405  17.9688
    17.9956  18.0071  18.0220  18.0320  18.2048  18.2306  18.3205  18.3519
    18.4423  18.5247  18.6585  18.7105  18.7338  18.7709  18.8859  18.9011
    18.9642  19.1177  19.1258  19.1964  19.3294  19.3486  19.3702  19.3739
    19.4364  19.5181  19.5486  19.5923  19.6252  19.7873  19.8572  19.8747
    19.9249  19.9466  20.0055  20.0101  20.1680  20.2156  20.2330  20.2519
    20.2800  20.3335  20.4167  20.4872  20.5383  20.5602  20.5992  20.6063
    20.6138  20.6743  20.7086  20.8064  20.8074  20.8723  20.8820  20.8870
    20.9066  20.9309  20.9659  20.9900  21.0553  21.0750  21.1147  21.2105
    21.2166  21.2623  21.3161  21.3202  21.3654  21.4680  21.4725  21.5649
    21.6730  21.7075  21.7253  21.7468  21.8013  21.8448  21.8674  21.8910
    22.0065  22.0777  22.0867  22.1351  22.1701  22.1837  22.1911  22.2317
    22.2444  22.2760  22.3080  22.3240  22.3673  22.3720  22.4569  22.4602
    22.5522  22.5695  22.5898  22.6211  22.6876  22.7044  22.7937  22.8240
    22.8405  22.8795  22.9118  22.9623  23.0735  23.0934  23.1374  23.1496
    23.1617  23.2207  23.2641  23.2840  23.3453  23.3466  23.3541  23.4566
    23.4599  23.5769  23.6415  23.7790  23.7794  23.7821  23.7979  23.8500
    23.9076  23.9531  24.0389  24.0431  24.1349  24.1438  24.1712  24.2782
    24.3365  24.3475  24.3703  24.4356  24.4686  24.5330  24.5486  24.6060
    24.7275  24.7318  24.7715  24.8250  24.8439  24.8703  24.9637  25.0477
    25.0490  25.1020  25.1029  25.2791  25.2992  25.3549  25.4968  25.5699
    25.6267  25.7664  25.8052  25.8154

          k = 0.0000 0.0000 0.0376 ( 37492 PWs)   bands (ev):

   -29.3397 -29.3392 -27.9481 -27.9475 -21.1066 -20.9934 -20.7077 -20.2771
   -19.7129 -19.0115 -18.2095 -17.3654 -17.2066 -17.1636 -16.8916 -16.6124
   -16.3399 -16.1061 -15.6114 -15.5688 -14.3838 -14.1913 -14.0782 -13.6295
   -13.5247 -13.5191 -13.2657 -13.2495 -12.7007 -12.1163 -11.9206 -11.7211
   -11.6159 -11.6051 -11.1135 -10.9116 -10.8409 -10.3401 -10.1735 -10.1352
   -10.0273 -10.0268  -9.4753  -9.4466  -9.2316  -9.0958  -8.8305  -8.7630
    -8.4310  -8.4209  -8.4080  -8.1239  -7.9798  -7.9785  -7.8558  -7.5985
    -7.3641  -7.1990  -7.0982  -6.6531  -6.4656  -6.4311  -6.1093  -5.8547
    -5.5774  -5.5202  -5.4793  -5.2824  -5.1977  -4.8223  -4.6706  -4.6390
    -4.2948  -3.8654  -3.7439  -3.3199  -3.0522  -2.9001  -0.5242  -0.3482
    -0.1353   0.2248   0.5060   0.5676   0.7986   0.9379   1.5375   1.5580
     1.6521   1.8631   2.1929   2.5056   2.7625   3.0427   3.1376   3.1833
     3.3308   3.4628   3.5655   3.6405   3.9162   4.0400   4.1445   4.2457
     4.2972   4.3134   4.5068   4.6326   4.7769   4.7918   4.9242   5.1196
     5.3527   5.4585   5.6840   5.7792   5.8150   5.8706   5.8913   5.9558
     6.0557   6.3596   6.5460   6.6060   6.6274   6.6362   6.6729   6.7868
     7.0415   7.0764   7.1205   7.1422   7.2057   7.2196   7.3058   7.3749
     7.5029   7.5155   7.5370   7.5916   7.7060   7.9643   7.9717   8.0506
     8.1733   8.1896   8.4249   8.5111   8.5217   8.5392   8.6232   8.6342
     8.6887   8.6889   8.7383   8.7944   8.8314   8.8775   8.9067   8.9124
     8.9145   8.9619   8.9976   9.0643   9.1407   9.2920   9.3544   9.3682
     9.4705   9.4837   9.4956   9.5912   9.6731   9.6909   9.6945   9.7105
     9.7843   9.8078   9.8712   9.8915   9.9390   9.9633  10.0926  10.1372
    10.1492  10.2433  10.4534  10.4941  10.6413  10.6849  10.7817  10.8316
    10.8906  10.9084  10.9687  11.0462  11.0521  11.0656  11.0861  11.1678
    11.1803  11.3448  11.3613  11.4408  11.4443  11.5059  11.5492  11.5721
    11.6188  11.6908  11.6909  11.7535  11.7726  11.8283  11.8907  11.9049
    11.9282  11.9365  11.9681  11.9716  11.9913  12.0588  12.0748  12.0981
    12.1477  12.2140  12.2323  12.2764  12.3273  12.5680  12.5889  12.6999
    12.7348  12.7776  12.9012  12.9483  13.0916  13.1091  13.1181  13.4917
    13.5626  13.5735  13.5935  13.7335  13.7523  13.8790  13.8925  13.9946
    14.0011  14.0244  14.1395  14.1450  14.2276  14.3035  14.3371  14.3540
    14.3835  14.4249  14.4355  14.4596  14.5054  14.5266  14.5496  14.6645
    14.6831  14.7574  14.8103  14.8992  15.0580  15.0989  15.1005  15.1531
    15.2003  15.3057  15.3112  15.3610  15.3907  15.4526  15.4595  15.5601
    15.5865  15.6418  15.7068  15.7526  15.8392  15.8648  15.8910  15.9153
    15.9258  15.9473  16.0819  16.1052  16.1774  16.3416  16.3866  16.3941
    16.4239  16.4470  16.4560  16.4815  16.4928  16.5796  16.6507  16.6675
    16.7162  16.7435  16.7443  16.7503  16.7893  16.8024  16.8142  16.8878
    16.9302  17.0270  17.0492  17.0753  17.1503  17.1614  17.2026  17.2348
    17.2367  17.2609  17.4885  17.4900  17.6141  17.6429  17.6877  17.7182
    17.7353  17.7994  17.8160  17.8606  17.8754  17.9161  17.9590  18.0092
    18.0260  18.0618  18.0845  18.0853  18.1998  18.3172  18.3329  18.4974
    18.5045  18.5856  18.6724  18.7403  18.8681  18.8975  18.9376  19.0000
    19.1287  19.2037  19.2295  19.2614  19.2797  19.2844  19.4092  19.4355
    19.5453  19.5597  19.6063  19.6066  19.7679  19.8935  19.8969  19.9398
    20.0085  20.0387  20.1282  20.1493  20.1556  20.2670  20.3177  20.3881
    20.4031  20.4111  20.4583  20.4928  20.5070  20.5759  20.5889  20.6624
    20.7066  20.7137  20.7838  20.8281  20.8374  20.8920  20.9135  20.9346
    20.9703  21.0029  21.0779  21.1109  21.1304  21.1648  21.1931  21.2250
    21.2641  21.3580  21.3772  21.3874  21.4104  21.4584  21.5363  21.6230
    21.6668  21.7064  21.7287  21.7556  21.7977  21.7986  21.8729  21.9132
    22.0871  22.1350  22.1637  22.1706  22.1887  22.1962  22.2391  22.2494
    22.2531  22.2667  22.2839  22.3052  22.3219  22.3579  22.4813  22.5453
    22.5866  22.6464  22.6517  22.6937  22.7411  22.7707  22.7954  22.8503
    22.8713  22.9295  22.9442  22.9948  23.0245  23.0846  23.0999  23.1052
    23.1581  23.1800  23.2401  23.2429  23.2978  23.3938  23.5031  23.5246
    23.5684  23.7047  23.7184  23.7714  23.8289  23.8505  23.8516  23.9040
    23.9117  23.9203  23.9390  23.9948  24.0387  24.0522  24.2411  24.2422
    24.2877  24.3062  24.3218  24.4822  24.5093  24.5894  24.6079  24.6940
    24.7168  24.7771  24.8201  24.8226  24.8971  24.9154  25.0015  25.1041
    25.1070  25.1526  25.2359  25.2494  25.2952  25.3550  25.5208  25.5791
    25.6615  25.7755  25.8172  25.8595

          k = 0.0000 0.0000 0.0423 ( 37492 PWs)   bands (ev):

   -29.3193 -29.3188 -27.9761 -27.9755 -21.0665 -20.9536 -20.6682 -20.2380
   -19.6743 -18.9738 -18.1740 -17.4353 -17.3345 -17.2966 -17.0475 -16.7434
   -16.3543 -16.2474 -15.6885 -15.6413 -14.3416 -14.2834 -13.9628 -13.6409
   -13.4691 -13.2955 -13.0739 -13.0611 -12.8060 -12.1083 -11.8106 -11.7043
   -11.5184 -11.5164 -11.1546 -10.8384 -10.7345 -10.4144 -10.0817 -10.0654
    -9.9979  -9.9974  -9.5287  -9.3931  -9.1705  -9.0487  -8.7853  -8.6933
    -8.5178  -8.3745  -8.3648  -8.0682  -8.0142  -8.0126  -7.8136  -7.5661
    -7.4576  -7.1582  -7.1127  -6.7068  -6.5598  -6.3924  -6.1813  -5.9594
    -5.6076  -5.5779  -5.5433  -5.3100  -5.2409  -4.9861  -4.8041  -4.6528
    -4.4558  -4.0166  -3.7608  -3.4856  -3.1100  -3.0391  -0.3953  -0.3065
     0.0307   0.3622   0.5300   0.7770   1.0171   1.1617   1.4899   1.5920
     1.7056   1.9156   2.2442   2.5588   2.6757   3.0923   3.1857   3.2377
     3.3851   3.5084   3.6197   3.6809   3.9138   3.9994   4.1988   4.2997
     4.3520   4.3682   4.5586   4.6774   4.8295   4.8299   4.9680   5.1512
     5.2708   5.5105   5.7090   5.7970   5.8049   5.9249   5.9498   5.9624
     6.0552   6.3762   6.4392   6.5690   6.5721   6.6336   6.6807   6.8125
     6.8270   6.9209   6.9471   7.1701   7.2318   7.2641   7.2789   7.3294
     7.3742   7.4643   7.4766   7.5799   7.5947   7.8035   7.9022   7.9624
     8.0207   8.2033   8.2816   8.3117   8.3483   8.4754   8.4929   8.5023
     8.5715   8.5909   8.6107   8.6961   8.7046   8.8349   8.8498   8.8544
     8.8685   8.9201   8.9397   9.1127   9.1375   9.3093   9.3619   9.3996
     9.4030   9.4106   9.4537   9.4634   9.5166   9.5514   9.5799   9.6651
     9.6831   9.7228   9.7422   9.7863   9.8354   9.9369   9.9804  10.1417
    10.1431  10.1830  10.2983  10.4923  10.5746  10.5942  10.6188  10.6976
    10.7525  10.9137  10.9164  10.9653  11.0420  11.0980  11.0998  11.1202
    11.1402  11.4006  11.4073  11.4295  11.4306  11.5191  11.5960  11.6549
    11.6582  11.6633  11.6675  11.7608  11.7757  11.8009  11.8208  11.8252
    11.9343  11.9460  11.9560  11.9816  12.0256  12.1492  12.1779  12.2685
    12.2904  12.3224  12.3242  12.3315  12.4865  12.5737  12.5984  12.7363
    12.7983  12.8286  12.8340  12.9087  12.9733  13.0025  13.0626  13.4415
    13.5002  13.5374  13.6844  13.8364  13.8929  13.9146  13.9298  13.9906
    13.9991  14.0127  14.1876  14.1996  14.2393  14.2532  14.2706  14.3354
    14.4308  14.5100  14.5450  14.5471  14.6149  14.6487  14.6554  14.7441
    14.7503  14.8216  14.8295  14.8576  15.0837  15.1121  15.1418  15.2564
    15.2713  15.2918  15.3445  15.3800  15.3909  15.5580  15.6538  15.7083
    15.7273  15.7539  15.7545  15.7663  15.8309  15.8420  15.8517  15.8698
    15.9253  16.0001  16.0337  16.1042  16.2256  16.3287  16.3563  16.3905
    16.4309  16.4559  16.4776  16.5391  16.5993  16.6051  16.6093  16.6811
    16.7690  16.7851  16.8044  16.8127  16.8273  16.8907  16.9240  16.9315
    16.9886  17.0531  17.0688  17.0734  17.1080  17.2131  17.2181  17.2419
    17.2844  17.3421  17.5202  17.5640  17.5667  17.6824  17.6836  17.7181
    17.7419  17.7601  17.7763  17.9034  17.9213  17.9280  18.0197  18.0442
    18.1235  18.1441  18.1543  18.1806  18.2377  18.2626  18.4055  18.5584
    18.5750  18.7409  18.8019  18.8068  18.9285  18.9600  18.9778  19.1182
    19.1409  19.1853  19.3041  19.3363  19.3428  19.3432  19.4690  19.5294
    19.5735  19.6229  19.6584  19.6665  19.7668  19.8744  20.0604  20.0782
    20.0850  20.1438  20.1876  20.1905  20.2014  20.2366  20.2614  20.3747
    20.3919  20.4438  20.4825  20.4985  20.5051  20.6321  20.7413  20.8026
    20.8125  20.8333  20.8382  20.9101  20.9643  21.0126  21.0329  21.0680
    21.1121  21.1287  21.1727  21.2029  21.2060  21.2546  21.2797  21.3395
    21.3508  21.3780  21.4571  21.4706  21.4768  21.4920  21.5880  21.6128
    21.6536  21.6594  21.6851  21.7611  21.7698  21.8131  21.8189  21.8829
    22.0534  22.0937  22.1139  22.1243  22.1509  22.1834  22.2370  22.2471
    22.2523  22.3436  22.3538  22.3616  22.4136  22.4194  22.5851  22.5902
    22.6167  22.6562  22.6830  22.7459  22.7697  22.7698  22.7914  22.8042
    22.8707  22.9177  22.9225  23.0190  23.0652  23.0778  23.1167  23.2103
    23.2158  23.2343  23.3135  23.4200  23.4329  23.4862  23.5487  23.5849
    23.6331  23.6427  23.6774  23.6834  23.7456  23.8321  23.8685  23.9185
    23.9337  23.9452  23.9872  24.0193  24.0683  24.1803  24.1805  24.2805
    24.2930  24.3481  24.4178  24.4253  24.5186  24.5444  24.6196  24.6363
    24.6551  24.7405  24.8107  24.8936  24.9678  25.0781  25.1023  25.1153
    25.1678  25.1701  25.3124  25.3622  25.3792  25.4966  25.5224  25.6520
    25.7034  25.7882  25.8371  25.8379

          k = 0.0000 0.0000 0.0469 ( 37510 PWs)   bands (ev):

   -29.2968 -29.2962 -28.0068 -28.0062 -21.0218 -20.9092 -20.6241 -20.1943
   -19.6312 -18.9318 -18.1353 -17.5945 -17.5035 -17.3357 -17.1573 -16.8936
   -16.3939 -16.3468 -15.8115 -15.6726 -14.3649 -14.3045 -13.8577 -13.7526
   -13.3145 -13.0768 -12.9205 -12.8719 -12.8509 -12.1479 -11.7050 -11.6528
   -11.4279 -11.3975 -11.2143 -10.7349 -10.6313 -10.4855  -9.9926  -9.9894
    -9.9655  -9.9650  -9.6040  -9.3081  -9.1092  -8.9961  -8.7350  -8.6206
    -8.6080  -8.3265  -8.3168  -8.0518  -8.0496  -8.0103  -7.7664  -7.5769
    -7.5178  -7.1383  -7.1126  -6.7707  -6.6580  -6.3494  -6.2632  -6.0728
    -5.7466  -5.6438  -5.5059  -5.3422  -5.2869  -5.1552  -4.9728  -4.6743
    -4.5778  -4.1824  -3.7668  -3.6510  -3.1760  -3.1717  -0.2689  -0.2671
     0.2027   0.3792   0.6799   0.9912   1.2454   1.3957   1.4221   1.6529
     1.7652   1.9742   2.3013   2.5834   2.6180   3.1470   3.2386   3.2985
     3.4456   3.5592   3.6802   3.7256   3.8231   4.0466   4.2592   4.3601
     4.4132   4.4294   4.6161   4.7259   4.8556   4.8888   5.0164   5.1827
     5.1985   5.5672   5.7033   5.7777   5.8374   5.9857   5.9934   6.0143
     6.0714   6.3236   6.3617   6.4938   6.5364   6.5785   6.6402   6.6817
     6.7075   6.8577   6.8897   7.0178   7.0791   7.3142   7.3214   7.3442
     7.3654   7.3699   7.4790   7.5333   7.5676   7.6693   7.7537   7.8235
     8.0442   8.0739   8.1235   8.1639   8.2339   8.2578   8.2831   8.3088
     8.3801   8.4512   8.6343   8.6752   8.6922   8.7257   8.7692   8.7842
     8.8367   8.9678   9.0064   9.0937   9.1691   9.1736   9.1931   9.2519
     9.2572   9.2656   9.2935   9.4588   9.4868   9.5060   9.5282   9.5647
     9.6519   9.6595   9.6615   9.7499   9.8124   9.8566   9.8917  10.1127
    10.2002  10.2295  10.2330  10.3648  10.4482  10.4924  10.5499  10.5762
    10.6279  10.7530  10.7603  10.9998  11.0872  11.0886  11.1422  11.1595
    11.2007  11.3844  11.4275  11.4282  11.4544  11.4787  11.5828  11.6002
    11.6200  11.6286  11.6523  11.7326  11.7403  11.8170  11.8381  11.8641
    11.9150  11.9907  11.9982  12.0116  12.0524  12.1354  12.1995  12.2827
    12.3592  12.4919  12.5193  12.5952  12.6096  12.6127  12.6212  12.7339
    12.7540  12.7858  12.8209  12.8545  12.9029  12.9797  13.0582  13.3710
    13.3769  13.5398  13.6712  13.7488  13.8679  13.9625  13.9666  14.0522
    14.0551  14.1300  14.1518  14.1988  14.2077  14.3022  14.3087  14.3860
    14.4304  14.4472  14.5933  14.6209  14.6222  14.6704  14.7150  14.7179
    14.8590  14.9092  15.0206  15.0450  15.0974  15.1719  15.2183  15.2357
    15.2469  15.2976  15.3304  15.3938  15.5055  15.5130  15.6609  15.6665
    15.7110  15.7469  15.8053  15.8213  15.8841  15.9249  15.9649  16.0305
    16.0421  16.1632  16.2286  16.2398  16.2505  16.2761  16.3264  16.3405
    16.4195  16.5187  16.5248  16.5687  16.5849  16.6185  16.6620  16.7309
    16.7437  16.7695  16.7823  16.8516  16.8568  16.9016  16.9064  16.9426
    16.9514  17.0956  17.1029  17.1722  17.2356  17.2958  17.3678  17.4128
    17.4133  17.4244  17.5070  17.6036  17.6312  17.6700  17.7082  17.7321
    17.7769  17.8281  17.8451  17.9608  17.9701  17.9734  18.0409  18.0584
    18.1703  18.1804  18.1911  18.2765  18.3279  18.4249  18.4938  18.5738
    18.6637  18.7083  18.8433  18.8896  18.9340  19.0614  19.0889  19.1125
    19.1569  19.2074  19.3000  19.4136  19.4441  19.4702  19.5212  19.6521
    19.6601  19.6694  19.6877  19.8238  19.8369  19.8957  19.9713  19.9888
    20.0090  20.0956  20.2249  20.2484  20.3127  20.3561  20.3973  20.4015
    20.4587  20.4657  20.5230  20.5330  20.6008  20.7229  20.7505  20.8051
    20.8470  20.8959  20.9519  21.0229  21.0946  21.1090  21.1729  21.2316
    21.2325  21.2461  21.2481  21.3600  21.3648  21.3813  21.3909  21.4325
    21.4530  21.4992  21.5296  21.5319  21.5599  21.5911  21.6215  21.6234
    21.6255  21.6650  21.7335  21.7359  21.7441  21.7647  21.8731  21.8886
    21.9199  21.9476  21.9826  22.0225  22.1391  22.2164  22.2580  22.3163
    22.3226  22.3441  22.4234  22.4280  22.5489  22.5639  22.5911  22.5953
    22.6224  22.6241  22.6346  22.6692  22.7013  22.7381  22.7454  22.8305
    22.8903  22.9217  22.9604  22.9751  23.0952  23.1883  23.2513  23.2615
    23.3173  23.3261  23.4052  23.4460  23.5107  23.5516  23.5896  23.6360
    23.6739  23.6869  23.7084  23.7729  23.8062  23.8095  23.8830  23.9303
    23.9585  24.0611  24.0760  24.0939  24.0984  24.1777  24.2236  24.2517
    24.2644  24.3242  24.4097  24.5121  24.5525  24.5812  24.6184  24.6486
    24.7397  24.7586  24.8410  24.9141  24.9791  25.0001  25.0086  25.1262
    25.1294  25.3571  25.4348  25.4682  25.5572  25.5749  25.5925  25.6415
    25.7982  25.8177  25.8309  25.8681

          k = 0.0000 0.0000 0.0516 ( 37536 PWs)   bands (ev):

   -29.2721 -29.2716 -28.0399 -28.0393 -20.9724 -20.8602 -20.5755 -20.1461
   -19.5837 -18.8856 -18.0948 -17.7632 -17.6681 -17.4523 -17.1721 -17.0488
   -16.5414 -16.3351 -15.9322 -15.7110 -14.4322 -14.2788 -13.8496 -13.7654
   -13.1681 -13.0370 -12.8289 -12.6640 -12.6573 -12.2174 -11.6225 -11.5665
   -11.3396 -11.2770 -11.2514 -10.6202 -10.6170 -10.4639  -9.9303  -9.9299
    -9.9270  -9.9100  -9.6518  -9.2251  -9.0475  -8.9381  -8.6958  -8.6794
    -8.5481  -8.2764  -8.2647  -8.0922  -8.0884  -7.9548  -7.7142  -7.6671
    -7.5087  -7.1745  -7.0623  -6.8437  -6.7601  -6.3558  -6.3020  -6.1946
    -5.8939  -5.7179  -5.4658  -5.3787  -5.3349  -5.3272  -5.1430  -4.8181
    -4.5775  -4.3506  -3.8145  -3.7749  -3.3085  -3.2375  -0.2255  -0.1474
     0.3592   0.3746   0.8739   1.1924   1.3706   1.4816   1.6403   1.7201
     1.8310   2.0387   2.3641   2.4868   2.6830   3.2065   3.2959   3.3657
     3.5120   3.6154   3.7168   3.7470   3.7744   4.1103   4.3255   4.4267
     4.4807   4.4968   4.6793   4.7772   4.8472   4.9533   5.0691   5.1602
     5.2115   5.6249   5.6752   5.7509   5.8948   6.0341   6.0528   6.0845
     6.1005   6.2003   6.2311   6.4262   6.4515   6.4901   6.5000   6.5745
     6.7290   6.7884   6.8596   6.9220   6.9758   7.1480   7.2068   7.3490
     7.4080   7.4149   7.4422   7.5003   7.5918   7.6014   7.7384   7.7441
     7.8034   7.8926   7.9951   8.0059   8.0745   8.0997   8.1606   8.1714
     8.2756   8.3167   8.5416   8.5671   8.6040   8.6882   8.7033   8.8356
     8.8481   8.9336   8.9532   9.0138   9.0438   9.0490   9.0593   9.0704
     9.1313   9.1625   9.2364   9.3245   9.3592   9.5209   9.5526   9.5664
     9.6009   9.6180   9.6612   9.6803   9.7164   9.8809   9.9421  10.0875
    10.1225  10.2048  10.2630  10.2832  10.2926  10.3875  10.4452  10.5482
    10.5729  10.6109  10.6578  10.9977  11.0637  11.1014  11.1741  11.2247
    11.2623  11.2899  11.3524  11.4178  11.4245  11.4706  11.5542  11.5609
    11.5987  11.6405  11.6892  11.7126  11.7825  11.8096  11.8319  11.8790
    11.8818  11.9720  12.0568  12.0603  12.1199  12.2012  12.2182  12.3406
    12.3596  12.4687  12.5973  12.6103  12.6426  12.6791  12.6913  12.7531
    12.7628  12.7936  12.8168  12.9027  12.9246  13.0755  13.1187  13.2487
    13.3410  13.4901  13.5903  13.6714  13.7572  13.9895  13.9955  14.0047
    14.0696  14.0768  14.0948  14.1032  14.2724  14.3422  14.4179  14.4613
    14.4670  14.5042  14.5140  14.5682  14.6576  14.7801  14.8416  14.8614
    14.9503  14.9568  15.0058  15.1603  15.1781  15.2029  15.2209  15.2263
    15.2724  15.3330  15.3603  15.4232  15.4758  15.5299  15.5675  15.6358
    15.7534  15.7740  15.8400  15.9051  15.9102  16.0371  16.0924  16.0924
    16.1087  16.1791  16.2682  16.2911  16.3598  16.4225  16.4267  16.4472
    16.4757  16.5070  16.5312  16.6430  16.6585  16.6820  16.7314  16.7536
    16.7588  16.7756  16.7773  16.8675  16.8846  16.9066  16.9314  16.9876
    17.0094  17.1129  17.1733  17.2289  17.3122  17.3815  17.4140  17.4848
    17.5404  17.5670  17.5749  17.6159  17.6322  17.6906  17.7989  17.8788
    17.9791  17.9815  17.9906  18.0274  18.0359  18.0473  18.0672  18.1408
    18.1486  18.2488  18.2550  18.3036  18.3905  18.5261  18.5753  18.6596
    18.7519  18.7864  18.8550  18.8624  18.9141  19.0623  19.0979  19.1016
    19.1608  19.2833  19.4182  19.4677  19.5411  19.5457  19.6157  19.6878
    19.7156  19.7416  19.7466  19.8033  19.8195  19.9252  20.0198  20.0667
    20.0837  20.0957  20.2024  20.3339  20.3536  20.3753  20.3815  20.4695
    20.4761  20.5414  20.6051  20.6738  20.7110  20.8035  20.8119  20.8178
    20.8828  21.0123  21.0764  21.1059  21.1263  21.1487  21.1842  21.2705
    21.2764  21.2844  21.2869  21.3663  21.4102  21.4928  21.5103  21.5395
    21.5505  21.6276  21.6515  21.6715  21.6751  21.6829  21.6980  21.7490
    21.7573  21.7635  21.7702  21.7872  21.7992  21.8048  21.8160  21.8543
    21.9323  21.9539  21.9689  22.0234  22.0983  22.1738  22.2787  22.2901
    22.3182  22.4370  22.4509  22.4533  22.4558  22.5059  22.5412  22.5482
    22.6501  22.6506  22.6920  22.7007  22.7657  22.7970  22.8332  22.8498
    22.9125  22.9194  22.9755  22.9996  23.0059  23.0928  23.1733  23.2923
    23.2973  23.4517  23.4847  23.5747  23.6135  23.6285  23.6319  23.6881
    23.7448  23.7912  23.8218  23.8352  23.8556  23.9130  23.9559  24.0066
    24.0517  24.0870  24.0979  24.1310  24.1950  24.2360  24.2595  24.3223
    24.3898  24.4381  24.4563  24.4618  24.5457  24.6276  24.6535  24.7248
    24.7366  24.7516  24.8777  24.9067  24.9131  25.0440  25.0656  25.1489
    25.2376  25.3033  25.3431  25.4164  25.6172  25.6709  25.6889  25.7852
    25.8381  25.8482  25.8892  25.9170

          k = 0.0000 0.0000 0.0563 ( 37492 PWs)   bands (ev):

   -29.2455 -29.2449 -28.0751 -28.0745 -20.9182 -20.8065 -20.5222 -20.0934
   -19.5318 -18.8354 -18.0588 -17.9310 -17.8220 -17.6028 -17.2041 -17.1468
   -16.6862 -16.3333 -16.0401 -15.7596 -14.4828 -14.2778 -13.9170 -13.6914
   -13.1215 -13.0326 -12.6134 -12.4601 -12.4468 -12.2892 -11.5978 -11.4620
   -11.2833 -11.1985 -11.1572 -10.6931 -10.4992 -10.3463  -9.9273  -9.8927
    -9.8922  -9.8276  -9.6296  -9.1545  -8.9848  -8.8747  -8.7713  -8.6188
    -8.4798  -8.2243  -8.2126  -8.1350  -8.1247  -7.9049  -7.7654  -7.6571
    -7.5008  -7.2199  -7.0072  -6.9249  -6.8656  -6.4608  -6.3241  -6.2504
    -6.0466  -5.7996  -5.5006  -5.4278  -5.4185  -5.3841  -5.3088  -4.9850
    -4.5541  -4.5184  -3.9743  -3.7908  -3.4326  -3.3070  -0.1806  -0.0359
     0.3429   0.5427   1.0761   1.2384   1.4816   1.7235   1.7936   1.8916
     1.9029   2.1090   2.3879   2.4323   2.7537   3.2703   3.3570   3.4393
     3.5761   3.6128   3.6771   3.8201   3.8273   4.1816   4.3970   4.4995
     4.5546   4.5704   4.7479   4.7874   4.8295   5.0231   5.1258   5.1741
     5.2331   5.6366   5.6646   5.7520   5.9600   5.9915   6.0688   6.1109
     6.1260   6.1310   6.1622   6.2332   6.3744   6.3934   6.4521   6.5743
     6.6302   6.6878   6.8056   6.9462   6.9518   7.0143   7.0624   7.1792
     7.2546   7.4838   7.4855   7.5494   7.5712   7.6154   7.6619   7.6636
     7.6796   7.7800   7.8072   7.8195   7.8857   7.9289   8.0246   8.0849
     8.2203   8.3632   8.3787   8.4002   8.4679   8.5893   8.7116   8.7205
     8.7686   8.7841   8.8139   8.8284   8.8881   9.0002   9.0284   9.0578
     9.0898   9.1385   9.1729   9.1831   9.3056   9.4384   9.4926   9.5666
     9.5903   9.5977   9.6255   9.7105   9.7777   9.8841   9.9556   9.9561
    10.0500  10.1113  10.1197  10.2329  10.3269  10.3308  10.4403  10.5329
    10.5331  10.5418  10.6095  10.9103  10.9754  11.1337  11.1854  11.1877
    11.1940  11.2947  11.3404  11.4211  11.4304  11.4961  11.4978  11.5467
    11.6248  11.6820  11.7150  11.7188  11.7556  11.8146  11.8233  11.8444
    11.8717  11.9194  12.1076  12.1379  12.1731  12.2696  12.3130  12.3133
    12.3335  12.4144  12.5308  12.5534  12.6403  12.6466  12.6840  12.7153
    12.8083  12.8809  12.9297  12.9823  13.1307  13.1501  13.1802  13.2090
    13.3293  13.4063  13.4363  13.6025  13.7560  13.9352  13.9495  13.9550
    13.9605  14.0099  14.0625  14.1598  14.2124  14.2550  14.3713  14.3928
    14.4722  14.6579  14.6688  14.6816  14.7928  14.8187  14.9098  14.9438
    14.9953  15.0417  15.0697  15.0804  15.1374  15.1584  15.2067  15.2167
    15.2893  15.3268  15.3826  15.4653  15.4777  15.5230  15.6846  15.7717
    15.8426  15.8788  15.9155  15.9290  15.9472  15.9834  15.9904  16.0443
    16.0885  16.3008  16.3334  16.3630  16.3662  16.3979  16.4773  16.5544
    16.5603  16.5953  16.6038  16.6543  16.7289  16.7508  16.7674  16.7896
    16.8413  16.9261  16.9341  16.9768  17.0019  17.0178  17.0244  17.0848
    17.1017  17.1321  17.2754  17.2759  17.3424  17.3975  17.5417  17.5420
    17.5832  17.5998  17.6186  17.6609  17.6637  17.8048  17.9002  18.0275
    18.0564  18.0650  18.0774  18.1476  18.1812  18.1873  18.2155  18.2302
    18.3127  18.3151  18.3317  18.4495  18.4683  18.5656  18.5858  18.7046
    18.7250  18.8439  18.9013  18.9283  18.9319  19.0535  19.0880  19.2097
    19.2255  19.2514  19.4221  19.4910  19.5127  19.6266  19.6483  19.6757
    19.7036  19.7665  19.8076  19.8600  19.9580  19.9799  20.1059  20.1566
    20.1717  20.1824  20.2714  20.3183  20.3528  20.3769  20.4528  20.5138
    20.6228  20.6595  20.6698  20.7266  20.7786  20.8099  20.8239  20.8291
    20.9273  21.0378  21.1362  21.1497  21.1958  21.2134  21.2502  21.3033
    21.3180  21.3224  21.3343  21.3416  21.4665  21.4680  21.4706  21.5250
    21.5552  21.6165  21.6616  21.7124  21.7247  21.7707  21.8218  21.8507
    21.8821  21.8924  21.8983  21.8986  21.9210  21.9368  21.9605  22.0238
    22.0258  22.0375  22.0500  22.1004  22.1451  22.1973  22.2456  22.2991
    22.3087  22.3345  22.3998  22.4134  22.4207  22.4960  22.6188  22.6516
    22.7101  22.7193  22.7266  22.7516  22.7546  22.8165  22.8297  22.8616
    22.9258  22.9271  22.9308  23.0091  23.0673  23.1141  23.2288  23.3393
    23.3660  23.3707  23.5361  23.5387  23.6184  23.6352  23.6920  23.7123
    23.7352  23.7702  23.8112  23.9788  24.0133  24.0313  24.0779  24.0919
    24.0987  24.2211  24.2641  24.2849  24.2863  24.3499  24.3841  24.4071
    24.4284  24.5361  24.5364  24.5876  24.6069  24.6163  24.6902  24.7169
    24.7380  24.8396  24.8455  24.9670  24.9685  25.0741  25.1140  25.1355
    25.2134  25.2807  25.4082  25.5122  25.5616  25.6214  25.6958  25.7310
    25.7553  25.7609  25.7634  25.8482

          k = 0.0000 0.0000 0.0610 ( 37528 PWs)   bands (ev):

   -29.2170 -29.2164 -28.1123 -28.1117 -20.8595 -20.7483 -20.4644 -20.0363
   -19.4756 -18.7815 -18.0958 -18.0712 -17.9215 -17.7583 -17.3571 -17.1171
   -16.8219 -16.3656 -16.1122 -15.8197 -14.5161 -14.3156 -13.9395 -13.6486
   -13.1826 -12.9128 -12.4063 -12.4030 -12.2255 -12.2046 -11.6393 -11.3511
   -11.2149 -11.0913 -11.0393 -10.7760 -10.3752 -10.2136  -9.9840  -9.8528
    -9.8523  -9.7420  -9.5453  -9.1205  -8.9208  -8.8118  -8.8058  -8.5534
    -8.4203  -8.1980  -8.1796  -8.1703  -8.1207  -7.8635  -7.8624  -7.5950
    -7.5014  -7.2723  -7.0134  -6.9746  -6.9475  -6.5804  -6.4606  -6.2013
    -6.1948  -5.8881  -5.6743  -5.4995  -5.4613  -5.4340  -5.3622  -5.1537
    -4.6842  -4.5309  -4.1276  -3.8232  -3.5398  -3.3797  -0.1319   0.0528
     0.3488   0.6999   1.1883   1.2795   1.7011   1.8735   1.9679   1.9807
     2.1489   2.1850   2.2907   2.5059   2.8299   3.3380   3.4214   3.4829
     3.5192   3.6681   3.7443   3.8841   3.8994   4.2594   4.4702   4.5785
     4.6348   4.6499   4.6950   4.8216   4.8807   5.0971   5.1858   5.2258
     5.2413   5.5921   5.6659   5.7750   5.8090   5.9340   5.9796   6.0525
     6.1512   6.1868   6.2053   6.2442   6.2745   6.3373   6.3429   6.5456
     6.5713   6.6230   6.7328   6.8425   6.9083   6.9249   7.0583   7.0798
     7.0872   7.3312   7.4352   7.4457   7.5070   7.5516   7.5692   7.6027
     7.6329   7.6587   7.7120   7.8090   7.8509   7.8833   7.8885   7.9532
     8.1726   8.2216   8.2867   8.2962   8.4168   8.4677   8.4887   8.5112
     8.6000   8.6286   8.6382   8.7891   8.8544   8.9293   8.9729   8.9809
     9.0028   9.1251   9.1639   9.2542   9.3000   9.3705   9.3806   9.5004
     9.5384   9.6551   9.6669   9.6890   9.7794   9.8244   9.8540   9.9326
     9.9357  10.0463  10.0764  10.1573  10.3610  10.4029  10.4749  10.5068
    10.5196  10.5294  10.5734  10.7610  10.8306  11.0903  11.0989  11.1907
    11.2442  11.3676  11.3866  11.3899  11.4166  11.4737  11.4741  11.4921
    11.5929  11.6713  11.6995  11.7198  11.7582  11.8294  11.8702  11.9007
    11.9252  11.9467  12.0669  12.1349  12.1889  12.2244  12.2263  12.2882
    12.4503  12.4583  12.4769  12.5158  12.6159  12.6262  12.6835  12.6942
    12.9324  12.9349  12.9430  13.0309  13.0657  13.1931  13.2220  13.2954
    13.3333  13.3956  13.4164  13.5593  13.7751  13.7884  13.8630  13.8713
    13.8949  13.9394  14.0948  14.2164  14.2215  14.2236  14.2761  14.3076
    14.5493  14.7366  14.7544  14.7767  14.8482  14.8666  14.8901  14.8983
    14.9506  14.9654  14.9684  15.0538  15.0981  15.1467  15.2986  15.3443
    15.3522  15.4034  15.4340  15.4693  15.5056  15.6432  15.7100  15.7330
    15.8836  15.8999  15.9254  15.9259  15.9561  16.0356  16.0619  16.0720
    16.2378  16.2809  16.3088  16.4115  16.4431  16.4746  16.4984  16.5123
    16.5228  16.5498  16.6414  16.6806  16.8070  16.8826  16.8829  16.9334
    16.9652  16.9801  17.0524  17.0776  17.0839  17.1639  17.1838  17.2096
    17.2831  17.2999  17.3956  17.4476  17.4614  17.5299  17.5314  17.5583
    17.5660  17.7192  17.7232  17.7353  17.8106  17.8417  18.0345  18.0483
    18.0747  18.0795  18.0874  18.2407  18.2600  18.2615  18.3292  18.3692
    18.4175  18.4926  18.5859  18.6469  18.6886  18.7071  18.7097  18.7109
    18.7491  18.8337  18.8779  18.9436  18.9641  19.0030  19.0832  19.3085
    19.3235  19.3317  19.3860  19.3931  19.4566  19.6153  19.6978  19.7410
    19.7521  19.9077  19.9357  19.9829  20.0142  20.0179  20.0950  20.1289
    20.1300  20.2905  20.3007  20.3754  20.3845  20.4777  20.5320  20.6283
    20.6869  20.6914  20.7296  20.7308  20.7717  20.8967  20.9138  20.9801
    20.9857  21.0554  21.0579  21.0806  21.1778  21.1986  21.2630  21.2909
    21.3559  21.3591  21.3714  21.4022  21.4313  21.4405  21.5201  21.6102
    21.6137  21.6955  21.7152  21.7591  21.7662  21.8250  21.8534  21.8977
    21.9361  21.9529  22.0016  22.0037  22.0229  22.0647  22.0736  22.0980
    22.0983  22.1281  22.1365  22.1520  22.2097  22.2237  22.2464  22.3096
    22.3145  22.3949  22.4488  22.4661  22.5357  22.5920  22.6096  22.6591
    22.6927  22.7868  22.8027  22.8146  22.8248  22.8702  22.9172  22.9306
    22.9815  23.0167  23.0256  23.0427  23.1097  23.1680  23.2618  23.2926
    23.4101  23.4201  23.4540  23.4937  23.5181  23.6608  23.7360  23.7529
    23.7709  23.8189  23.8477  24.0378  24.1257  24.1356  24.1375  24.1485
    24.1680  24.2145  24.2612  24.2800  24.3584  24.4289  24.4564  24.4569
    24.6479  24.6903  24.6959  24.7277  24.7418  24.7669  24.7978  24.8488
    24.8653  24.9130  24.9503  24.9949  24.9958  25.0412  25.1009  25.1852
    25.2602  25.3209  25.3373  25.4543  25.5220  25.5581  25.6350  25.6494
    25.7321  25.7978  25.8039  25.8452

          k = 0.0000 0.0000 0.0657 ( 37516 PWs)   bands (ev):

   -29.1868 -29.1862 -28.1510 -28.1504 -20.7961 -20.6854 -20.4020 -19.9746
   -19.4152 -18.7247 -18.2565 -18.1913 -17.9128 -17.9083 -17.5054 -17.1141
   -16.9226 -16.4483 -16.1329 -15.8914 -14.5324 -14.3854 -13.9225 -13.6539
   -13.1978 -12.8236 -12.4571 -12.2038 -11.9940 -11.9908 -11.7127 -11.2448
   -11.1262 -10.9718 -10.9390 -10.8358 -10.2614 -10.0750 -10.0459  -9.8109
    -9.8104  -9.6537  -9.4381  -9.1474  -8.8552  -8.7936  -8.7317  -8.4837
    -8.3768  -8.2355  -8.2250  -8.1148  -8.0610  -7.9527  -7.8331  -7.5280
    -7.5105  -7.3285  -7.1087  -7.0871  -6.8832  -6.7167  -6.6030  -6.3541
    -6.1353  -5.9822  -5.8471  -5.6654  -5.5059  -5.4843  -5.3215  -5.3191
    -4.8460  -4.5193  -4.2649  -3.8849  -3.6177  -3.4548  -0.0795   0.1004
     0.3975   0.8242   1.1606   1.4798   1.9321   1.9595   2.0643   2.1523
     2.2601   2.2666   2.4110   2.5844   2.9112   3.3630   3.4088   3.4882
     3.6053   3.7534   3.8174   3.9448   3.9847   4.3434   4.5102   4.6234
     4.6634   4.7212   4.7346   4.8993   4.9267   5.1731   5.2290   5.2471
     5.2978   5.5393   5.5530   5.6683   5.7968   5.8007   5.8813   6.0992
     6.1138   6.1940   6.2028   6.2823   6.2902   6.3132   6.3325   6.4810
     6.5031   6.5575   6.6495   6.7465   6.8031   6.8653   6.8971   7.1059
     7.1292   7.1542   7.2141   7.2555   7.2855   7.3884   7.4717   7.5218
     7.6495   7.6816   7.6817   7.6981   7.8676   7.8990   7.9116   7.9698
     7.9762   8.0323   8.1513   8.2074   8.2611   8.3070   8.3791   8.4191
     8.4452   8.4735   8.5614   8.6090   8.7142   8.8067   8.9388   8.9473
     9.0464   9.0800   9.2060   9.2758   9.3186   9.3299   9.4098   9.4348
     9.4538   9.4629   9.5981   9.7408   9.7466   9.7596   9.8015   9.8572
     9.9516  10.0007  10.1203  10.2089  10.3862  10.4460  10.4779  10.4859
    10.5250  10.5276  10.5313  10.6600  10.6774  11.0288  11.0847  11.1830
    11.2107  11.3211  11.3212  11.4007  11.4484  11.4509  11.4996  11.5132
    11.5495  11.6152  11.7231  11.7816  11.7925  11.8423  11.8625  11.9528
    11.9555  12.0230  12.0473  12.0491  12.1198  12.1383  12.2389  12.2980
    12.3604  12.4078  12.5398  12.5777  12.6382  12.6590  12.6958  12.7321
    12.8497  12.9090  12.9502  13.0400  13.1117  13.1642  13.1710  13.2602
    13.3262  13.4805  13.5265  13.5918  13.5994  13.7840  13.7956  13.8498
    13.8523  13.9288  14.1172  14.2023  14.2127  14.2693  14.2815  14.2875
    14.6361  14.6451  14.7379  14.7558  14.7822  14.8147  14.8238  14.8462
    14.8518  14.8925  15.0357  15.0443  15.0956  15.1538  15.3357  15.3681
    15.3687  15.4792  15.5044  15.5103  15.5440  15.6975  15.8372  15.8407
    15.8479  15.9016  15.9049  15.9581  15.9855  16.0538  16.0816  16.1309
    16.2612  16.3028  16.4218  16.4391  16.4467  16.4872  16.5023  16.5320
    16.6419  16.6736  16.6761  16.7868  16.8547  16.9260  16.9628  16.9768
    17.0007  17.0176  17.0596  17.1363  17.1897  17.3194  17.3701  17.4191
    17.4358  17.4422  17.5247  17.5968  17.5979  17.6129  17.6354  17.7356
    17.7386  17.8128  17.8188  17.8348  17.9922  17.9981  18.0266  18.0458
    18.0886  18.1113  18.1996  18.2037  18.2900  18.3466  18.3795  18.5081
    18.6097  18.6308  18.6847  18.7240  18.7505  18.7558  18.8467  18.8903
    18.9297  18.9747  18.9920  19.0031  19.0392  19.1207  19.1633  19.1769
    19.2095  19.3180  19.4111  19.4123  19.4581  19.7494  19.8554  19.8762
    19.8886  19.9747  19.9818  19.9892  20.0513  20.0814  20.0978  20.1121
    20.1365  20.2242  20.3270  20.3691  20.4455  20.4758  20.5358  20.6792
    20.7030  20.7334  20.7754  20.8252  20.8278  20.9327  20.9603  20.9669
    21.0486  21.0749  21.1341  21.1344  21.2054  21.2209  21.2762  21.3072
[...]
     6.9813   7.0332   7.0392   7.1082   7.1197   7.1300   7.1964   7.2506
     7.2776   7.3297   7.4361   7.5854   7.7846   7.9382   7.9566   8.0386
     8.0872   8.1007   8.1029   8.1637   8.1885   8.3040   8.5855   8.6021
     8.7432   8.8032   8.8873   8.9235   9.1343   9.1766   9.2851   9.4488
     9.4606   9.4818   9.4961   9.6996   9.8321   9.8400   9.8436   9.9465
    10.1042  10.2032  10.2072  10.2493  10.2803  10.3110  10.3303  10.5203
    10.5492  10.5733  10.6608  10.7060  10.7106  10.8155  10.8718  11.0394
    11.0942  11.1515  11.1594  11.1748  11.1839  11.1947  11.2810  11.2995
    11.3024  11.3538  11.4451  11.5395  11.6854  11.7913  11.8085  11.8218
    11.8853  12.0008  12.0146  12.0407  12.0587  12.1392  12.1506  12.2111
    12.2156  12.2973  12.4000  12.4196  12.5399  12.6443  12.6540  12.7841
    12.8570  12.9023  12.9074  12.9394  13.1126  13.1710  13.1962  13.2905
    13.3892  13.4537  13.5360  13.5725  13.6409  13.6973  13.7706  13.7829
    13.8695  13.8842  13.8903  13.9393  14.0005  14.0782  14.1339  14.2349
    14.3588  14.3715  14.3761  14.4925  14.6406  14.6939  14.7931  14.8050
    14.8357  14.9682  15.0504  15.0584  15.1390  15.1455  15.1532  15.1900
    15.3022  15.3350  15.5244  15.5671  15.6108  15.7675  15.8555  15.8600
    15.9237  16.0185  16.0421  16.0745  16.1872  16.1926  16.2321  16.2491
    16.2869  16.2876  16.4589  16.6201  16.6374  16.7420  16.7800  16.8120
    16.8584  16.8727  16.9896  17.0013  17.0289  17.1872  17.3266  17.3273
    17.3925  17.3996  17.5063  17.5095  17.6465  17.6806  17.7295  17.7709
    17.7754  17.8253  17.9030  17.9241  18.0207  18.1867  18.2675  18.2792
    18.3255  18.4271  18.5213  18.5238  18.6217  18.6394  18.6597  18.6898
    18.8313  18.9144  18.9372  18.9446  18.9460  19.0253  19.0818  19.2481
    19.2890  19.3079  19.3755  19.3839  19.3956  19.4384  19.5158  19.6470
    19.7091  19.7650  19.8077  20.0037  20.0638  20.0957  20.1127  20.1209
    20.1218  20.1834  20.2270  20.2557  20.2754  20.3152  20.3319  20.3460
    20.3975  20.4392  20.4748  20.5146  20.5988  20.6133  20.6596  20.7541
    20.7683  20.8394  20.8693  20.8736  21.0055  21.0455  21.0497  21.0613
    21.1593  21.1653  21.2348  21.2455  21.2701  21.3088  21.3313  21.3390
    21.3492  21.3543  21.3574  21.4280  21.4944  21.5034  21.5211  21.5506
    21.5528  21.5902  21.7000  21.7072  21.7143  21.7614  21.8759  22.0224
    22.0303  22.0595  22.0616  22.1057  22.1089  22.1763  22.2004  22.2340
    22.2349  22.3041  22.3252  22.3653  22.3788  22.3829  22.4123  22.4383
    22.4446  22.4622  22.5065  22.5224  22.5626  22.5839  22.6368  22.6501
    22.7677  22.7733  22.7949  22.9037  22.9166  22.9167  23.0085  23.0185
    23.0961  23.1121  23.1319  23.1641  23.1661  23.1847  23.3336  23.3818
    23.3867  23.3908  23.4467  23.5104  23.5621  23.6938  23.7224  23.7245
    23.7492  23.8164  23.8171  23.8564  23.8824  23.8951  23.9866  24.0044
    24.0188  24.0738  24.1048  24.1470  24.1565  24.2963  24.3068  24.3272
    24.4064  24.4197  24.4384  24.5367  24.5857  24.6017  24.6203  24.6513
    24.7542  24.7824  24.8206  24.8354  24.8696  24.8777  24.8868  24.9337
    25.0218  25.0372  25.0760  25.0778  25.1108  25.1790  25.1809  25.2071
    25.2426  25.2847  25.2893  25.3099  25.3189  25.4038  25.4321  25.5570
    25.5624  25.5740  25.5974  25.6690

          k = 0.0000 0.0000 0.1080 ( 37512 PWs)   bands (ev):

   -28.8940 -28.8934 -28.4967 -28.4962 -20.0199 -19.9186 -19.6495 -19.5575
   -19.4470 -19.2607 -19.1308 -18.7907 -18.6284 -18.2332 -17.9570 -17.5592
   -17.1867 -16.8158 -16.4024 -16.1661 -14.7831 -14.5846 -14.0032 -13.7451
   -13.0778 -12.8476 -12.2110 -11.9412 -11.4838 -11.0847 -10.7769 -10.6330
   -10.5481 -10.2240  -9.9312  -9.7182  -9.6560  -9.6035  -9.4513  -9.4508
    -9.2244  -8.8572  -8.8054  -8.7349  -8.6913  -8.6279  -8.6274  -8.6173
    -8.4862  -8.3597  -8.2322  -8.2024  -8.1101  -8.0767  -8.0058  -7.8204
    -7.8100  -7.5967  -7.5227  -7.4704  -7.2865  -7.2378  -7.2190  -7.0730
    -6.9052  -6.7409  -6.6738  -6.2389  -6.0660  -5.8346  -5.8329  -5.6484
    -5.3593  -4.9946  -4.6331  -4.3866  -3.9285  -3.8417   0.1232   0.2460
     0.7192   1.0328   1.6136   2.0571   2.5902   2.9438   2.9728   3.1185
     3.1728   3.4094   3.4804   3.6784   3.7269   3.9456   3.9764   4.0062
     4.1868   4.2628   4.3040   4.5557   4.5809   4.6540   4.6647   4.8014
     4.8111   4.8182   4.8950   4.9953   5.0426   5.1978   5.3537   5.3758
     5.4032   5.4593   5.5572   5.5829   5.6166   5.6435   5.6740   5.7058
     5.7737   5.8223   5.8225   5.8728   5.9329   5.9663   6.0193   6.0799
     6.1333   6.2183   6.2606   6.2727   6.3176   6.3252   6.3290   6.4359
     6.4391   6.4847   6.5242   6.5917   6.6669   6.7961   6.8735   6.9208
     6.9356   6.9489   6.9506   6.9821   7.1402   7.2443   7.3042   7.3343
     7.3639   7.3802   7.3905   7.6217   7.6275   7.8273   7.9094   7.9308
     7.9386   8.0007   8.0486   8.0833   8.1807   8.3111   8.7141   8.7248
     8.7386   8.7410   8.9106   9.0188   9.1097   9.2709   9.3027   9.3265
     9.3409   9.4583   9.5055   9.6063   9.6738   9.8535   9.9667  10.0737
    10.0813  10.1869  10.2114  10.3115  10.3344  10.4025  10.4375  10.4403
    10.5588  10.5757  10.6307  10.6944  10.8242  10.8404  10.9847  11.0012
    11.0119  11.0359  11.0624  11.1777  11.2228  11.2339  11.2499  11.3110
    11.3688  11.3791  11.3819  11.4097  11.5630  11.6435  11.7611  11.7794
    11.7969  11.8874  11.9019  12.0495  12.1220  12.1415  12.1935  12.2979
    12.3470  12.3682  12.3784  12.5031  12.5317  12.6083  12.7730  12.8306
    12.8332  12.8610  12.9612  12.9883  13.0687  13.0991  13.1682  13.3077
    13.3795  13.4408  13.4980  13.6137  13.6287  13.6609  13.6882  13.7274
    13.8038  13.8658  13.8707  13.9234  13.9910  14.0639  14.2118  14.2386
    14.3178  14.4161  14.4198  14.5318  14.6699  14.6819  14.7047  14.7671
    14.9049  14.9237  15.0015  15.0249  15.1391  15.1429  15.2080  15.3241
    15.3524  15.3831  15.5425  15.6329  15.6965  15.8549  15.8559  15.8650
    15.9482  15.9536  15.9628  15.9780  16.1263  16.1683  16.1768  16.1787
    16.2473  16.2566  16.5226  16.6315  16.6860  16.7331  16.7732  16.8158
    16.8510  16.9298  16.9660  17.0310  17.1019  17.1351  17.1873  17.2014
    17.3700  17.3843  17.5039  17.5791  17.5928  17.6040  17.6443  17.7706
    17.8048  17.8593  17.9952  18.0745  18.0780  18.2061  18.2556  18.2775
    18.3560  18.4212  18.4832  18.5325  18.5680  18.5757  18.6048  18.6511
    18.8096  18.8529  18.9927  19.0180  19.1565  19.2329  19.2604  19.3036
    19.3257  19.3520  19.4480  19.4510  19.4992  19.6098  19.6587  19.7714
    19.7734  19.8884  19.9891  20.0289  20.0611  20.1394  20.1624  20.1820
    20.2370  20.2568  20.3388  20.3605  20.3808  20.3812  20.4097  20.4156
    20.4810  20.5603  20.5848  20.5900  20.6192  20.6625  20.7269  20.7545
    20.7637  20.7670  20.8537  20.8610  20.9015  21.0603  21.0713  21.1179
    21.1743  21.1809  21.2907  21.3118  21.3192  21.3427  21.3600  21.4080
    21.4144  21.4179  21.4996  21.5178  21.5192  21.6071  21.6200  21.6264
    21.6390  21.7073  21.7660  21.7871  21.8461  21.8482  21.8551  22.0057
    22.0140  22.0248  22.0843  22.1301  22.1382  22.1522  22.1561  22.1674
    22.2583  22.2592  22.2697  22.2963  22.3168  22.3359  22.4636  22.5078
    22.5482  22.5561  22.5621  22.5710  22.5973  22.6458  22.6557  22.6937
    22.8089  22.8271  22.8688  22.8715  22.8870  22.9316  23.0165  23.0212
    23.0988  23.1327  23.1385  23.1682  23.1799  23.2304  23.2592  23.2990
    23.3069  23.3841  23.4188  23.4538  23.4997  23.5984  23.6465  23.6588
    23.6674  23.7062  23.8636  23.9090  23.9190  23.9261  23.9495  23.9645
    24.0372  24.0449  24.0632  24.0637  24.0770  24.1075  24.2535  24.2760
    24.2778  24.3787  24.4815  24.5503  24.6042  24.6254  24.6645  24.7037
    24.7577  24.7694  24.8184  24.8465  24.8641  24.9107  24.9354  24.9459
    24.9681  24.9705  25.0346  25.0386  25.0509  25.0595  25.0686  25.1325
    25.1745  25.3000  25.3017  25.3056  25.3332  25.3716  25.3767  25.4546
    25.4597  25.5073  25.5345  25.5559

          k = 0.0000 0.0000 0.1127 ( 37536 PWs)   bands (ev):

   -28.8768 -28.8762 -28.5155 -28.5149 -19.9120 -19.8151 -19.6751 -19.6049
   -19.5051 -19.3157 -19.0910 -18.8881 -18.5455 -18.3388 -17.8662 -17.6636
   -17.0995 -16.9113 -16.3391 -16.2179 -14.7482 -14.6450 -13.9428 -13.8084
   -13.0231 -12.8999 -12.1523 -12.0071 -11.3967 -11.1913 -10.6763 -10.6153
   -10.5058 -10.3295  -9.7656  -9.5979  -9.5060  -9.4623  -9.4350  -9.4345
    -9.3368  -8.9648  -8.8271  -8.8096  -8.6451  -8.6446  -8.5697  -8.5655
    -8.4624  -8.3612  -8.2694  -8.2239  -8.1775  -8.1755  -8.0361  -7.8797
    -7.6942  -7.5192  -7.4960  -7.4754  -7.4258  -7.2175  -7.1702  -7.0926
    -6.9997  -6.8464  -6.5869  -6.3513  -5.9736  -5.8458  -5.8450  -5.7550
    -5.2768  -5.0865  -4.5762  -4.4464  -3.9136  -3.8673   0.1492   0.2134
     0.7922   0.9557   1.7217   1.9534   2.7246   3.0094   3.0240   3.0366
     3.2853   3.4750   3.5994   3.6265   3.6742   3.9013   3.9537   3.9615
     4.2365   4.2760   4.3514   4.5390   4.6090   4.7285   4.7956   4.8505
     4.9251   4.9288   4.9391   4.9715   5.1353   5.1885   5.2435   5.3024
     5.3225   5.3546   5.5075   5.5085   5.5472   5.5506   5.7185   5.7903
     5.7940   5.8196   5.8550   5.8649   5.9437   5.9651   6.0644   6.1043
     6.1090   6.1212   6.2289   6.2346   6.2814   6.3179   6.3720   6.4070
     6.4593   6.4635   6.4757   6.5689   6.6605   6.7125   6.7403   6.7765
     6.7868   6.8241   6.9961   7.1223   7.1458   7.2972   7.3708   7.4433
     7.4777   7.4875   7.4967   7.5355   7.5697   7.6951   7.7726   7.7808
     7.8095   7.8415   8.0256   8.0954   8.3093   8.3704   8.6063   8.6089
     8.8683   8.8840   9.0076   9.0565   9.1725   9.1872   9.1882   9.2245
     9.3728   9.4169   9.5251   9.5985   9.6607   9.8490   9.9257  10.0807
    10.1056  10.1997  10.2033  10.2842  10.4057  10.4449  10.5098  10.5168
    10.5197  10.5764  10.7219  10.8068  10.8341  10.8561  10.9261  10.9267
    10.9462  10.9861  11.0945  11.1387  11.1556  11.1895  11.2412  11.3437
    11.3853  11.4314  11.4797  11.4802  11.5021  11.5047  11.6480  11.6945
    11.7096  11.7229  11.8660  11.9567  12.2336  12.2568  12.2626  12.3562
    12.3680  12.3978  12.4740  12.4890  12.5326  12.6699  12.7656  12.7705
    12.7846  12.8945  12.9370  12.9618  13.0702  13.1489  13.1985  13.2272
    13.3891  13.4552  13.4910  13.5429  13.5849  13.6722  13.7433  13.7680
    13.7827  13.8170  13.8391  13.8463  13.9071  14.0672  14.1918  14.3850
    14.3876  14.4569  14.4625  14.5166  14.6482  14.6885  14.6890  14.6966
    14.8156  14.8872  14.9117  14.9515  15.2223  15.2567  15.3494  15.4145
    15.4394  15.4654  15.4921  15.6478  15.7228  15.7317  15.7997  15.8355
    15.9279  15.9305  15.9530  15.9560  16.0799  16.1493  16.2140  16.2253
    16.2515  16.2953  16.4907  16.5759  16.6342  16.7028  16.7690  16.8121
    16.8941  16.9553  17.0113  17.0489  17.1177  17.1368  17.1445  17.2596
    17.3144  17.3361  17.4546  17.4829  17.5247  17.5267  17.7163  17.7987
    17.8046  17.8709  18.1054  18.1663  18.2221  18.2287  18.2512  18.2719
    18.3711  18.3930  18.4453  18.4601  18.5290  18.5312  18.5463  18.5702
    18.7382  18.7986  19.0221  19.0389  19.1149  19.1723  19.4043  19.4090
    19.4964  19.5875  19.6081  19.6414  19.6545  19.6760  19.7648  19.7793
    19.8688  19.9006  19.9568  20.1280  20.2120  20.2289  20.2680  20.2708
    20.2741  20.3459  20.3924  20.4054  20.4208  20.4376  20.4537  20.4884
    20.5047  20.5256  20.5487  20.5740  20.5820  20.6269  20.7329  20.7363
    20.7584  20.8254  20.8712  20.8713  20.9223  20.9615  20.9899  21.0744
    21.1085  21.1420  21.1455  21.2373  21.3100  21.3703  21.4200  21.4848
    21.5007  21.5200  21.5667  21.5911  21.6410  21.6496  21.6686  21.6896
    21.7178  21.8124  21.8835  21.8891  21.9359  21.9517  21.9564  21.9696
    21.9785  22.0694  22.0713  22.1301  22.1502  22.1548  22.1791  22.1901
    22.2136  22.2619  22.2696  22.3330  22.3391  22.3501  22.3915  22.4663
    22.5677  22.6134  22.6147  22.6805  22.7046  22.7107  22.7274  22.7450
    22.7833  22.8526  22.8542  22.9191  22.9639  22.9731  22.9800  22.9950
    23.0134  23.0298  23.0627  23.1016  23.1377  23.1782  23.1833  23.2376
    23.3391  23.3565  23.4602  23.4750  23.5022  23.5687  23.5940  23.6053
    23.6497  23.6541  23.6571  23.7447  23.7636  23.8594  23.8858  23.9029
    24.0232  24.0459  24.0469  24.2408  24.2444  24.2457  24.2481  24.2785
    24.3029  24.3916  24.4074  24.4076  24.5096  24.5489  24.5997  24.6498
    24.6693  24.7296  24.7841  24.8460  24.8590  24.8684  24.9068  24.9139
    24.9549  24.9563  24.9758  25.0189  25.1026  25.1614  25.1840  25.1953
    25.1969  25.2075  25.2699  25.3374  25.3512  25.3548  25.3666  25.3905
    25.4307  25.4481  25.4579  25.5194

          k = 0.0000 0.0000-0.1174 ( 37532 PWs)   bands (ev):

   -28.8706 -28.8701 -28.5222 -28.5216 -19.8032 -19.8031 -19.6957 -19.6956
   -19.4181 -19.4181 -18.9936 -18.9936 -18.4448 -18.4448 -17.7669 -17.7669
   -17.0067 -17.0067 -16.2765 -16.2765 -14.7010 -14.7009 -13.8761 -13.8761
   -12.9613 -12.9612 -12.0813 -12.0813 -11.2966 -11.2965 -10.6235 -10.6231
   -10.4313 -10.4313  -9.6369  -9.6368  -9.4293  -9.4289  -9.4265  -9.4264
    -9.2109  -9.2109  -8.8260  -8.8257  -8.6510  -8.6505  -8.5231  -8.5228
    -8.3633  -8.3632  -8.3151  -8.3151  -8.2112  -8.2112  -7.9611  -7.9611
    -7.5632  -7.5632  -7.5112  -7.5110  -7.3468  -7.3467  -7.0890  -7.0889
    -6.9723  -6.9723  -6.4709  -6.4709  -5.8661  -5.8661  -5.8495  -5.8492
    -5.1830  -5.1830  -4.5114  -4.5113  -3.8920  -3.8919   0.1799   0.1800
     0.8729   0.8730   1.8378   1.8378   2.8691   2.8691   3.0570   3.0571
     3.4060   3.4061   3.6132   3.6132   3.7986   3.7986   3.9171   3.9171
     4.2670   4.2670   4.5477   4.5478   4.5523   4.5523   4.9207   4.9207
     4.9807   4.9807   5.0036   5.0037   5.1346   5.1346   5.2016   5.2017
     5.3412   5.3412   5.4848   5.4848   5.5110   5.5111   5.6978   5.6978
     5.8083   5.8083   5.9442   5.9442   5.9872   5.9872   6.0721   6.0721
     6.1235   6.1235   6.2000   6.2000   6.2221   6.2222   6.3598   6.3598
     6.5569   6.5569   6.5990   6.5990   6.6285   6.6285   6.6640   6.6641
     6.7355   6.7356   7.0631   7.0631   7.2651   7.2652   7.4492   7.4493
     7.5126   7.5126   7.5869   7.5869   7.6250   7.6250   7.6880   7.6880
     7.7081   7.7081   8.0647   8.0648   8.4246   8.4246   8.5150   8.5151
     9.0024   9.0024   9.0499   9.0499   9.0566   9.0566   9.2495   9.2495
     9.3354   9.3354   9.5920   9.5921   9.7513   9.7513   9.9508   9.9508
    10.2310  10.2311  10.2411  10.2412  10.3579  10.3580  10.5492  10.5492
    10.6588  10.6588  10.7130  10.7130  10.8483  10.8483  10.9454  10.9455
    10.9711  10.9711  11.0639  11.0639  11.1247  11.1247  11.3102  11.3102
    11.4617  11.4618  11.4904  11.4904  11.5546  11.5546  11.5723  11.5723
    11.6474  11.6474  11.8860  11.8860  12.3215  12.3216  12.3224  12.3224
    12.3755  12.3755  12.4767  12.4767  12.6355  12.6355  12.7412  12.7413
    12.8115  12.8115  12.9621  12.9622  13.0966  13.0966  13.2736  13.2736
    13.3556  13.3556  13.5123  13.5123  13.6450  13.6450  13.7874  13.7874
    13.7897  13.7897  13.8180  13.8180  13.9312  13.9312  14.3230  14.3230
    14.4810  14.4811  14.4933  14.4934  14.6518  14.6518  14.6739  14.6740
    14.8140  14.8140  14.9046  14.9046  15.3290  15.3290  15.3848  15.3848
    15.5165  15.5165  15.5458  15.5459  15.6842  15.6842  15.7683  15.7684
    15.9384  15.9384  15.9486  15.9486  16.1247  16.1247  16.2182  16.2183
    16.3424  16.3424  16.4574  16.4574  16.6330  16.6331  16.8810  16.8810
    16.9227  16.9227  16.9329  16.9329  17.1760  17.1760  17.2778  17.2778
    17.3160  17.3161  17.3678  17.3678  17.5042  17.5042  17.8081  17.8081
    17.8101  17.8101  18.2090  18.2091  18.2459  18.2459  18.2792  18.2792
    18.3772  18.3772  18.3971  18.3971  18.5082  18.5082  18.5267  18.5268
    18.7548  18.7548  19.0525  19.0526  19.0958  19.0958  19.4678  19.4679
    19.5227  19.5227  19.7324  19.7324  19.7521  19.7521  19.7831  19.7831
    20.0221  20.0222  20.0858  20.0859  20.2152  20.2152  20.2513  20.2513
    20.3258  20.3259  20.3584  20.3584  20.4218  20.4218  20.4657  20.4657
    20.5301  20.5302  20.6252  20.6252  20.6403  20.6403  20.6653  20.6654
    20.7688  20.7688  20.8372  20.8372  20.9414  20.9414  21.0143  21.0144
    21.1121  21.1121  21.1498  21.1499  21.3973  21.3973  21.5071  21.5071
    21.5524  21.5525  21.6436  21.6437  21.6744  21.6744  21.6942  21.6942
    21.7608  21.7608  21.8026  21.8026  21.8758  21.8758  21.8851  21.8851
    22.1253  22.1254  22.1559  22.1560  22.1978  22.1980  22.2329  22.2329
    22.2505  22.2505  22.2666  22.2666  22.4146  22.4147  22.5594  22.5595
    22.6274  22.6274  22.6890  22.6891  22.7349  22.7350  22.7405  22.7406
    22.8011  22.8011  22.8274  22.8275  22.9399  22.9399  22.9427  22.9427
    23.0017  23.0017  23.0467  23.0468  23.0557  23.0557  23.1971  23.1971
    23.2247  23.2247  23.4546  23.4546  23.5098  23.5098  23.6792  23.6792
    23.7810  23.7810  23.7898  23.7898  23.8596  23.8596  23.9101  23.9101
    23.9446  23.9446  24.0227  24.0228  24.0334  24.0334  24.2667  24.2667
    24.3480  24.3480  24.4435  24.4435  24.5845  24.5845  24.6277  24.6277
    24.7404  24.7404  24.8438  24.8438  24.8705  24.8706  24.9466  24.9466
    24.9606  24.9607  24.9926  24.9926  25.0027  25.0027  25.1091  25.1091
    25.2300  25.2300  25.2404  25.2404  25.3077  25.3077  25.4197  25.4197
    25.4347  25.4347  25.4446  25.4446

     the Fermi energy is    -1.9077 ev

     Writing output data file F16.save/

     init_run     :      6.84s CPU      6.97s WALL (       1 calls)
     electrons    :   1908.18s CPU   1922.00s WALL (       1 calls)

     Called by init_run:
     wfcinit      :      0.00s CPU      0.00s WALL (       1 calls)
     potinit      :      0.39s CPU      0.43s WALL (       1 calls)
     hinit0       :      5.81s CPU      5.84s WALL (       1 calls)

     Called by electrons:
     c_bands      :   1908.16s CPU   1921.99s WALL (       1 calls)
     v_of_rho     :      0.30s CPU      0.32s WALL (       1 calls)
     newd         :      0.24s CPU      0.28s WALL (       1 calls)

     Called by c_bands:
     init_us_2    :      0.10s CPU      0.11s WALL (      26 calls)
     cegterg      :   1857.94s CPU   1870.49s WALL (      31 calls)

     Called by sum_band:

     Called by *egterg:
     h_psi        :    303.93s CPU    308.03s WALL (     562 calls)
     s_psi        :     22.45s CPU     22.47s WALL (     562 calls)
     g_psi        :      2.42s CPU      2.42s WALL (     505 calls)
     cdiaghg      :   1011.60s CPU   1012.27s WALL (     531 calls)

     Called by h_psi:
     h_psi:pot    :    302.95s CPU    306.62s WALL (     562 calls)
     h_psi:calbec :     28.67s CPU     29.06s WALL (     562 calls)
     vloc_psi     :    251.89s CPU    255.15s WALL (     562 calls)
     add_vuspsi   :     22.38s CPU     22.41s WALL (     562 calls)

     General routines
     calbec       :     28.66s CPU     29.06s WALL (     562 calls)
     fft          :      0.33s CPU      0.35s WALL (      14 calls)
     ffts         :      0.00s CPU      0.01s WALL (       1 calls)
     fftw         :    229.57s CPU    232.57s WALL (  321916 calls)
     interpolate  :      0.03s CPU      0.03s WALL (       1 calls)
     davcio       :      0.00s CPU      0.63s WALL (      52 calls)

     Parallel routines
     fft_scatt_xy :     35.83s CPU     36.30s WALL (  321931 calls)
     fft_scatt_yz :     81.08s CPU     82.34s WALL (  321931 calls)

     PWSCF        : 32m 9.62s CPU    34m13.58s WALL


   This run was terminated on:  23: 9:26  21Apr2021            

=------------------------------------------------------------------------------=
   JOB DONE.
=------------------------------------------------------------------------------=
