
     Program PWSCF v.6.3 starts on 21Apr2021 at 22:16:39 

     This program is part of the open-source Quantum ESPRESSO suite
     for quantum simulation of materials; please cite
         "P. Giannozzi et al., J. Phys.:Condens. Matter 21 395502 (2009);
         "P. Giannozzi et al., J. Phys.:Condens. Matter 29 465901 (2017);
          URL http://www.quantum-espresso.org", 
     in publications or presentations arising from this work. More details at
     http://www.quantum-espresso.org/quote

     Parallel version (MPI), running on    16 processors
     R & G space division:  proc/nbgrp/npool/nimage =      16
     Waiting for input...
     Reading input from standard input
     Message from routine read_cards :
     DEPRECATED: no units specified in CELL_PARAMETERS card

     Current dimensions of program PWSCF are:
     Max number of different atomic species (ntypx) = 10
     Max number of k-points (npk) =  40000
     Max angular momentum in pseudopotentials (lmaxx) =  3

     Atomic positions and unit cell read from directory:
     /home/zfwang/scratch/GNRDATASET/AGNR/AGNR_OH_17/AGNR_OH_17.save/


     Subspace diagonalization in iterative solution of the eigenvalue problem:
     a serial algorithm will be used


     Parallelization info
     --------------------
     sticks:   dense  smooth     PW     G-vecs:    dense   smooth      PW
     Min        2706     903    254               101360    19505    2920
     Max        2708     904    256               101361    19506    2921
     Sum       43313   14449   4077              1621761   312081   46725



     bravais-lattice index     =            0
     lattice parameter (alat)  =       1.8897  a.u.
     unit-cell volume          =    9133.2094 (a.u.)^3
     number of atoms/cell      =           42
     number of atomic types    =            3
     number of electrons       =       164.00
     number of Kohn-Sham states=          500
     kinetic-energy cutoff     =      40.0000  Ry
     charge density cutoff     =     480.0000  Ry
     Exchange-correlation      = PBE ( 1  4  3  4 0 0)

     celldm(1)=  18.897261  celldm(2)=   3.177000  celldm(3)=   0.426000
     celldm(4)=   0.000000  celldm(5)=   0.000000  celldm(6)=   0.000000

     crystal axes: (cart. coord. in units of alat)
               a(1) = (  10.000000   0.000000   0.000000 )  
               a(2) = (   0.000000  31.770000   0.000000 )  
               a(3) = (   0.000000   0.000000   4.260000 )  

     reciprocal axes: (cart. coord. in units 2 pi/alat)
               b(1) = (  0.100000  0.000000  0.000000 )  
               b(2) = (  0.000000  0.031476  0.000000 )  
               b(3) = (  0.000000  0.000000  0.234742 )  


     PseudoPot. # 1 for C  read from file:
     /home/zfwang/hp_home/MySoftware/qe-6.3/pseudo/C.pbe-n-rrkjus_psl.0.1.UPF
     MD5 check sum: fff530ed632a789b3b184014e67dd7f1
     Pseudo is Ultrasoft + core correction, Zval =  4.0
     Generated using "atomic" code by A. Dal Corso v.5.0.2 svn rev. 9415
     Using radial grid of 1073 points,  4 beta functions with: 
                l(1) =   0
                l(2) =   0
                l(3) =   1
                l(4) =   1
     Q(r) pseudized with 0 coefficients 


     PseudoPot. # 2 for O  read from file:
     /home/zfwang/hp_home/MySoftware/qe-6.3/pseudo/O.pbe-n-rrkjus_psl.0.1.UPF
     MD5 check sum: 73b3d1dec572cf22214b1d95c6304b69
     Pseudo is Ultrasoft + core correction, Zval =  6.0
     Generated using "atomic" code by A. Dal Corso v.6.3MaX
     Using radial grid of 1095 points,  4 beta functions with: 
                l(1) =   0
                l(2) =   0
                l(3) =   1
                l(4) =   1
     Q(r) pseudized with 0 coefficients 


     PseudoPot. # 3 for H  read from file:
     /home/zfwang/hp_home/MySoftware/qe-6.3/pseudo/H.pbe-rrkjus_psl.0.1.UPF
     MD5 check sum: e164a6907b691c6980f16942be34de84
     Pseudo is Ultrasoft, Zval =  1.0
     Generated using "atomic" code by A. Dal Corso v.5.0.2 svn rev. 9415
     Using radial grid of  929 points,  2 beta functions with: 
                l(1) =   0
                l(2) =   0
     Q(r) pseudized with 0 coefficients 


     atomic species   valence    mass     pseudopotential
        C              4.00    12.01070     C ( 1.00)
        O              6.00    18.99840     O ( 1.00)
        H              1.00     1.00794     H ( 1.00)

     No symmetry found



   Cartesian axes

     site n.     atom                  positions (alat units)
         1           C   tau(   1) = (   4.8003039   6.0722439   2.8021241  )
         2           C   tau(   2) = (   4.9416253   7.2524801   3.5491314  )
         3           C   tau(   3) = (   5.1441718   6.0899376   1.4676529  )
         4           C   tau(   4) = (   5.0090457   8.4864113   2.8367968  )
         5           C   tau(   5) = (   5.0181348   9.7226620   3.5490543  )
         6           C   tau(   6) = (   5.0446229   7.2561820   0.7085371  )
         7           C   tau(   7) = (   4.9981741   8.4898161   1.4215325  )
         8           C   tau(   8) = (   5.0110967  10.9522048   2.8411836  )
         9           C   tau(   9) = (   5.0029032  12.1858043   3.5495879  )
        10           C   tau(  10) = (   4.9946902   9.7241676   0.7089051  )
        11           C   tau(  11) = (   4.9993328  10.9533300   1.4169385  )
        12           C   tau(  12) = (   4.9988355  13.4200933   2.8395819  )
        13           C   tau(  13) = (   4.9989728  14.6511806   3.5470377  )
        14           C   tau(  14) = (   5.0015477  12.1863062   0.7084520  )
        15           C   tau(  15) = (   5.0015985  13.4207537   1.4180337  )
        16           C   tau(  16) = (   5.0002625  15.8849447   2.8376074  )
        17           C   tau(  17) = (   5.0010653  17.1187342   3.5457449  )
        18           C   tau(  18) = (   5.0010868  14.6514333   0.7096956  )
        19           C   tau(  19) = (   5.0002672  15.8851746   1.4179235  )
        20           C   tau(  20) = (   5.0016796  18.3494636   2.8372343  )
        21           C   tau(  21) = (   5.0017514  19.5839368   3.5466108  )
        22           C   tau(  22) = (   4.9989445  17.1189926   0.7084372  )
        23           C   tau(  23) = (   4.9989032  18.3501758   1.4156698  )
        24           C   tau(  24) = (   4.9994640  20.8166580   2.8378750  )
        25           C   tau(  25) = (   4.9945131  22.0457438   3.5456809  )
        26           C   tau(  26) = (   5.0031037  19.5844157   0.7054196  )
        27           C   tau(  27) = (   5.0111945  20.8180811   1.4136300  )
        28           C   tau(  28) = (   4.9977204  23.2798430   2.8329047  )
        29           C   tau(  29) = (   5.0441907  24.5132344   3.5460110  )
        30           C   tau(  30) = (   5.0179340  22.0473083   0.7055098  )
        31           C   tau(  31) = (   5.0087241  23.2835219   1.4176044  )
        32           C   tau(  32) = (   5.1443649  25.6795407   2.7872669  )
        33           C   tau(  33) = (   4.9414813  24.5176687   0.7053943  )
        34           C   tau(  34) = (   4.8008822  25.6977989   1.4527058  )
        35           O   tau(  35) = (   4.4047713   4.8226938   3.1862540  )
        36           O   tau(  36) = (   5.5318897   4.8349599   1.0139660  )
        37           O   tau(  37) = (   5.5310482  26.9341720   3.2418754  )
        38           O   tau(  38) = (   4.4057270  26.9481534   1.0702186  )
        39           H   tau(  39) = (   5.2681012   4.2591785   1.7861896  )
        40           H   tau(  40) = (   4.7926862   4.6117818   4.1021753  )
        41           H   tau(  41) = (   4.7917094  27.1594444   0.1537887  )
        42           H   tau(  42) = (   5.2674786  27.5093870   2.4690605  )

     number of k points=    26  Marzari-Vanderbilt smearing, width (Ry)=  0.0100
                       cart. coord. in units 2pi/alat
        k(    1) = (   0.0000000   0.0000000   0.0000000), wk =   0.0400000
        k(    2) = (   0.0000000   0.0000000   0.0046948), wk =   0.0800000
        k(    3) = (   0.0000000   0.0000000   0.0093897), wk =   0.0800000
        k(    4) = (   0.0000000   0.0000000   0.0140845), wk =   0.0800000
        k(    5) = (   0.0000000   0.0000000   0.0187793), wk =   0.0800000
        k(    6) = (   0.0000000   0.0000000   0.0234742), wk =   0.0800000
        k(    7) = (   0.0000000   0.0000000   0.0281690), wk =   0.0800000
        k(    8) = (   0.0000000   0.0000000   0.0328638), wk =   0.0800000
        k(    9) = (   0.0000000   0.0000000   0.0375587), wk =   0.0800000
        k(   10) = (   0.0000000   0.0000000   0.0422535), wk =   0.0800000
        k(   11) = (   0.0000000   0.0000000   0.0469484), wk =   0.0800000
        k(   12) = (   0.0000000   0.0000000   0.0516432), wk =   0.0800000
        k(   13) = (   0.0000000   0.0000000   0.0563380), wk =   0.0800000
        k(   14) = (   0.0000000   0.0000000   0.0610329), wk =   0.0800000
        k(   15) = (   0.0000000   0.0000000   0.0657277), wk =   0.0800000
        k(   16) = (   0.0000000   0.0000000   0.0704225), wk =   0.0800000
        k(   17) = (   0.0000000   0.0000000   0.0751174), wk =   0.0800000
        k(   18) = (   0.0000000   0.0000000   0.0798122), wk =   0.0800000
        k(   19) = (   0.0000000   0.0000000   0.0845070), wk =   0.0800000
        k(   20) = (   0.0000000   0.0000000   0.0892019), wk =   0.0800000
        k(   21) = (   0.0000000   0.0000000   0.0938967), wk =   0.0800000
        k(   22) = (   0.0000000   0.0000000   0.0985915), wk =   0.0800000
        k(   23) = (   0.0000000   0.0000000   0.1032864), wk =   0.0800000
        k(   24) = (   0.0000000   0.0000000   0.1079812), wk =   0.0800000
        k(   25) = (   0.0000000   0.0000000   0.1126761), wk =   0.0800000
        k(   26) = (   0.0000000   0.0000000  -0.1173709), wk =   0.0400000

     Dense  grid:  1621761 G-vectors     FFT dimensions: ( 135, 432,  60)

     Smooth grid:   312081 G-vectors     FFT dimensions: (  80, 243,  36)

     Estimated max dynamical RAM per process >     475.01 MB

     Estimated total dynamical RAM >       7.42 GB

     Check: negative/imaginary core charge=   -0.000006    0.000000

     The potential is recalculated from file :
     /home/zfwang/scratch/GNRDATASET/AGNR/AGNR_OH_17/AGNR_OH_17.save/charge-density.dat


     negative rho (up, down):  9.031E-04 0.000E+00
     Starting wfcs are  156 randomized atomic wfcs +  344 random wfcs

     Band Structure Calculation
     Davidson diagonalization with overlap

     ethr =  6.10E-09,  avg # of iterations = 18.7

     total cpu time spent up to now is     2093.4 secs

     End of band structure calculation

          k = 0.0000 0.0000 0.0000 ( 38931 PWs)   bands (ev):

   -25.6376 -25.6360 -23.3714 -23.3710 -20.5739 -20.4702 -20.2109 -19.8248
   -19.3218 -18.7096 -17.9836 -17.1862 -16.3581 -15.6136 -15.3367 -15.2944
   -15.0957 -15.0755 -14.7472 -14.7020 -14.3232 -14.3209 -14.1490 -14.1072
   -13.8519 -13.7107 -13.6871 -13.2760 -12.8323 -12.5559 -12.2158 -11.9027
   -11.7918 -11.5468 -11.2826 -11.0486 -10.7344 -10.6610 -10.2639  -9.9463
    -9.9150  -9.4395  -9.2395  -9.1862  -8.9082  -8.8634  -8.6185  -8.5704
    -8.5544  -8.2542  -8.2416  -7.9620  -7.9364  -7.8070  -7.7310  -7.5195
    -7.3340  -7.1595  -6.9287  -6.7078  -6.6054  -6.0951  -6.0930  -6.0039
    -5.6079  -5.5405  -5.2538  -5.0954  -4.9978  -4.6696  -4.3838  -4.3339
    -4.2493  -3.4395  -3.3483  -3.1760  -2.8422  -2.5331  -2.3702  -1.7812
    -1.6803  -1.0812  -0.9242  -0.3785  -0.2435  -0.0069   0.2726   0.4822
     0.6122   0.6627   1.1042   1.3231   1.6591   1.9337   2.1426   2.2473
     2.5399   2.7651   2.8033   2.8771   3.0104   3.1970   3.2984   3.5660
     3.6516   3.8121   3.8249   3.8848   4.0117   4.2211   4.5044   4.5467
     4.6477   4.6781   4.8330   5.0785   5.0974   5.3446   5.3916   5.4286
     5.5373   5.6095   6.0971   6.1357   6.2313   6.5460   6.5665   6.6806
     6.6825   6.7970   6.8097   6.9148   6.9183   7.0036   7.0300   7.2772
     7.2981   7.3806   7.4312   7.4959   7.5193   7.6391   7.7246   7.7513
     7.8636   7.9857   8.0324   8.0811   8.3298   8.4024   8.4486   8.5715
     8.5810   8.6817   8.6957   8.7884   8.9396   9.0038   9.0972   9.1545
     9.2181   9.3794   9.3956   9.4595   9.4981   9.5247   9.5753   9.6264
     9.6510   9.7611   9.7854   9.8029   9.8575   9.9113   9.9362   9.9521
     9.9699  10.0106  10.0639  10.0641  10.1428  10.1656  10.2238  10.2730
    10.3736  10.3961  10.4226  10.4847  10.4866  10.5048  10.5661  10.5958
    10.6087  10.7206  10.7465  10.8357  10.8739  10.8991  10.9031  10.9325
    10.9704  11.0165  11.0727  11.0987  11.1692  11.1932  11.2268  11.2317
    11.2813  11.3709  11.3858  11.3881  11.4356  11.4564  11.4629  11.5353
    11.6043  11.6202  11.6298  11.6437  11.6511  11.6979  11.7218  11.8659
    11.8799  11.9054  11.9399  11.9621  11.9956  12.0060  12.0224  12.0327
    12.1256  12.1283  12.2304  12.2577  12.3692  12.4132  12.4170  12.4410
    12.4695  12.5268  12.5598  12.5658  12.6352  12.6865  12.7303  12.7666
    12.8274  12.8694  12.9073  12.9164  12.9688  13.0273  13.0457  13.1464
    13.2069  13.2615  13.3442  13.3675  13.4144  13.5258  13.5791  13.6013
    13.6628  13.6681  13.6829  13.7672  13.7975  14.0506  14.0850  14.1579
    14.1639  14.2072  14.2179  14.2908  14.2932  14.3203  14.4326  14.4639
    14.4924  14.6143  14.6748  14.6786  14.7949  14.9083  14.9387  14.9698
    14.9742  14.9958  15.0445  15.1612  15.2332  15.2561  15.2796  15.2965
    15.4054  15.4499  15.4933  15.6230  15.6258  15.6738  15.6905  15.7662
    15.7767  15.8836  15.9120  15.9166  15.9715  15.9849  16.0469  16.1001
    16.1938  16.2571  16.2868  16.3465  16.3658  16.4022  16.4295  16.5085
    16.5639  16.5667  16.6174  16.6583  16.6654  16.8065  16.8620  16.8949
    16.9055  16.9412  17.0204  17.0471  17.1066  17.2225  17.3158  17.3365
    17.3478  17.4224  17.4504  17.4655  17.4719  17.4779  17.5515  17.5872
    17.6419  17.6940  17.6988  17.7912  17.8852  17.9705  18.0169  18.0307
    18.0561  18.1236  18.1628  18.1647  18.1987  18.2243  18.3293  18.3743
    18.3945  18.4083  18.4464  18.4685  18.4807  18.4920  18.5431  18.5475
    18.5901  18.6029  18.6200  18.6788  18.8279  18.8457  18.8841  19.0331
    19.0413  19.0945  19.1007  19.1043  19.1756  19.1791  19.2360  19.2604
    19.3106  19.3644  19.4187  19.4986  19.5688  19.5743  19.5922  19.8252
    19.8496  19.8723  19.9872  19.9936  20.1102  20.1160  20.1280  20.1760
    20.1848  20.2344  20.2613  20.3430  20.3743  20.4376  20.5090  20.6745
    20.7126  20.7142  20.8298  20.8947  20.9662  20.9876  21.0330  21.1397
    21.1566  21.2598  21.2909  21.3175  21.3252  21.3307  21.5191  21.5358
    21.5758  21.5857  21.5893  21.6218  21.6645  21.7139  21.7477  21.7694
    21.7870  21.8394  21.9190  21.9399  22.0019  22.0107  22.0357  22.0623
    22.0987  22.1194  22.1328  22.1710  22.1883  22.2697  22.2799  22.3278
    22.4278  22.4373  22.4880  22.4962  22.5150  22.5229  22.5865  22.5891
    22.7096  22.7119  22.7569  22.8374  22.8432  22.8920  22.9542  22.9704
    23.0127  23.0153  23.0643  23.0743  23.0969  23.1563  23.1774  23.2154
    23.3277  23.3401  23.3542  23.3571  23.4259  23.4991  23.5218  23.5358
    23.5361  23.5595  23.6057  23.6348  23.6803  23.6945  23.7096  23.7403
    23.7680  23.7809  23.8643  23.9130  23.9963  24.0613  24.1594  24.1877
    24.2038  24.2672  24.4180  24.4340

          k = 0.0000 0.0000 0.0047 ( 38955 PWs)   bands (ev):

   -25.6362 -25.6346 -23.3740 -23.3736 -20.5715 -20.4679 -20.2086 -19.8225
   -19.3195 -18.7073 -17.9813 -17.1840 -16.3563 -15.6180 -15.3886 -15.3284
   -15.1577 -15.0410 -14.8039 -14.6627 -14.3568 -14.2858 -14.1236 -14.0740
   -13.8765 -13.6896 -13.6166 -13.2832 -12.8370 -12.5604 -12.2185 -11.8907
   -11.7913 -11.5543 -11.2667 -11.0466 -10.7425 -10.6486 -10.2599  -9.9465
    -9.9145  -9.4334  -9.2477  -9.1792  -8.9082  -8.8610  -8.6146  -8.5712
    -8.5496  -8.2566  -8.2362  -7.9667  -7.9327  -7.8061  -7.7296  -7.5166
    -7.3312  -7.1565  -6.9382  -6.7032  -6.5986  -6.1233  -6.0721  -5.9998
    -5.6117  -5.5385  -5.2543  -5.1034  -4.9951  -4.6770  -4.3879  -4.3322
    -4.2577  -3.4389  -3.3642  -3.1923  -2.8596  -2.5354  -2.3892  -1.8095
    -1.6881  -1.1816  -0.8249  -0.3530  -0.2351   0.0138   0.2925   0.5019
     0.6317   0.6616   1.1076   1.3264   1.6559   1.9370   2.1457   2.2505
     2.5396   2.7647   2.8064   2.8801   3.0131   3.1999   3.3011   3.5692
     3.6489   3.8153   3.8275   3.8879   4.0134   4.2236   4.5075   4.5495
     4.6503   4.6810   4.8299   5.0814   5.0986   5.3474   5.3942   5.4305
     5.5399   5.6103   6.0988   6.1342   6.2322   6.5437   6.5698   6.6770
     6.6820   6.7993   6.8104   6.9113   6.9162   7.0045   7.0309   7.2838
     7.2987   7.3769   7.4307   7.4903   7.5240   7.6369   7.7241   7.7549
     7.8545   7.9857   8.0174   8.0806   8.3329   8.3997   8.4439   8.5471
     8.5794   8.6769   8.6957   8.7972   8.9354   8.9972   9.0988   9.1539
     9.2226   9.3147   9.3991   9.4590   9.4862   9.5067   9.5572   9.6324
     9.6427   9.6855   9.7025   9.7567   9.7966   9.8230   9.8700   9.9506
     9.9844  10.0055  10.0624  10.0864  10.1432  10.1789  10.2530  10.3164
    10.3459  10.4029  10.4499  10.4686  10.5041  10.5371  10.5602  10.5985
    10.6639  10.7045  10.7334  10.8151  10.8453  10.8596  10.8997  10.9660
    10.9691  10.9772  11.0071  11.0720  11.1064  11.1869  11.2535  11.2851
    11.3119  11.3263  11.3847  11.4061  11.4306  11.4715  11.4889  11.5298
    11.5485  11.5905  11.6185  11.6838  11.7474  11.7831  11.7984  11.8451
    11.8551  11.8830  11.9470  11.9716  12.0371  12.0389  12.0624  12.0757
    12.1349  12.1537  12.2103  12.2439  12.2594  12.3181  12.3930  12.4216
    12.4350  12.4555  12.5224  12.5503  12.7051  12.7585  12.7833  12.8491
    12.8575  12.8781  12.9230  12.9468  12.9950  13.0314  13.0665  13.0908
    13.1804  13.2650  13.3419  13.4375  13.4684  13.4915  13.5271  13.5645
    13.5895  13.6533  13.7753  13.8119  13.8229  14.0445  14.0850  14.1290
    14.2117  14.2350  14.2518  14.2693  14.3311  14.3406  14.4704  14.4893
    14.5406  14.5892  14.6480  14.6731  14.7704  14.8446  14.8955  14.9498
    14.9996  15.0197  15.0416  15.1557  15.1887  15.2300  15.2845  15.3355
    15.4134  15.4388  15.4984  15.5407  15.5556  15.6723  15.6945  15.7880
    15.7984  15.8432  15.9159  15.9520  16.0074  16.0899  16.1173  16.1420
    16.1749  16.2438  16.2758  16.3321  16.3691  16.4082  16.4939  16.5299
    16.5567  16.5856  16.6040  16.6804  16.6982  16.7440  16.7957  16.8734
    16.9288  16.9485  17.0127  17.0600  17.1076  17.1912  17.2518  17.3339
    17.3755  17.3824  17.4199  17.4669  17.4967  17.5386  17.5749  17.6182
    17.6575  17.7173  17.7688  17.8361  17.8821  17.9807  18.0287  18.0360
    18.0623  18.1128  18.1445  18.1618  18.2076  18.2219  18.2855  18.3510
    18.3649  18.4089  18.4219  18.4473  18.4584  18.4874  18.4928  18.5578
    18.5837  18.5973  18.6156  18.6465  18.7872  18.8554  18.8733  18.9639
    19.0363  19.0869  19.1336  19.1756  19.1917  19.2353  19.2807  19.3121
    19.3412  19.3655  19.4200  19.4607  19.5041  19.6574  19.7064  19.8067
    19.8785  19.8888  20.0032  20.0289  20.0488  20.0975  20.1294  20.1750
    20.2100  20.2531  20.3002  20.3316  20.3501  20.4682  20.5203  20.6573
    20.6830  20.7293  20.8183  20.8553  20.9671  21.0420  21.0674  21.1478
    21.2386  21.2604  21.2834  21.3013  21.3475  21.3537  21.4981  21.5232
    21.5520  21.5715  21.5916  21.6205  21.6308  21.6563  21.6784  21.7531
    21.7908  21.8478  21.8979  21.9575  21.9820  21.9920  22.0275  22.0692
    22.1205  22.1426  22.1538  22.2411  22.2562  22.2855  22.2899  22.3220
    22.4167  22.4369  22.4659  22.5142  22.5271  22.5595  22.5856  22.6105
    22.6669  22.7221  22.7817  22.8075  22.8558  22.8713  22.9255  22.9613
    22.9712  23.0122  23.0365  23.0479  23.1046  23.1187  23.1715  23.2167
    23.2913  23.3450  23.3615  23.4094  23.4473  23.4798  23.4943  23.5412
    23.5775  23.5814  23.6126  23.6515  23.6756  23.6905  23.7521  23.7776
    23.8209  23.8249  23.8924  23.9596  23.9689  24.0793  24.1331  24.1745
    24.2201  24.2323  24.3729  24.4382

          k = 0.0000 0.0000 0.0094 ( 38931 PWs)   bands (ev):

   -25.6318 -25.6302 -23.3818 -23.3814 -20.5644 -20.4608 -20.2016 -19.8156
   -19.3126 -18.7005 -17.9746 -17.1776 -16.3511 -15.6378 -15.5081 -15.4131
   -15.2687 -15.0231 -14.9054 -14.6170 -14.4292 -14.2081 -14.0782 -13.9965
   -13.8656 -13.5952 -13.5019 -13.3033 -12.8513 -12.5723 -12.2262 -11.8580
   -11.7873 -11.5747 -11.2224 -11.0396 -10.7654 -10.6124 -10.2503  -9.9535
    -9.9046  -9.4173  -9.2644  -9.1648  -8.9074  -8.8534  -8.6094  -8.5663
    -8.5365  -8.2592  -8.2247  -7.9829  -7.9203  -7.8023  -7.7253  -7.5071
    -7.3233  -7.1529  -6.9580  -6.6913  -6.5812  -6.1592  -6.0563  -5.9884
    -5.6203  -5.5354  -5.2572  -5.1214  -4.9907  -4.6992  -4.4000  -4.3274
    -4.2828  -3.4375  -3.4103  -3.2403  -2.9103  -2.5439  -2.4426  -1.8862
    -1.7140  -1.3343  -0.6755  -0.2822  -0.2100   0.0742   0.3508   0.5597
     0.6583   0.6893   1.1179   1.3359   1.6462   1.9467   2.1549   2.2601
     2.5382   2.7643   2.8158   2.8892   3.0213   3.2085   3.3091   3.5788
     3.6406   3.8247   3.8353   3.8973   4.0189   4.2308   4.5168   4.5580
     4.6579   4.6897   4.8210   5.0901   5.1020   5.3559   5.4020   5.4363
     5.5478   5.6128   6.1025   6.1313   6.2348   6.5388   6.5769   6.6663
     6.6799   6.8041   6.8136   6.9025   6.9092   7.0071   7.0344   7.2977
     7.3062   7.3672   7.4286   7.4814   7.5289   7.6326   7.7182   7.7645
     7.8353   7.9602   7.9992   8.0795   8.3414   8.3890   8.4318   8.4851
     8.5496   8.6695   8.7116   8.8173   8.9238   8.9774   9.0964   9.1453
     9.1724   9.2555   9.3098   9.3881   9.4409   9.4776   9.4909   9.5000
     9.5483   9.6490   9.6551   9.6674   9.7666   9.7801   9.7923   9.8979
     9.9200   9.9706  10.0412  10.0578  10.0981  10.1796  10.1899  10.3120
    10.3426  10.3836  10.3991  10.4363  10.5134  10.5584  10.5929  10.6273
    10.6513  10.7702  10.7829  10.7962  10.8158  10.8332  10.8907  10.9188
    10.9579  10.9822  10.9900  11.0234  11.0852  11.1898  11.1952  11.2623
    11.2660  11.3027  11.3916  11.4110  11.4847  11.5000  11.5309  11.5732
    11.5776  11.6151  11.6430  11.6961  11.8033  11.8183  11.8384  11.8605
    11.8917  11.9309  11.9626  12.0363  12.0574  12.0629  12.0691  12.0792
    12.1672  12.1822  12.2069  12.2235  12.2583  12.2748  12.3027  12.3216
    12.4025  12.4564  12.5131  12.6199  12.6954  12.7332  12.8085  12.8382
    12.8710  12.8816  12.9918  12.9994  13.0255  13.0932  13.1479  13.2209
    13.2637  13.2974  13.3159  13.3478  13.3989  13.4354  13.5007  13.5689
    13.6314  13.7230  13.8063  13.9082  13.9413  14.0226  14.0794  14.1311
    14.2226  14.2292  14.2891  14.3244  14.3814  14.4276  14.4703  14.5439
    14.6039  14.6142  14.6377  14.6903  14.7002  14.8047  14.8364  14.9398
    14.9861  14.9961  15.0353  15.0891  15.1093  15.2055  15.2203  15.3193
    15.4141  15.4760  15.4914  15.5169  15.5375  15.6493  15.6843  15.7686
    15.8307  15.8675  15.9611  16.0068  16.0297  16.0825  16.1423  16.1817
    16.2305  16.2921  16.3117  16.4002  16.4217  16.4594  16.5193  16.5469
    16.5706  16.5993  16.6222  16.6419  16.6792  16.8104  16.8271  16.8546
    16.8973  16.9327  16.9641  17.0713  17.0947  17.1485  17.2106  17.3080
    17.3346  17.4243  17.4378  17.4636  17.5240  17.6131  17.6222  17.6731
    17.6843  17.7327  17.8001  17.8692  17.9570  17.9884  18.0263  18.0280
    18.0836  18.0959  18.1329  18.1864  18.2081  18.2237  18.2563  18.2930
    18.2968  18.3637  18.3688  18.3739  18.4329  18.4476  18.4809  18.4868
    18.5700  18.5983  18.6368  18.6524  18.7382  18.8034  18.8987  18.9385
    19.0210  19.0390  19.1466  19.2487  19.2681  19.3008  19.3259  19.3456
    19.4178  19.4470  19.4799  19.5037  19.5442  19.7102  19.7995  19.8204
    19.8977  19.9433  19.9649  20.0124  20.0671  20.0752  20.1098  20.2189
    20.2672  20.2907  20.3242  20.3609  20.4356  20.5184  20.5640  20.5787
    20.7011  20.7320  20.8193  20.8681  20.9422  21.0941  21.1186  21.1859
    21.2271  21.2642  21.2785  21.3392  21.3563  21.3928  21.4141  21.4526
    21.4979  21.5271  21.5505  21.6026  21.6608  21.6828  21.7107  21.7451
    21.7626  21.8178  21.8584  21.9137  21.9362  22.0077  22.0549  22.0865
    22.1280  22.1625  22.1862  22.2356  22.2659  22.3017  22.3570  22.4092
    22.4119  22.4514  22.4969  22.5356  22.5508  22.5919  22.6195  22.6304
    22.6812  22.6998  22.7516  22.7995  22.8277  22.8456  22.8773  22.8971
    22.9167  22.9637  23.0231  23.0413  23.0810  23.1286  23.1749  23.2267
    23.2777  23.3481  23.3807  23.4565  23.4734  23.4846  23.5020  23.5532
    23.5670  23.6081  23.6410  23.6633  23.7250  23.7437  23.7948  23.8313
    23.8660  23.9050  23.9159  23.9527  24.0461  24.0863  24.1497  24.1650
    24.2292  24.2999  24.3293  24.4164

          k = 0.0000 0.0000 0.0141 ( 38899 PWs)   bands (ev):

   -25.6246 -25.6230 -23.3946 -23.3943 -20.5526 -20.4491 -20.1899 -19.8040
   -19.3011 -18.6891 -17.9634 -17.1668 -16.3428 -15.6990 -15.6591 -15.4954
   -15.4095 -15.0778 -14.9850 -14.6240 -14.4896 -14.1445 -14.0501 -13.8661
   -13.7530 -13.4674 -13.3782 -13.3259 -12.8758 -12.5877 -12.2373 -11.8143
   -11.7746 -11.5997 -11.1606 -11.0224 -10.7987 -10.5572 -10.2387  -9.9743
    -9.8757  -9.3973  -9.2819  -9.1479  -8.9035  -8.8407  -8.6118  -8.5487
    -8.5135  -8.2602  -8.2098  -8.0104  -7.8998  -7.7930  -7.7170  -7.4903
    -7.3117  -7.1626  -6.9684  -6.6743  -6.5598  -6.2007  -6.0450  -5.9718
    -5.6301  -5.5367  -5.2671  -5.1384  -4.9907  -4.7354  -4.4203  -4.3293
    -4.3146  -3.4863  -3.4334  -3.3170  -2.9907  -2.5720  -2.5120  -1.9971
    -1.7588  -1.4930  -0.5222  -0.1893  -0.1581   0.1690   0.4440   0.6514
     0.6545   0.7822   1.1351   1.3515   1.6307   1.9629   2.1703   2.2759
     2.5335   2.7656   2.8314   2.9043   3.0354   3.2228   3.3219   3.5948
     3.6265   3.8403   3.8482   3.9130   4.0290   4.2424   4.5321   4.5720
     4.6695   4.7043   4.8079   5.1040   5.1077   5.3701   5.4145   5.4459
     5.5604   5.6184   6.1009   6.1341   6.2387   6.5319   6.5838   6.6482
     6.6763   6.8038   6.8242   6.8890   6.9006   7.0115   7.0413   7.2995
     7.3361   7.3544   7.4243   7.4740   7.5263   7.6292   7.6996   7.7776
     7.8237   7.8892   8.0042   8.0781   8.3439   8.3616   8.3877   8.4225
     8.5012   8.6801   8.7273   8.8362   8.8937   8.9374   8.9903   9.0862
     9.1206   9.1370   9.1932   9.2343   9.3061   9.3740   9.4780   9.5037
     9.5321   9.5546   9.5787   9.6567   9.6761   9.7026   9.7493   9.7791
     9.9079   9.9447  10.0177  10.0416  10.0945  10.1131  10.1392  10.1611
    10.1871  10.2643  10.2840  10.3683  10.4613  10.4768  10.5161  10.5309
    10.6801  10.7691  10.8197  10.8608  10.8846  10.9080  10.9236  10.9524
    10.9618  10.9792  10.9888  11.0510  11.0730  11.1409  11.1765  11.2528
    11.2866  11.3236  11.3953  11.4122  11.5108  11.5323  11.5587  11.5776
    11.6160  11.6355  11.6734  11.6854  11.7200  11.7963  11.8343  11.8812
    11.9019  11.9505  11.9785  11.9958  12.0248  12.0951  12.1250  12.1962
    12.2078  12.2285  12.2507  12.2807  12.2904  12.2999  12.3612  12.3833
    12.4038  12.4554  12.5224  12.6083  12.6377  12.7773  12.8094  12.8398
    12.8593  12.8740  13.0004  13.0388  13.0812  13.1172  13.1619  13.1894
    13.2918  13.3331  13.3568  13.3844  13.4140  13.5329  13.5696  13.5983
    13.6391  13.8400  13.9178  13.9669  13.9909  14.0635  14.0817  14.1500
    14.1743  14.2491  14.2903  14.3370  14.4013  14.4598  14.5229  14.5503
    14.6023  14.6400  14.6637  14.7422  14.7803  14.8101  14.8567  14.9143
    14.9313  14.9781  14.9821  15.0404  15.0682  15.0844  15.1951  15.2519
    15.4927  15.4969  15.5420  15.5683  15.5730  15.6190  15.6687  15.7600
    15.8207  15.8524  15.9045  15.9874  16.0000  16.1108  16.1399  16.1838
    16.2980  16.3532  16.4136  16.4337  16.4930  16.5213  16.5343  16.5964
    16.6144  16.6320  16.6759  16.6902  16.7418  16.7638  16.8056  16.8466
    16.8709  16.9699  17.0464  17.0843  17.1308  17.2141  17.2521  17.2825
    17.3091  17.4267  17.4579  17.4684  17.5042  17.5566  17.5929  17.6526
    17.7232  17.7837  17.8266  17.8792  17.9174  17.9640  17.9920  18.0100
    18.0484  18.1038  18.1136  18.1330  18.1796  18.2148  18.2263  18.2662
    18.2839  18.3473  18.3773  18.3897  18.4406  18.4522  18.4830  18.5264
    18.5714  18.6100  18.6294  18.6722  18.6993  18.8598  18.8880  18.9567
    18.9916  19.0535  19.1251  19.2650  19.3118  19.3163  19.3994  19.4569
    19.4730  19.4967  19.5319  19.5730  19.6246  19.6880  19.8208  19.8464
    19.8849  19.9173  20.0030  20.0549  20.0806  20.1262  20.1882  20.2015
    20.3656  20.3993  20.4289  20.4649  20.5228  20.5561  20.6028  20.6171
    20.7392  20.7681  20.8346  20.9075  20.9521  21.0290  21.1048  21.1194
    21.1695  21.2309  21.2583  21.2745  21.3671  21.3806  21.3952  21.4417
    21.5044  21.5605  21.5913  21.6482  21.6695  21.7072  21.7155  21.7552
    21.7769  21.8108  21.8598  21.9028  21.9162  21.9636  22.0365  22.0707
    22.1364  22.1855  22.1994  22.2414  22.2777  22.3152  22.3413  22.3526
    22.4098  22.4380  22.5145  22.5556  22.5611  22.6136  22.6450  22.6659
    22.6860  22.7108  22.7876  22.7968  22.8391  22.8460  22.8700  22.8828
    22.9090  22.9763  23.0011  23.0425  23.0529  23.1329  23.2046  23.2463
    23.3316  23.3648  23.4075  23.4498  23.4874  23.5131  23.5256  23.5469
    23.5893  23.6452  23.6653  23.6930  23.7280  23.7821  23.7900  23.8112
    23.8644  23.9274  23.9795  24.0422  24.0714  24.1257  24.1953  24.2145
    24.2742  24.3279  24.3954  24.4184

          k = 0.0000 0.0000 0.0188 ( 38925 PWs)   bands (ev):

   -25.6145 -25.6129 -23.4125 -23.4122 -20.5361 -20.4327 -20.1736 -19.7877
   -19.2850 -18.6732 -17.9478 -17.1518 -16.3322 -15.8249 -15.8203 -15.5688
   -15.5402 -15.2028 -15.0371 -14.6852 -14.5417 -14.1152 -13.9762 -13.6949
   -13.5953 -13.3979 -13.2959 -13.2287 -12.9112 -12.6022 -12.2494 -11.7812
   -11.7542 -11.6048 -11.1016 -10.9911 -10.8257 -10.4935 -10.2256 -10.0009
    -9.8344  -9.3796  -9.2969  -9.1279  -8.8949  -8.8236  -8.6153  -8.5261
    -8.4777  -8.2623  -8.1932  -8.0426  -7.8725  -7.7769  -7.7040  -7.4692
    -7.3012  -7.1890  -6.9582  -6.6531  -6.5416  -6.2454  -6.0367  -5.9518
    -5.6392  -5.5471  -5.2880  -5.1456  -4.9979  -4.7847  -4.4492  -4.3845
    -4.3064  -3.5853  -3.4319  -3.4161  -3.0957  -2.6639  -2.5468  -2.1310
    -1.8200  -1.6532  -0.3692  -0.1297  -0.0374   0.2918   0.5671   0.6463
     0.7769   0.9066   1.1592   1.3721   1.6104   1.9856   2.1920   2.2978
     2.5226   2.7717   2.8533   2.9255   3.0557   3.2428   3.3386   3.6066
     3.6173   3.8621   3.8665   3.9349   4.0446   4.2580   4.5533   4.5913
     4.6827   4.7245   4.7941   5.1125   5.1254   5.3900   5.4300   5.4601
     5.5773   5.6287   6.0892   6.1474   6.2431   6.5204   6.5861   6.6239
     6.6682   6.7958   6.8412   6.8680   6.9008   7.0182   7.0515   7.2991
     7.3414   7.3687   7.4216   7.4688   7.5160   7.6210   7.6777   7.7870
     7.7958   7.8383   8.0120   8.0751   8.2298   8.3275   8.3609   8.4135
     8.4528   8.6960   8.7010   8.7514   8.8184   8.8494   8.8686   8.9410
     8.9646   9.1021   9.1259   9.1461   9.2042   9.3075   9.4159   9.4404
     9.4595   9.5041   9.5346   9.5716   9.6415   9.6580   9.7090   9.7567
     9.8281   9.8548   9.9227   9.9593  10.0064  10.0550  10.0698  10.0832
    10.1291  10.1486  10.2179  10.2680  10.2874  10.3366  10.3981  10.4409
    10.5534  10.7217  10.7913  10.8407  10.8536  10.8771  10.9030  10.9323
    11.0060  11.0441  11.0693  11.1013  11.1857  11.2215  11.2447  11.2755
    11.2939  11.3197  11.3782  11.4091  11.4782  11.5191  11.5702  11.5759
    11.6003  11.6467  11.6960  11.7085  11.7322  11.7537  11.7836  11.8795
    11.9047  11.9393  12.0209  12.0345  12.0790  12.1128  12.1534  12.2304
    12.2419  12.2569  12.2842  12.3093  12.3524  12.3642  12.4013  12.4414
    12.4744  12.5530  12.5935  12.6684  12.7119  12.7416  12.8181  12.8472
    12.8771  12.9074  12.9565  13.0405  13.0670  13.0937  13.1452  13.1968
    13.2938  13.3109  13.3761  13.3970  13.5942  13.6309  13.6466  13.7831
    13.8121  13.8546  13.8872  13.9995  14.0558  14.0768  14.1106  14.1537
    14.2075  14.2461  14.3085  14.3344  14.3956  14.4902  14.5642  14.5984
    14.6222  14.6484  14.6782  14.7380  14.7773  14.7938  14.8540  14.9283
    14.9495  14.9802  15.0166  15.0466  15.0583  15.1297  15.2134  15.3211
    15.4763  15.4849  15.5189  15.5413  15.5935  15.6186  15.6875  15.7852
    15.7987  15.8213  15.8926  15.9692  16.0159  16.0289  16.0985  16.1841
    16.3266  16.4346  16.4920  16.5042  16.5227  16.5464  16.5889  16.6240
    16.6488  16.6662  16.6784  16.7580  16.7774  16.7985  16.8479  16.9280
    16.9784  17.0386  17.0833  17.1631  17.2093  17.2321  17.2931  17.3148
    17.3287  17.4139  17.4282  17.4527  17.4838  17.5176  17.5456  17.6735
    17.7086  17.7376  17.7700  17.7793  17.8716  17.8892  17.9022  17.9497
    18.0254  18.0766  18.0984  18.1175  18.1189  18.1766  18.2156  18.2892
    18.3041  18.3511  18.4107  18.4394  18.4422  18.5066  18.5910  18.6117
    18.6401  18.6723  18.6892  18.7082  18.7666  18.8511  18.8587  18.9995
    19.0744  19.1217  19.1720  19.2631  19.2979  19.3465  19.3755  19.4489
    19.4635  19.5296  19.5799  19.5950  19.6321  19.7197  19.7830  19.8709
    19.9182  19.9453  20.0505  20.1717  20.1938  20.2145  20.2573  20.3371
    20.4086  20.4561  20.5170  20.5800  20.5957  20.6722  20.6788  20.7008
    20.7861  20.8199  20.8342  20.9066  20.9295  20.9449  21.0265  21.0788
    21.1392  21.2103  21.2518  21.3053  21.3534  21.3878  21.4094  21.4585
    21.4761  21.5239  21.6254  21.6405  21.7184  21.7345  21.7513  21.7593
    21.8016  21.8338  21.8507  21.9196  21.9313  21.9714  21.9978  22.0422
    22.1005  22.1701  22.1991  22.2353  22.2672  22.2869  22.3180  22.3528
    22.3729  22.4294  22.5124  22.5268  22.5732  22.5920  22.6567  22.6616
    22.7343  22.7633  22.8123  22.8285  22.8508  22.8885  22.9088  22.9345
    22.9649  22.9760  23.0090  23.0143  23.1159  23.1826  23.2301  23.2820
    23.3389  23.3632  23.3840  23.4558  23.4864  23.5425  23.5672  23.5864
    23.6208  23.6621  23.7085  23.7130  23.7565  23.7940  23.8036  23.8514
    23.9102  23.9350  24.0153  24.0383  24.0764  24.1871  24.2192  24.2583
    24.3296  24.3989  24.4182  24.4851

          k = 0.0000 0.0000 0.0235 ( 38931 PWs)   bands (ev):

   -25.6016 -25.6000 -23.4351 -23.4349 -20.5149 -20.4116 -20.1526 -19.7669
   -19.2643 -18.6528 -17.9278 -17.1327 -16.3215 -15.9962 -15.9745 -15.7314
   -15.5864 -15.3211 -15.1221 -14.7435 -14.6247 -14.0699 -13.8994 -13.5071
   -13.4340 -13.4104 -13.1438 -13.0899 -12.9530 -12.6107 -12.2597 -11.8011
   -11.7080 -11.5634 -11.0727 -10.9662 -10.7968 -10.4380 -10.2117 -10.0173
    -9.7921  -9.3656  -9.3097  -9.1020  -8.8817  -8.8025  -8.6119  -8.5015
    -8.4315  -8.2729  -8.1764  -8.0657  -7.8397  -7.7542  -7.6860  -7.4533
    -7.3030  -7.2063  -6.9345  -6.6281  -6.5328  -6.2886  -6.0314  -5.9291
    -5.6471  -5.5702  -5.3176  -5.1434  -5.0129  -4.8454  -4.4878  -4.4575
    -4.2924  -3.7047  -3.5402  -3.4251  -3.2198  -2.7930  -2.5674  -2.2794
    -1.8946  -1.8134  -0.2178  -0.0705   0.1082   0.4362   0.6381   0.7149
     0.9272   1.0582   1.1902   1.3956   1.5878   2.0148   2.2202   2.3249
     2.5033   2.7854   2.8814   2.9528   3.0826   3.2683   3.3568   3.5829
     3.6461   3.8882   3.8916   3.9631   4.0665   4.2764   4.5799   4.6151
     4.6916   4.7503   4.7882   5.1184   5.1512   5.4154   5.4463   5.4810
     5.5979   5.6459   6.0712   6.1674   6.2465   6.4980   6.5745   6.6026
     6.6470   6.7879   6.8436   6.8624   6.9136   7.0277   7.0638   7.2965
     7.3330   7.3701   7.4214   7.4905   7.4998   7.5987   7.6546   7.7186
     7.8100   7.8487   8.0162   8.0653   8.0866   8.2723   8.3096   8.3971
     8.4377   8.4999   8.5576   8.6856   8.7217   8.7250   8.7887   8.8613
     8.9077   8.9674   9.0567   9.0811   9.1834   9.2499   9.3052   9.3617
     9.3692   9.4055   9.5029   9.5664   9.5712   9.6181   9.6383   9.6731
     9.7431   9.7721   9.8164   9.9122   9.9202   9.9339   9.9825  10.0230
    10.0326  10.0429  10.0490  10.1665  10.2064  10.2975  10.3388  10.3761
    10.4452  10.5599  10.6877  10.7462  10.7985  10.8209  10.8813  10.9171
    11.0009  11.0505  11.0810  11.1272  11.1658  11.1711  11.2037  11.2519
    11.3399  11.3766  11.3952  11.4237  11.4772  11.5577  11.5699  11.5864
    11.6320  11.6923  11.7275  11.7506  11.7633  11.8018  11.8142  11.8659
    11.9397  11.9422  11.9664  12.0846  12.1545  12.1669  12.1989  12.2643
    12.2697  12.2948  12.3015  12.3387  12.4005  12.4134  12.4501  12.4871
    12.5137  12.6229  12.6633  12.7175  12.7435  12.8026  12.8174  12.8600
    12.9041  12.9420  12.9475  13.0584  13.0599  13.1295  13.1747  13.2321
    13.3250  13.3506  13.4395  13.4736  13.5824  13.6553  13.7045  13.7889
    13.8568  13.9730  13.9902  14.0465  14.0683  14.1083  14.1212  14.1550
    14.2288  14.3278  14.3374  14.3943  14.4021  14.4996  14.5394  14.6231
    14.6375  14.6661  14.7385  14.7736  14.8292  14.8570  14.8701  14.9045
    14.9245  15.0078  15.0458  15.1212  15.1871  15.2098  15.2845  15.3301
    15.3989  15.4316  15.4811  15.5247  15.5573  15.6231  15.7302  15.7828
    15.8173  15.8575  15.9084  15.9641  16.0102  16.0761  16.1396  16.2130
    16.3157  16.3589  16.4324  16.4885  16.5719  16.6192  16.6489  16.6657
    16.6945  16.7190  16.7677  16.8256  16.8554  16.8891  16.9157  16.9912
    17.0481  17.1078  17.1465  17.1527  17.2114  17.2611  17.2943  17.3185
    17.3400  17.3790  17.4084  17.4246  17.5153  17.5459  17.5784  17.6087
    17.6593  17.7005  17.7226  17.7638  17.8179  17.8320  17.8490  17.8983
    17.9711  17.9913  18.0581  18.1057  18.1645  18.2222  18.2460  18.2572
    18.3304  18.3958  18.4388  18.4647  18.4797  18.5329  18.6363  18.6598
    18.6902  18.7648  18.7983  18.8347  18.8602  18.9098  18.9434  19.0439
    19.0774  19.2239  19.2643  19.2680  19.2854  19.2999  19.3754  19.4079
    19.4576  19.4826  19.5454  19.5785  19.7564  19.7847  19.8676  19.9009
    19.9622  20.0236  20.1070  20.2286  20.2674  20.3219  20.3861  20.4128
    20.4657  20.5377  20.5763  20.5971  20.6412  20.7094  20.7404  20.7730
    20.7969  20.8254  20.8443  20.9429  20.9651  20.9778  21.0374  21.0778
    21.1454  21.1963  21.2707  21.3160  21.3693  21.4231  21.4398  21.4910
    21.5029  21.5462  21.5580  21.6194  21.7067  21.7300  21.7849  21.7947
    21.8250  21.8627  21.8764  21.9072  21.9405  21.9473  21.9831  22.0321
    22.0580  22.1013  22.1630  22.2099  22.2464  22.3279  22.3353  22.3486
    22.3835  22.4783  22.5061  22.5506  22.6005  22.6103  22.6702  22.6792
    22.7527  22.7964  22.8150  22.8252  22.8365  22.8998  22.9377  22.9685
    22.9779  23.0132  23.0410  23.0790  23.1479  23.2234  23.2419  23.3110
    23.3194  23.3535  23.4086  23.4627  23.5044  23.5428  23.6103  23.6330
    23.6958  23.7159  23.7265  23.7806  23.8003  23.8706  23.8758  23.9127
    23.9305  24.0031  24.0391  24.0577  24.0787  24.1835  24.2715  24.3102
    24.3663  24.4376  24.5025  24.5200

          k = 0.0000 0.0000 0.0282 ( 38952 PWs)   bands (ev):

   -25.5860 -25.5844 -23.4623 -23.4621 -20.4889 -20.3857 -20.1269 -19.7414
   -19.2391 -18.6278 -17.9033 -17.1096 -16.3212 -16.1613 -16.1401 -15.8959
   -15.6722 -15.3947 -15.2392 -14.7903 -14.7284 -14.0137 -13.8407 -13.4700
   -13.2888 -13.2387 -13.0485 -12.9597 -12.9249 -12.6051 -12.2675 -11.8485
   -11.6400 -11.4962 -11.1049 -10.9263 -10.7027 -10.4086 -10.2008 -10.0042
    -9.7565  -9.3488  -9.3266  -9.0667  -8.8652  -8.7774  -8.5976  -8.4754
    -8.3791  -8.2981  -8.1588  -8.0670  -7.8023  -7.7257  -7.6629  -7.4663
    -7.3075  -7.1938  -6.9085  -6.6013  -6.5382  -6.3237  -6.0302  -5.9042
    -5.6547  -5.6073  -5.3504  -5.1403  -5.0330  -4.9149  -4.5503  -4.5307
    -4.2751  -3.8403  -3.6770  -3.4271  -3.3522  -2.9386  -2.5901  -2.4367
    -1.9811  -1.9713  -0.0682  -0.0054   0.2645   0.5960   0.6306   0.8822
     1.0990   1.2283   1.2329   1.4161   1.5695   2.0504   2.2547   2.3545
     2.4769   2.8084   2.9158   2.9861   3.1163   3.2991   3.3707   3.5610
     3.6813   3.9161   3.9257   3.9975   4.0952   4.2958   4.6092   4.6412
     4.6932   4.7814   4.8008   5.1222   5.1828   5.4452   5.4629   5.5097
     5.6221   5.6709   6.0494   6.1903   6.2460   6.4548   6.5438   6.5863
     6.6121   6.7841   6.8300   6.8854   6.9358   7.0402   7.0771   7.2914
     7.3279   7.3440   7.4093   7.4715   7.5518   7.5535   7.6017   7.7164
     7.8239   7.8602   7.9340   8.0295   8.0429   8.1822   8.2084   8.2554
     8.3317   8.3773   8.4634   8.5301   8.5919   8.6582   8.7622   8.7821
     8.8088   8.8466   9.0086   9.0651   9.0846   9.1882   9.2345   9.2651
     9.3007   9.3163   9.3881   9.4118   9.4991   9.5842   9.5890   9.6723
     9.6814   9.6855   9.7312   9.7830   9.7909   9.8354   9.8441   9.8769
     9.9295   9.9964  10.0499  10.0981  10.1655  10.1942  10.2393  10.3671
    10.3904  10.4145  10.5915  10.6278  10.7218  10.7646  10.8282  10.8774
    10.9079  10.9472  11.0376  11.0645  11.1298  11.1475  11.1486  11.2597
    11.2913  11.3360  11.3617  11.4162  11.5073  11.5568  11.5700  11.6226
    11.6418  11.6893  11.7233  11.8065  11.8414  11.8562  11.8878  11.9605
    11.9721  12.0578  12.0855  12.1655  12.2055  12.2182  12.2487  12.2993
    12.3031  12.3140  12.3457  12.3716  12.3978  12.4173  12.5025  12.5235
    12.5732  12.6156  12.6434  12.6778  12.7545  12.8069  12.8528  12.9095
    12.9359  13.0043  13.0199  13.0973  13.1236  13.1713  13.2588  13.3503
    13.3599  13.3900  13.4440  13.5413  13.6111  13.6345  13.7030  13.7614
    13.8713  13.9522  13.9743  14.0508  14.0783  14.1189  14.1605  14.2823
    14.3435  14.3769  14.4244  14.4469  14.5176  14.5543  14.5850  14.6598
    14.6827  14.7138  14.7781  14.8004  14.8408  14.9135  14.9238  14.9711
    15.0199  15.0233  15.1006  15.1202  15.1627  15.2458  15.3030  15.3509
    15.3932  15.4050  15.5076  15.5278  15.5635  15.6210  15.7218  15.7831
    15.8670  15.9248  15.9619  16.0077  16.1274  16.1407  16.1729  16.2625
    16.2830  16.3149  16.4484  16.5180  16.5910  16.6207  16.6717  16.7077
    16.7344  16.7603  16.7840  16.8352  16.9210  16.9466  16.9645  16.9784
    17.0702  17.0930  17.1254  17.1617  17.2310  17.2479  17.3056  17.3278
    17.3946  17.4042  17.4259  17.4528  17.4764  17.4882  17.5459  17.5601
    17.5963  17.6533  17.7032  17.7377  17.8428  17.8570  17.9398  17.9550
    17.9918  18.0521  18.0744  18.1072  18.1817  18.2126  18.2649  18.3081
    18.4053  18.4311  18.4879  18.5030  18.5258  18.5564  18.6019  18.6446
    18.6654  18.8581  18.8685  18.8884  18.9901  19.0253  19.0557  19.0765
    19.1374  19.1705  19.2570  19.2584  19.2730  19.3268  19.3664  19.4514
    19.5540  19.5780  19.5982  19.7065  19.7715  19.8571  19.9397  19.9532
    20.0749  20.1416  20.1573  20.2000  20.2925  20.3483  20.3929  20.4138
    20.4814  20.5063  20.6339  20.6581  20.7154  20.7401  20.7952  20.8443
    20.8514  20.8692  20.8986  20.9552  21.0133  21.0419  21.0707  21.0783
    21.1439  21.2260  21.2527  21.3551  21.4252  21.4406  21.4637  21.5001
    21.5174  21.5902  21.6117  21.6921  21.6999  21.7342  21.7907  21.8053
    21.8415  21.8676  21.9078  21.9256  21.9300  21.9504  21.9835  22.0031
    22.0437  22.1059  22.1440  22.2364  22.2806  22.3008  22.3728  22.4021
    22.4561  22.4730  22.5103  22.5226  22.6136  22.6250  22.6780  22.7040
    22.7288  22.7733  22.8023  22.8306  22.8802  22.9259  22.9495  22.9705
    23.0185  23.0329  23.0878  23.1381  23.1430  23.2403  23.2603  23.3247
    23.3438  23.3476  23.4589  23.5164  23.5526  23.5686  23.6320  23.6858
    23.7223  23.7396  23.7812  23.8470  23.8516  23.9356  23.9515  24.0062
    24.0189  24.0714  24.0871  24.1170  24.1346  24.2530  24.2902  24.3842
    24.4081  24.4406  24.4523  24.4940

          k = 0.0000 0.0000 0.0329 ( 38970 PWs)   bands (ev):

   -25.5676 -25.5661 -23.4938 -23.4936 -20.4582 -20.3553 -20.0966 -19.7114
   -19.2093 -18.5984 -17.8745 -17.0827 -16.3971 -16.3141 -16.2558 -16.0503
   -15.8027 -15.4230 -15.3750 -14.8650 -14.8105 -13.9600 -13.8030 -13.4874
   -13.1381 -13.0589 -13.0368 -12.8507 -12.7525 -12.5689 -12.2733 -11.8947
   -11.5562 -11.4240 -11.1732 -10.8595 -10.5879 -10.4065 -10.1903  -9.9655
    -9.7226  -9.3552  -9.3206  -9.0197  -8.8483  -8.7473  -8.5732  -8.4513
    -8.3455  -8.3049  -8.1376  -8.0488  -7.7610  -7.6923  -7.6351  -7.5191
    -7.2873  -7.1640  -6.8884  -6.5842  -6.5492  -6.3457  -6.0345  -5.8782
    -5.6652  -5.6549  -5.3832  -5.1528  -5.0539  -4.9838  -4.6510  -4.5887
    -4.2549  -3.9884  -3.8258  -3.5221  -3.4021  -3.0943  -2.6207  -2.5960
    -2.1303  -2.0724   0.0647   0.0790   0.4272   0.6206   0.7703   1.0650
     1.2676   1.2945   1.4167   1.4303   1.5696   2.0926   2.2958   2.3726
     2.4579   2.8409   2.9565   3.0254   3.1566   3.3334   3.3701   3.5531
     3.7229   3.9473   3.9665   4.0381   4.1309   4.3131   4.6270   4.6696
     4.7067   4.8171   4.8308   5.1222   5.2200   5.4720   5.4886   5.5456
     5.6504   5.7028   6.0257   6.2079   6.2380   6.3875   6.5032   6.5423
     6.5980   6.7748   6.8436   6.9066   6.9637   7.0560   7.0895   7.2820
     7.3011   7.3365   7.3876   7.4305   7.4681   7.5743   7.6338   7.7285
     7.7934   7.8471   7.8716   7.9517   7.9891   8.0276   8.0673   8.1493
     8.1845   8.2606   8.3581   8.4471   8.5164   8.5725   8.6387   8.6818
     8.7337   8.8126   8.8851   9.0003   9.0473   9.0676   9.1141   9.1981
     9.2099   9.2417   9.3068   9.3450   9.4151   9.4677   9.4748   9.5248
     9.5677   9.6082   9.6591   9.6622   9.7206   9.7828   9.8254   9.8379
     9.8811   9.9125   9.9984  10.0447  10.0545  10.0907  10.2071  10.2755
    10.2882  10.4306  10.4964  10.5227  10.5740  10.6566  10.6846  10.7585
    10.8985  10.9446  10.9730  11.0489  11.0738  11.1005  11.1247  11.1961
    11.2282  11.2887  11.3302  11.3500  11.4393  11.4643  11.5209  11.6174
    11.6544  11.7301  11.7787  11.8659  11.9074  11.9426  11.9881  12.0170
    12.0366  12.0745  12.1666  12.2072  12.2712  12.2766  12.2986  12.3430
    12.3657  12.3757  12.4292  12.4335  12.4548  12.4789  12.5198  12.5401
    12.5657  12.5854  12.6518  12.6819  12.7390  12.8124  12.8980  12.9231
    12.9798  13.0760  13.1081  13.1463  13.1795  13.2255  13.2699  13.3293
    13.3511  13.4254  13.4929  13.5332  13.6842  13.6961  13.7619  13.7682
    13.8132  13.9295  13.9850  14.0532  14.1147  14.1778  14.2438  14.2644
    14.3795  14.4233  14.5649  14.6044  14.6513  14.6637  14.6907  14.7193
    14.7491  14.7692  14.7765  14.8152  14.8498  14.8985  14.9407  14.9914
    15.0490  15.0733  15.1280  15.1858  15.2969  15.3066  15.3411  15.3603
    15.3969  15.4460  15.5128  15.5266  15.5983  15.6656  15.7553  15.8415
    15.8636  15.9544  15.9881  16.1361  16.1765  16.2047  16.2619  16.3052
    16.3192  16.3794  16.4709  16.5782  16.6159  16.6406  16.6822  16.7032
    16.7359  16.7638  16.7900  16.7925  16.8611  16.8902  16.9416  17.0140
    17.0271  17.0610  17.1455  17.1809  17.2147  17.2290  17.2930  17.3106
    17.3609  17.3818  17.4104  17.4433  17.4841  17.5599  17.5842  17.6088
    17.6410  17.6683  17.7017  17.7406  17.8472  17.8582  18.0050  18.0461
    18.0671  18.1344  18.1667  18.1781  18.2378  18.2671  18.3385  18.3693
    18.4354  18.5037  18.5151  18.5478  18.5689  18.5755  18.6368  18.6470
    18.6910  18.7922  18.8250  18.9525  18.9786  19.0314  19.1038  19.1644
    19.1818  19.2237  19.2950  19.3072  19.3438  19.4001  19.4619  19.5847
    19.5945  19.6492  19.6808  19.8485  19.8694  19.9063  20.0050  20.0472
    20.1181  20.1727  20.2052  20.2374  20.2689  20.2906  20.3786  20.5002
    20.5074  20.5398  20.6153  20.6819  20.7337  20.7762  20.8396  20.8582
    20.8860  20.9277  20.9516  20.9929  21.0130  21.0325  21.0753  21.1136
    21.2294  21.2849  21.3161  21.3633  21.3708  21.4401  21.4774  21.5040
    21.5449  21.6171  21.6832  21.6937  21.7185  21.8018  21.8460  21.8884
    21.8899  21.9099  21.9535  21.9887  21.9995  22.0105  22.0308  22.0486
    22.0997  22.1404  22.1840  22.2698  22.2940  22.3230  22.3634  22.3966
    22.4182  22.4546  22.4719  22.5658  22.6017  22.6410  22.6670  22.7069
    22.7235  22.7612  22.7803  22.8581  22.9199  22.9465  22.9734  22.9919
    23.0203  23.0893  23.1055  23.1456  23.1919  23.2440  23.2791  23.3244
    23.3667  23.4554  23.5287  23.5728  23.6025  23.6367  23.6768  23.6806
    23.7362  23.7676  23.7865  23.8609  23.8906  23.9244  23.9833  24.0565
    24.1324  24.1505  24.2001  24.2254  24.2430  24.3026  24.3170  24.4024
    24.4337  24.4422  24.4542  24.5065

          k = 0.0000 0.0000 0.0376 ( 38980 PWs)   bands (ev):

   -25.5466 -25.5451 -23.5292 -23.5291 -20.4228 -20.3201 -20.0617 -19.6767
   -19.1750 -18.5645 -17.8414 -17.0526 -16.5578 -16.4848 -16.3210 -16.1499
   -15.9533 -15.5193 -15.4339 -14.9799 -14.8587 -13.9209 -13.7733 -13.5027
   -13.1597 -12.9501 -12.8371 -12.7378 -12.5632 -12.4862 -12.2784 -11.9234
   -11.4650 -11.3536 -11.2445 -10.7926 -10.4945 -10.3837 -10.1813  -9.9248
    -9.6739  -9.3947  -9.2804  -8.9639  -8.8349  -8.7105  -8.5444  -8.4402
    -8.3491  -8.2472  -8.1122  -8.0190  -7.7167  -7.6580  -7.6080  -7.5828
    -7.2520  -7.1269  -6.8819  -6.6049  -6.5324  -6.3550  -6.0457  -5.8561
    -5.7132  -5.6724  -5.4163  -5.1955  -5.1058  -5.0084  -4.7650  -4.6540
    -4.2322  -4.1456  -3.9830  -3.6776  -3.3996  -3.2563  -2.7662  -2.6498
    -2.2829  -2.1718   0.1385   0.2235   0.5936   0.6137   0.9515   1.2583
     1.3229   1.3997   1.4955   1.5973   1.6374   2.1411   2.3433   2.3472
     2.4793   2.8823   3.0033   3.0703   3.2036   3.3326   3.3837   3.5697
     3.7709   3.9800   4.0135   4.0849   4.1733   4.3240   4.6259   4.7110
     4.7412   4.8561   4.8723   5.1175   5.2624   5.4931   5.5274   5.5876
     5.6820   5.7400   6.0025   6.1840   6.2215   6.3220   6.4556   6.4948
     6.5958   6.7689   6.8695   6.9202   6.9941   7.0774   7.0964   7.2644
     7.2685   7.3260   7.3575   7.3716   7.4162   7.5088   7.6889   7.7040
     7.7213   7.7771   7.7892   7.8349   7.9058   7.9453   8.0100   8.0602
     8.0967   8.1496   8.1794   8.3644   8.4168   8.5104   8.5252   8.6126
     8.6472   8.7528   8.7731   8.8471   8.9168   9.0153   9.0591   9.1072
     9.1318   9.1482   9.1879   9.2630   9.3107   9.3232   9.3637   9.3917
     9.4637   9.5111   9.6363   9.6454   9.6608   9.7025   9.7165   9.8231
     9.8282   9.8788   9.9073   9.9366  10.0094  10.0922  10.1215  10.2085
    10.2783  10.3096  10.3569  10.3786  10.4753  10.5443  10.6314  10.6714
    10.8269  10.9070  10.9427  10.9992  11.0175  11.0562  11.0652  11.1347
    11.1607  11.2416  11.2759  11.3107  11.3884  11.4533  11.4974  11.6139
    11.6864  11.7499  11.8124  11.8426  11.9052  11.9377  11.9802  12.0451
    12.0541  12.1187  12.1802  12.2097  12.2494  12.2918  12.3486  12.3828
    12.4121  12.4316  12.4831  12.5063  12.5179  12.5478  12.5863  12.6460
    12.6559  12.6785  12.6920  12.7123  12.7624  12.8554  12.8945  12.9563
    13.0141  13.0808  13.1025  13.1383  13.2250  13.2648  13.3002  13.3519
    13.3664  13.4104  13.4722  13.5384  13.6029  13.6548  13.7349  13.8888
    13.9432  14.0234  14.0773  14.1337  14.1451  14.2265  14.2815  14.3682
    14.4420  14.4606  14.5271  14.6034  14.6351  14.6639  14.6978  14.7560
    14.8234  14.8643  14.8976  14.9130  14.9604  15.0157  15.0201  15.0669
    15.0907  15.1545  15.1925  15.2525  15.3256  15.3324  15.3417  15.4452
    15.4754  15.5356  15.5422  15.6458  15.6741  15.6955  15.8239  15.8360
    15.8511  15.9782  16.0189  16.1573  16.2555  16.2702  16.3052  16.3554
    16.3936  16.4484  16.5367  16.5662  16.5817  16.6448  16.6841  16.6887
    16.7153  16.7332  16.8306  16.8530  16.8672  16.9075  16.9159  16.9474
    17.0099  17.0207  17.0970  17.1456  17.1661  17.2265  17.2627  17.2834
    17.3445  17.3759  17.4597  17.4856  17.5231  17.5640  17.6054  17.6429
    17.6630  17.7058  17.8079  17.8610  17.9205  17.9466  18.0408  18.0673
    18.1418  18.1625  18.1880  18.3023  18.3143  18.3247  18.3705  18.4443
    18.5144  18.5411  18.5701  18.5926  18.6141  18.6380  18.6584  18.7043
    18.7400  18.7872  18.8136  18.9656  18.9885  19.0272  19.1380  19.2285
    19.3339  19.3395  19.3513  19.3785  19.4211  19.4725  19.5616  19.5986
    19.6885  19.7356  19.7733  19.8235  19.8840  19.9838  20.0585  20.0784
    20.0897  20.2084  20.2580  20.2895  20.4067  20.4185  20.4215  20.5032
    20.5739  20.6228  20.6387  20.6610  20.6987  20.7794  20.8017  20.8362
    20.8921  20.9522  20.9960  21.0197  21.0545  21.0747  21.1202  21.1431
    21.2086  21.2598  21.2863  21.3786  21.3941  21.4296  21.5234  21.5457
    21.6410  21.6613  21.6908  21.7577  21.7889  21.8109  21.8881  21.9393
    21.9758  21.9913  22.0283  22.0623  22.0702  22.1064  22.1238  22.1425
    22.2007  22.2404  22.2449  22.2610  22.2844  22.3255  22.3785  22.4295
    22.4378  22.4645  22.5066  22.5572  22.5728  22.5981  22.6793  22.7228
    22.7265  22.7884  22.8377  22.8927  22.9042  22.9366  22.9460  23.0479
    23.0675  23.1122  23.1436  23.2294  23.2358  23.2541  23.2827  23.3119
    23.4012  23.5163  23.5657  23.5971  23.6274  23.6456  23.6903  23.7058
    23.7482  23.7820  23.7896  23.8840  23.9452  23.9871  24.0360  24.0491
    24.0981  24.1493  24.1980  24.2831  24.3296  24.3457  24.3852  24.4780
    24.4917  24.5270  24.5692  24.6157

          k = 0.0000 0.0000 0.0423 ( 38978 PWs)   bands (ev):

   -25.5232 -25.5217 -23.5682 -23.5681 -20.3828 -20.2803 -20.0221 -19.6374
   -19.1361 -18.5262 -17.8041 -17.0209 -16.7307 -16.6537 -16.4566 -16.1649
   -16.1079 -15.6656 -15.4481 -15.0909 -14.9122 -13.9038 -13.7328 -13.5350
   -13.1789 -12.9298 -12.6270 -12.5888 -12.3851 -12.3549 -12.2745 -11.9220
   -11.4079 -11.2945 -11.2614 -10.7652 -10.4395 -10.2852 -10.1854  -9.8854
    -9.6096  -9.4341  -9.2295  -8.9129  -8.8247  -8.6654  -8.5219  -8.4314
    -8.3230  -8.1809  -8.0850  -7.9817  -7.6855  -7.6698  -7.6015  -7.5602
    -7.2121  -7.0881  -6.8954  -6.6296  -6.5144  -6.3526  -6.0654  -5.8596
    -5.7496  -5.6872  -5.4510  -5.2660  -5.1888  -4.9908  -4.8886  -4.7273
    -4.3094  -4.2086  -4.1444  -3.8408  -3.4252  -3.3920  -2.9313  -2.6956
    -2.4265  -2.2758   0.2150   0.3640   0.6094   0.7624   1.1381   1.3546
     1.3825   1.4681   1.6463   1.7116   1.8604   2.1960   2.2937   2.3975
     2.5273   2.9317   3.0561   3.1196   3.2558   3.2858   3.4294   3.6070
     3.8253   4.0100   4.0669   4.1379   4.2220   4.3258   4.6303   4.7619
     4.7856   4.8954   4.9222   5.1099   5.3097   5.5167   5.5705   5.6350
     5.7129   5.7802   5.9840   6.0990   6.1552   6.3119   6.4116   6.4619
     6.5976   6.7704   6.8715   6.9369   7.0229   7.0874   7.1047   7.2289
     7.2429   7.2751   7.3046   7.3370   7.3940   7.4104   7.4850   7.6037
     7.6680   7.7164   7.7481   7.8091   7.8492   7.9180   7.9556   7.9782
     8.0276   8.0610   8.1068   8.2260   8.2466   8.4244   8.4631   8.5293
     8.5597   8.6399   8.6669   8.7715   8.8324   8.9166   8.9313   8.9786
     9.0141   9.0308   9.0884   9.1252   9.1671   9.1980   9.3752   9.3925
     9.4081   9.4431   9.5049   9.5286   9.5721   9.6290   9.6570   9.7139
     9.7511   9.8612   9.9213   9.9416   9.9759   9.9874  10.1044  10.1143
    10.1698  10.1896  10.2429  10.3078  10.3930  10.5031  10.5113  10.6394
    10.7074  10.7842  10.8472  10.9249  10.9744  10.9989  11.0645  11.1132
    11.1697  11.2255  11.2384  11.3096  11.3413  11.4303  11.5349  11.6065
    11.6669  11.7171  11.7554  11.8430  11.8539  11.8972  12.0219  12.0447
    12.0798  12.0990  12.1438  12.1730  12.1995  12.2967  12.3014  12.3860
    12.4170  12.4424  12.5224  12.5561  12.5851  12.6157  12.6407  12.6852
    12.7136  12.7626  12.8266  12.8568  12.8751  12.9088  12.9417  12.9759
    13.0182  13.0671  13.1177  13.1484  13.2199  13.2877  13.3182  13.3279
    13.3677  13.4502  13.5097  13.5605  13.6038  13.6150  13.7230  13.9278
    13.9855  14.0788  14.1115  14.2125  14.2560  14.2987  14.3697  14.4000
    14.4263  14.4633  14.5210  14.5794  14.6370  14.6816  14.7714  14.8056
    14.8951  14.9468  15.0009  15.0466  15.1122  15.1255  15.1533  15.1805
    15.2193  15.2422  15.2707  15.2833  15.3489  15.3698  15.4067  15.4789
    15.5408  15.5593  15.6240  15.7431  15.7983  15.8068  15.8183  15.8464
    15.9214  16.0186  16.0695  16.1529  16.2299  16.2745  16.3335  16.3941
    16.4045  16.4612  16.5107  16.5205  16.5636  16.6565  16.6796  16.7271
    16.7605  16.7758  16.8157  16.8566  16.8834  16.8888  16.9401  16.9894
    17.0104  17.0285  17.1468  17.1729  17.1890  17.2103  17.2528  17.2903
    17.3821  17.3997  17.4171  17.5066  17.5307  17.5572  17.6746  17.6917
    17.7431  17.7702  17.8475  17.9646  17.9998  18.0473  18.0608  18.1228
    18.1680  18.2126  18.2554  18.3211  18.3417  18.3978  18.4141  18.5055
    18.5469  18.5731  18.6090  18.6210  18.6427  18.6874  18.7031  18.7737
    18.8011  18.8698  18.9282  18.9932  19.0956  19.1996  19.2515  19.2778
    19.3725  19.3808  19.4448  19.5018  19.5509  19.5708  19.6015  19.6089
    19.7028  19.7271  19.7760  19.8475  19.8700  19.9942  20.0823  20.1102
    20.1674  20.2354  20.2699  20.3137  20.4474  20.4559  20.5416  20.5850
    20.6144  20.6276  20.7155  20.7454  20.7879  20.8126  20.8462  20.8691
    20.8916  20.9499  21.0394  21.0655  21.0873  21.0968  21.1167  21.1575
    21.2325  21.2369  21.2878  21.3268  21.4114  21.4435  21.5755  21.6117
    21.6751  21.7029  21.7490  21.7737  21.8366  21.8901  21.9128  21.9702
    22.0119  22.0337  22.0560  22.0880  22.1091  22.1493  22.1993  22.2423
    22.2658  22.3062  22.3116  22.3569  22.3660  22.3745  22.4440  22.4776
    22.4836  22.5235  22.5706  22.5949  22.6284  22.6816  22.7209  22.7482
    22.7839  22.8248  22.8392  22.8463  22.9270  22.9757  23.0008  23.0942
    23.1165  23.1298  23.1484  23.2369  23.2797  23.2965  23.3181  23.3553
    23.3772  23.4376  23.5268  23.5683  23.6276  23.6771  23.7075  23.7386
    23.7522  23.7816  23.8281  23.9051  23.9456  23.9936  24.0431  24.1101
    24.1347  24.1660  24.2067  24.3373  24.3735  24.4584  24.4910  24.5604
    24.5870  24.6082  24.6531  24.6683

          k = 0.0000 0.0000 0.0469 ( 39018 PWs)   bands (ev):

   -25.4973 -25.4959 -23.6104 -23.6104 -20.3380 -20.2358 -19.9779 -19.5936
   -19.0928 -18.4835 -17.7627 -16.9953 -16.9033 -16.8125 -16.6153 -16.2723
   -16.1464 -15.8071 -15.4853 -15.1782 -14.9773 -13.8991 -13.6819 -13.5907
   -13.1719 -12.9550 -12.5145 -12.3670 -12.3192 -12.2034 -12.1394 -11.8841
   -11.4462 -11.2191 -11.1863 -10.7938 -10.3616 -10.2011 -10.1658  -9.8370
    -9.5660  -9.4380  -9.1702  -8.8974  -8.7981  -8.6122  -8.5035  -8.3983
    -8.2799  -8.1131  -8.0601  -7.9378  -7.7590  -7.6220  -7.5570  -7.5166
    -7.1721  -7.0585  -6.9224  -6.6420  -6.5134  -6.3356  -6.0949  -5.9131
    -5.7452  -5.7057  -5.4884  -5.3578  -5.2786  -5.0201  -4.9591  -4.8074
    -4.4775  -4.3152  -4.1773  -4.0074  -3.5908  -3.3921  -3.0931  -2.7628
    -2.5502  -2.3829   0.2937   0.4929   0.6166   0.9316   1.3106   1.3253
     1.4516   1.6637   1.7196   1.9370   2.0945   2.2274   2.2594   2.4581
     2.5864   2.9884   3.1133   3.1639   3.2320   3.3184   3.4820   3.6575
     3.8859   4.0291   4.1264   4.1968   4.2762   4.3245   4.6506   4.8197
     4.8342   4.9276   4.9791   5.1076   5.3611   5.5411   5.6132   5.6860
     5.7313   5.8202   5.9649   5.9927   6.0698   6.2994   6.3959   6.4435
     6.6013   6.7701   6.8253   6.9521   7.0355   7.0626   7.1125   7.1547
     7.1930   7.2410   7.2548   7.2819   7.3081   7.3141   7.4201   7.4619
     7.5658   7.5916   7.7264   7.7647   7.8012   7.8666   7.8751   7.9278
     7.9938   8.0117   8.0883   8.1101   8.1548   8.2938   8.3428   8.4026
     8.4603   8.5336   8.6633   8.6822   8.7216   8.7797   8.8021   8.8397
     8.8531   8.9057   8.9630   9.0250   9.1313   9.1828   9.2598   9.3189
     9.3301   9.3819   9.4156   9.4524   9.5030   9.5146   9.5381   9.7356
     9.7544   9.7745   9.8009   9.9045   9.9217   9.9457   9.9933  10.0670
    10.0843  10.1457  10.2182  10.2570  10.3310  10.4071  10.4492  10.5216
    10.5578  10.7055  10.7909  10.7957  10.9450  10.9921  11.0754  11.1209
    11.1673  11.2020  11.2420  11.3118  11.3488  11.3755  11.5476  11.5766
    11.5998  11.6624  11.7237  11.7922  11.8303  11.9162  11.9759  12.0077
    12.0279  12.0746  12.1176  12.1359  12.2076  12.2497  12.2658  12.3981
    12.4391  12.4826  12.4985  12.5640  12.6155  12.6382  12.6495  12.6814
    12.7367  12.7580  12.7980  12.8481  12.9095  13.0094  13.0732  13.0908
    13.1274  13.1327  13.1958  13.2395  13.2521  13.2824  13.3229  13.3331
    13.4006  13.4521  13.5221  13.5534  13.5763  13.7481  13.7728  13.9146
    13.9882  14.0594  14.0952  14.1670  14.2442  14.2819  14.3239  14.4288
    14.4929  14.5319  14.5680  14.6827  14.7698  14.8012  14.8926  14.9232
    15.0057  15.0254  15.0619  15.1104  15.1726  15.2199  15.2428  15.2908
    15.3037  15.3328  15.3622  15.3946  15.3993  15.4753  15.4960  15.5144
    15.5474  15.6314  15.6612  15.7783  15.8127  15.8461  15.8821  15.9647
    16.0323  16.0938  16.1292  16.1467  16.1754  16.2503  16.3062  16.3596
    16.3948  16.4309  16.4751  16.5409  16.5945  16.6693  16.6952  16.7359
    16.7738  16.7948  16.8288  16.8698  16.8813  16.9542  16.9658  17.0142
    17.0558  17.1107  17.1519  17.2147  17.2196  17.2549  17.3115  17.3727
    17.4276  17.4615  17.4704  17.5312  17.5714  17.6301  17.6910  17.7040
    17.8349  17.8930  17.9108  17.9477  18.0115  18.0304  18.0951  18.1427
    18.2820  18.2915  18.3500  18.3704  18.3800  18.4255  18.4748  18.4980
    18.5806  18.6209  18.6436  18.6592  18.6783  18.7614  18.7680  18.8388
    18.9368  18.9561  19.0775  19.1353  19.2261  19.2482  19.3097  19.3376
    19.4394  19.4719  19.5261  19.5748  19.5882  19.6278  19.6570  19.6940
    19.7516  19.8049  19.8322  19.9098  19.9253  19.9597  20.0611  20.0897
    20.1537  20.2158  20.2566  20.3459  20.3683  20.5134  20.5344  20.5810
    20.6140  20.7244  20.7637  20.7843  20.8480  20.9172  20.9704  21.0088
    21.0381  21.0651  21.0736  21.1077  21.1475  21.1609  21.1808  21.2103
    21.2464  21.2639  21.3242  21.3846  21.4420  21.4672  21.5884  21.6119
    21.6526  21.6568  21.7394  21.7693  21.7978  21.8299  21.9593  21.9643
    22.0426  22.0866  22.1186  22.1413  22.2136  22.2504  22.2771  22.3068
    22.3277  22.3400  22.3640  22.3935  22.4302  22.4613  22.4762  22.5412
    22.5730  22.6157  22.6836  22.6920  22.7077  22.7442  22.7535  22.8065
    22.8620  22.8820  22.9157  22.9396  22.9638  22.9933  23.0592  23.1027
    23.1314  23.1650  23.1901  23.2311  23.2505  23.3029  23.3554  23.4080
    23.4146  23.4360  23.5271  23.5504  23.5917  23.6701  23.7236  23.7523
    23.7782  23.7943  23.8089  23.8603  23.9632  23.9954  24.0164  24.0945
    24.2452  24.2784  24.3467  24.3956  24.4453  24.4781  24.4991  24.5605
    24.6123  24.6338  24.6455  24.6913

          k = 0.0000 0.0000 0.0516 ( 39040 PWs)   bands (ev):

   -25.4693 -25.4679 -23.6554 -23.6553 -20.2885 -20.1867 -19.9291 -19.5452
   -19.0449 -18.4364 -17.7176 -17.0774 -17.0361 -16.8980 -16.7763 -16.4283
   -16.1470 -15.9262 -15.5614 -15.2268 -15.0547 -13.8948 -13.6794 -13.6094
   -13.1543 -12.9937 -12.4553 -12.3337 -12.1333 -12.0122 -11.9440 -11.8126
   -11.4997 -11.1344 -11.0910 -10.8477 -10.3311 -10.1585 -10.0488  -9.7958
    -9.5489  -9.3872  -9.1085  -8.9124  -8.7536  -8.5568  -8.4670  -8.3486
    -8.2281  -8.0469  -8.0444  -7.8875  -7.8206  -7.5736  -7.5065  -7.4671
    -7.1370  -7.0670  -6.9271  -6.6440  -6.5348  -6.3048  -6.1341  -5.9904
    -5.7520  -5.7095  -5.5304  -5.4603  -5.3728  -5.1498  -4.9317  -4.8862
    -4.6479  -4.4831  -4.1769  -4.1471  -3.7581  -3.4045  -3.2402  -2.8635
    -2.6418  -2.4919   0.3739   0.5643   0.6818   1.0995   1.2619   1.4827
     1.5590   1.7639   1.9042   2.1420   2.1856   2.3263   2.3376   2.5252
     2.6533   3.0517   3.1184   3.1875   3.2562   3.3845   3.5399   3.7170
     3.9528   4.0252   4.1920   4.2616   4.3306   4.3395   4.6862   4.8775
     4.8834   4.9468   5.0423   5.1258   5.4143   5.5545   5.6486   5.6930
     5.7470   5.8455   5.8890   5.9815   6.0147   6.2572   6.4054   6.4336
     6.6008   6.7065   6.7828   6.8884   6.9811   7.0256   7.0629   7.0776
     7.1435   7.1634   7.2207   7.2427   7.2746   7.2968   7.3257   7.4411
     7.4430   7.4827   7.6620   7.6846   7.7070   7.7626   7.8010   7.8610
     7.9242   7.9539   8.1031   8.1246   8.1507   8.1632   8.2245   8.2644
     8.3566   8.4252   8.5231   8.5575   8.6229   8.6264   8.7304   8.7346
     8.7653   8.8173   8.8639   8.9630   9.0817   9.1035   9.1550   9.1672
     9.2106   9.2372   9.3209   9.4326   9.4768   9.5067   9.5459   9.5626
     9.6198   9.7405   9.7973   9.8270   9.8646   9.8771   9.9189   9.9507
    10.1029  10.1496  10.1899  10.2219  10.2620  10.3078  10.3336  10.4158
    10.4733  10.6440  10.7209  10.7718  10.9062  10.9877  10.9968  11.1612
    11.1721  11.2110  11.2382  11.2962  11.3084  11.3950  11.4359  11.5383
    11.6467  11.6577  11.6706  11.7086  11.7907  11.8299  11.8624  12.0000
    12.0272  12.0441  12.1125  12.1260  12.1876  12.2438  12.2855  12.3695
    12.3851  12.4442  12.4656  12.5170  12.6135  12.6436  12.6745  12.6911
    12.7081  12.7374  12.7805  12.8245  12.9577  13.0565  13.1295  13.1479
    13.1636  13.2401  13.2736  13.2973  13.3115  13.3429  13.3911  13.4113
    13.4723  13.4863  13.5098  13.5462  13.5838  13.7656  13.8201  13.8823
    14.0078  14.0560  14.0580  14.1466  14.2378  14.2763  14.3035  14.4082
    14.5526  14.6134  14.6901  14.7868  14.8542  14.9425  14.9880  15.0299
    15.0481  15.0954  15.1576  15.1934  15.2228  15.2665  15.3131  15.3588
    15.3715  15.4263  15.4763  15.4884  15.5032  15.5268  15.5389  15.5527
    15.6560  15.6841  15.7461  15.8269  15.8283  15.8984  15.9226  15.9375
    16.0816  16.1229  16.1284  16.2136  16.2148  16.2502  16.2968  16.3149
    16.3623  16.4703  16.5336  16.5774  16.6537  16.6591  16.7014  16.7217
    16.7715  16.8397  16.8650  16.8772  16.9185  16.9921  17.0119  17.0496
    17.1374  17.1922  17.2001  17.2502  17.3025  17.3079  17.3395  17.4038
    17.4326  17.5772  17.6112  17.6287  17.6691  17.7007  17.7176  17.7996
    17.8728  17.9368  17.9880  17.9953  18.0278  18.0669  18.0833  18.2104
    18.3088  18.3229  18.3806  18.3900  18.4712  18.5085  18.5253  18.5470
    18.6775  18.6814  18.7073  18.7552  18.7700  18.7936  18.8256  18.9112
    19.0304  19.0949  19.1351  19.2169  19.2526  19.2667  19.3384  19.4062
    19.5012  19.5256  19.5901  19.6513  19.6557  19.7019  19.7739  19.8018
    19.8581  19.8776  19.8960  19.9079  20.0136  20.0491  20.0806  20.0929
    20.1582  20.2024  20.2575  20.2648  20.3606  20.4242  20.5421  20.5595
    20.6709  20.7410  20.7900  20.8655  20.9086  20.9641  20.9789  21.0562
    21.1348  21.1542  21.1921  21.2323  21.2466  21.2918  21.3084  21.3301
    21.3808  21.4200  21.4328  21.4685  21.4804  21.4930  21.5416  21.5459
    21.5970  21.6097  21.6726  21.8135  21.8317  21.8591  21.8828  21.9930
    22.0752  22.0968  22.1737  22.2110  22.2325  22.2625  22.3238  22.3639
    22.3897  22.4070  22.4125  22.4825  22.5115  22.5408  22.5672  22.6436
    22.6698  22.6790  22.6914  22.7156  22.7538  22.7622  22.8150  22.8284
    22.8951  22.9241  22.9302  22.9711  23.0601  23.0982  23.1368  23.1532
    23.1906  23.2137  23.2838  23.2960  23.3189  23.3272  23.4006  23.4258
    23.4379  23.4963  23.5567  23.5664  23.6585  23.6759  23.7081  23.7193
    23.7500  23.8273  23.8634  23.8889  23.9883  23.9922  24.0685  24.1200
    24.1826  24.2800  24.3399  24.4363  24.4543  24.4654  24.5428  24.5988
    24.6093  24.6757  24.6777  24.7358

          k = 0.0000 0.0000 0.0563 ( 39054 PWs)   bands (ev):

   -25.4392 -25.4378 -23.7028 -23.7026 -20.2344 -20.1330 -19.8757 -19.4923
   -18.9927 -18.3851 -17.6692 -17.2447 -17.1818 -16.9447 -16.8719 -16.5787
   -16.2092 -15.9772 -15.6695 -15.2449 -15.1429 -13.8884 -13.7515 -13.5567
   -13.1569 -13.0133 -12.4234 -12.3572 -11.9096 -11.8293 -11.7566 -11.7022
   -11.5232 -11.0584 -11.0088 -10.8830 -10.3778 -10.0407  -9.9456  -9.7793
    -9.4889  -9.3339  -9.0628  -8.9071  -8.7082  -8.5082  -8.4038  -8.2905
    -8.1704  -8.0558  -7.9798  -7.8509  -7.8292  -7.5255  -7.4521  -7.4132
    -7.1481  -7.0792  -6.8981  -6.6415  -6.5750  -6.2731  -6.1757  -6.0768
    -5.7969  -5.7123  -5.5891  -5.5512  -5.4588  -5.2742  -4.9960  -4.8741
    -4.8190  -4.6516  -4.3432  -4.1192  -3.9224  -3.4808  -3.3221  -2.9907
    -2.7077  -2.6014   0.4553   0.5781   0.8057   1.1983   1.2794   1.5753
     1.7382   1.8411   2.0784   2.1231   2.4007   2.4130   2.5878   2.5990
     2.7270   3.0419   3.1212   3.2567   3.3212   3.4566   3.6021   3.7834
     3.9916   4.0277   4.2636   4.3315   4.3682   4.3973   4.7323   4.8834
     4.9522   4.9806   5.1109   5.1701   5.4521   5.5321   5.5974   5.6679
     5.8007   5.8214   5.9039   5.9835   6.0400   6.2077   6.3874   6.4258
     6.5539   6.6063   6.7006   6.8218   6.8599   6.9382   6.9745   7.0517
     7.0599   7.1380   7.1734   7.2228   7.2725   7.2830   7.3046   7.3455
     7.3542   7.5019   7.5191   7.5660   7.6187   7.6371   7.7217   7.8126
     7.8568   7.9283   7.9895   8.0717   8.1043   8.1633   8.1726   8.2107
     8.2489   8.3030   8.3670   8.4113   8.4299   8.5901   8.6114   8.6590
     8.7296   8.7883   8.8226   8.8841   8.9133   8.9612   9.0024   9.0713
     9.1456   9.2010   9.2505   9.2962   9.4073   9.4361   9.4842   9.5762
     9.6012   9.6520   9.7040   9.7186   9.7798   9.8707   9.9025   9.9297
    10.0137  10.0518  10.1221  10.1685  10.2277  10.2522  10.2818  10.3947
    10.4966  10.5135  10.6880  10.8011  10.8670  10.8775  10.9759  11.1141
    11.1560  11.2098  11.2229  11.2663  11.3461  11.3687  11.4690  11.4951
    11.5829  11.5949  11.6393  11.6588  11.7018  11.7706  11.8011  12.0044
    12.0193  12.0483  12.1106  12.1307  12.1526  12.1842  12.2628  12.3003
    12.3378  12.3522  12.4112  12.5306  12.5391  12.6138  12.6801  12.7016
    12.7521  12.7950  12.8114  12.8378  12.9934  13.0704  13.1223  13.1415
    13.1827  13.2495  13.2583  13.2745  13.3065  13.4114  13.4421  13.4755
    13.5059  13.5430  13.5891  13.6371  13.6615  13.7080  13.7546  13.8788
    14.0154  14.0836  14.1131  14.2337  14.2668  14.3196  14.3601  14.4102
    14.5901  14.6650  14.7799  14.8588  14.9016  14.9630  15.0008  15.0368
    15.0941  15.1611  15.2452  15.2629  15.3076  15.3476  15.3551  15.3650
    15.4047  15.4293  15.5170  15.5452  15.5781  15.6562  15.6686  15.6818
    15.7147  15.7625  15.8046  15.8286  15.8717  15.9663  15.9834  15.9984
    16.0786  16.1199  16.1746  16.1955  16.2319  16.2870  16.3085  16.3486
    16.4546  16.5047  16.5206  16.5899  16.6618  16.6996  16.7649  16.7956
    16.8272  16.8426  16.8906  16.8987  16.9596  17.0519  17.0764  17.1541
    17.1608  17.2041  17.3118  17.3149  17.3772  17.3872  17.4664  17.4791
    17.5545  17.5996  17.6186  17.6598  17.7247  17.7741  17.8250  17.8924
    17.9134  18.0248  18.0339  18.0749  18.1254  18.1357  18.1637  18.2262
    18.3439  18.3506  18.4445  18.5016  18.5565  18.5765  18.6112  18.6381
    18.6866  18.7083  18.7814  18.7939  18.8413  18.8910  18.9583  19.0000
    19.0679  19.1273  19.1915  19.2232  19.2703  19.3135  19.4198  19.5041
    19.5165  19.5685  19.6201  19.7091  19.7306  19.7394  19.8494  19.8601
    19.8810  19.9041  19.9378  19.9766  20.0243  20.0924  20.1304  20.1465
    20.2321  20.3049  20.3152  20.3499  20.3813  20.5122  20.5659  20.6045
    20.7056  20.7397  20.7942  20.8889  20.9302  20.9668  21.0089  21.1026
    21.2153  21.2349  21.2580  21.2879  21.2992  21.3216  21.3493  21.3886
    21.4171  21.4350  21.4408  21.4990  21.5382  21.6085  21.6458  21.6984
    21.7209  21.7572  21.7804  21.8208  21.8401  21.9354  21.9680  22.0319
    22.0901  22.1171  22.1689  22.1818  22.2521  22.2955  22.3585  22.3718
    22.3886  22.4392  22.4905  22.5542  22.5906  22.6062  22.6229  22.6607
    22.6648  22.6986  22.7358  22.7708  22.7929  22.7969  22.8234  22.8261
    22.9244  22.9705  23.0103  23.0387  23.0905  23.1440  23.2099  23.2443
    23.2880  23.3011  23.3242  23.3603  23.3886  23.3996  23.4401  23.4661
    23.5224  23.5476  23.6202  23.6420  23.6960  23.7065  23.7401  23.7481
    23.8583  23.8669  23.9117  23.9505  23.9897  24.0343  24.0683  24.0833
    24.1762  24.2440  24.3541  24.4184  24.5043  24.5162  24.5595  24.6051
    24.6193  24.6833  24.7074  24.7701

          k = 0.0000 0.0000 0.0610 ( 39026 PWs)   bands (ev):

   -25.4073 -25.4059 -23.7520 -23.7517 -20.1756 -20.0746 -19.8177 -19.4349
   -18.9360 -18.3296 -17.6201 -17.4077 -17.3396 -17.0996 -16.8609 -16.7024
   -16.3301 -15.9649 -15.7925 -15.2544 -15.2356 -13.8953 -13.8059 -13.5095
   -13.1921 -12.9964 -12.4101 -12.3796 -11.7725 -11.6878 -11.5980 -11.5293
   -11.4363 -11.0499 -10.9428 -10.8397 -10.4349  -9.9640  -9.8563  -9.7158
    -9.3945  -9.3056  -9.0336  -8.8593  -8.6605  -8.4649  -8.3245  -8.2281
    -8.1183  -8.0794  -7.9169  -7.8386  -7.7679  -7.4788  -7.3943  -7.3569
    -7.2215  -7.0498  -6.8640  -6.6540  -6.6114  -6.2909  -6.1775  -6.1664
    -5.8703  -5.7831  -5.6600  -5.6257  -5.4932  -5.3861  -5.0942  -4.9885
    -4.8304  -4.8184  -4.5087  -4.1210  -4.0521  -3.6217  -3.3384  -3.1287
    -2.7630  -2.7100   0.5374   0.5849   0.9384   1.1506   1.4419   1.6575
     1.9219   1.9327   2.0025   2.3451   2.4816   2.6564   2.6789   2.8070
     2.8435   2.9563   3.1960   3.3346   3.3951   3.5334   3.6669   3.8547
     3.9418   4.1067   4.3409   4.4047   4.4258   4.4564   4.7832   4.8557
     5.0229   5.0366   5.1827   5.2318   5.3746   5.4753   5.5635   5.6648
     5.8261   5.8542   5.9480   6.0285   6.0721   6.1626   6.3102   6.3531
     6.4597   6.5291   6.6148   6.7328   6.8057   6.8393   6.8744   6.9932
     6.9979   7.0585   7.1056   7.1914   7.2258   7.2541   7.2921   7.3319
     7.3575   7.3877   7.4636   7.4816   7.5298   7.5420   7.6900   7.7547
     7.7725   7.8238   7.9016   7.9551   7.9875   8.0867   8.1328   8.1546
     8.1675   8.2581   8.2900   8.3089   8.3302   8.4601   8.5478   8.6076
     8.6658   8.7105   8.7319   8.7600   8.8066   8.8748   8.9209   8.9966
     9.0432   9.0806   9.2128   9.2330   9.2796   9.3909   9.4234   9.5202
     9.5361   9.6458   9.6547   9.6766   9.7045   9.7947   9.8423   9.8582
     9.9599  10.0055  10.0212  10.0873  10.1928  10.2760  10.3053  10.3970
    10.4526  10.5051  10.6569  10.7560  10.8220  10.8636  10.9057  11.0079
    11.0569  11.2365  11.2591  11.2731  11.3086  11.3835  11.3935  11.4969
    11.5225  11.5274  11.5747  11.6331  11.6794  11.7495  11.8054  11.9098
    11.9979  12.0547  12.0760  12.1044  12.1430  12.1600  12.1855  12.2326
    12.2476  12.2733  12.4668  12.5184  12.5685  12.5829  12.6948  12.7129
    12.7692  12.8052  12.8452  12.8810  12.9879  13.0219  13.0813  13.1117
    13.1546  13.2079  13.2289  13.3063  13.3200  13.3712  13.4159  13.4700
    13.5341  13.5844  13.6010  13.6697  13.7107  13.7789  13.8876  13.9392
    14.0376  14.1414  14.1683  14.2643  14.3116  14.3736  14.4309  14.4914
    14.6246  14.6779  14.8251  14.8674  14.9100  14.9464  15.0341  15.0399
    15.1000  15.1756  15.2225  15.2866  15.3222  15.3574  15.4038  15.4789
    15.4946  15.5146  15.5308  15.5538  15.5824  15.5940  15.6766  15.7439
    15.8148  15.8580  15.8724  15.8853  15.9282  16.0856  16.1056  16.1239
    16.1521  16.2004  16.2096  16.2442  16.2503  16.3215  16.3623  16.3869
    16.4734  16.5162  16.5337  16.6025  16.6435  16.7707  16.8081  16.8499
    16.9038  16.9152  16.9426  16.9703  17.0730  17.1099  17.1625  17.1887
    17.2153  17.2732  17.3497  17.4261  17.4471  17.4663  17.5669  17.5996
    17.6374  17.6654  17.7252  17.7579  17.7933  17.8106  17.8791  17.8909
    17.9357  18.0278  18.1371  18.1704  18.2048  18.2507  18.2807  18.3496
    18.3926  18.4443  18.5564  18.5708  18.6254  18.6657  18.6760  18.7165
    18.7226  18.7472  18.8091  18.8535  18.8931  18.9674  18.9749  19.1144
    19.1475  19.1914  19.2542  19.3016  19.3244  19.3549  19.4973  19.5657
    19.5764  19.6188  19.6242  19.6641  19.7142  19.7395  19.8092  19.8107
    19.8718  19.9484  19.9836  20.0652  20.1157  20.1286  20.1732  20.2201
    20.2726  20.4422  20.4644  20.5172  20.5583  20.6011  20.6709  20.6942
    20.7527  20.8231  20.8713  20.8913  20.9659  20.9845  21.0236  21.1149
    21.1730  21.2023  21.2118  21.2654  21.3047  21.3739  21.3824  21.3904
    21.4695  21.5072  21.5181  21.5417  21.6164  21.6334  21.7624  21.8282
    21.8352  21.8560  21.8770  21.9420  22.0040  22.0584  22.0829  22.1051
    22.1090  22.1310  22.2546  22.2690  22.2779  22.3161  22.3457  22.3845
    22.4143  22.4264  22.4734  22.5473  22.5963  22.6329  22.6657  22.6903
    22.7346  22.7820  22.7918  22.8108  22.8275  22.8789  22.9067  22.9296
    22.9507  22.9868  23.0093  23.0769  23.1495  23.1782  23.1974  23.2502
    23.2670  23.3454  23.3764  23.4161  23.4423  23.4747  23.5247  23.5632
    23.5752  23.5842  23.6685  23.7120  23.7952  23.8126  23.8248  23.8453
    23.8677  23.8737  23.9246  23.9441  24.0253  24.0366  24.2201  24.2414
    24.2995  24.3415  24.3668  24.4360  24.4944  24.5223  24.5525  24.6004
    24.6318  24.6821  24.7141  24.7449

          k = 0.0000 0.0000 0.0657 ( 39026 PWs)   bands (ev):

   -25.3738 -25.3725 -23.8024 -23.8020 -20.1122 -20.0117 -19.7552 -19.3730
   -18.8750 -18.2703 -17.6046 -17.5370 -17.4925 -17.2514 -16.9398 -16.7251
   -16.4672 -15.9485 -15.9048 -15.3446 -15.2520 -13.9422 -13.8090 -13.4867
   -13.2230 -12.9671 -12.4248 -12.3802 -11.7384 -11.6412 -11.3911 -11.3104
   -11.2536 -11.0833 -10.8804 -10.7666 -10.4699  -9.9887  -9.7225  -9.5939
    -9.3452  -9.2553  -8.9808  -8.8062  -8.6012  -8.4236  -8.2451  -8.1770
    -8.1211  -8.0271  -7.8583  -7.8004  -7.7025  -7.4362  -7.3360  -7.3115
    -7.2906  -7.0176  -6.8430  -6.7168  -6.5997  -6.3666  -6.2642  -6.1291
    -5.9841  -5.9043  -5.7478  -5.6842  -5.5142  -5.4465  -5.2031  -5.1501
    -4.9827  -4.7816  -4.6709  -4.2609  -4.0394  -3.7741  -3.3434  -3.2681
    -2.8191  -2.8122   0.5934   0.6197   1.0714   1.0997   1.6075   1.7358
     1.9300   2.0096   2.1286   2.5658   2.5697   2.7649   2.8646   2.8926
     2.9048   3.1068   3.2750   3.4192   3.4749   3.6106   3.7280   3.8863
     3.9369   4.1926   4.4231   4.4790   4.4989   4.5062   4.8148   4.8441
     5.0705   5.0993   5.2215   5.2859   5.3019   5.3726   5.5988   5.6595
     5.8586   5.8915   5.9916   6.0396   6.0955   6.1232   6.2130   6.2547
     6.3388   6.4720   6.5478   6.6283   6.7505   6.7675   6.8125   6.8742
     6.9446   6.9852   7.0309   7.0959   7.1409   7.1916   7.2249   7.3194
     7.3316   7.3902   7.4123   7.4620   7.4989   7.5399   7.5979   7.6723
     7.6951   7.7097   7.7810   7.8030   7.9269   7.9779   7.9934   8.0374
     8.0978   8.2253   8.2507   8.3143   8.3272   8.4043   8.4430   8.4949
     8.5190   8.5570   8.6239   8.6995   8.7389   8.8218   8.8524   8.8921
     8.9684   9.0617   9.1184   9.1896   9.2461   9.2768   9.3709   9.4142
     9.5048   9.5595   9.5900   9.6455   9.6704   9.7318   9.7800   9.7905
     9.9034   9.9685  10.0294  10.1024  10.1358  10.2463  10.3053  10.4070
    10.4387  10.5243  10.6228  10.6805  10.7852  10.8186  10.8526  10.9528
    10.9938  11.1445  11.1811  11.2353  11.3122  11.3353  11.4141  11.4529
    11.4857  11.5496  11.5797  11.6431  11.6564  11.7045  11.7634  11.8763
    11.8895  11.9529  12.0438  12.0696  12.1008  12.1517  12.1786  12.2186
    12.2544  12.2953  12.4379  12.5162  12.6069  12.6314  12.6619  12.7026
    12.7631  12.7830  12.8250  12.8811  12.9509  12.9592  13.0079  13.0532
    13.1615  13.1865  13.2521  13.2662  13.3157  13.3389  13.3572  13.4230
    13.5032  13.6516  13.6974  13.7823  13.7963  13.8751  13.9221  13.9517
    14.1434  14.1945  14.2553  14.3042  14.3440  14.3835  14.4802  14.5405
    14.6260  14.6584  14.7847  14.7967  14.8933  15.0327  15.0486  15.1004
[...]
     6.8438   6.9207   6.9578   6.9657   6.9837   7.0612   7.0881   7.1032
     7.1643   7.1848   7.2601   7.2813   7.3175   7.4068   7.5654   7.5771
     7.7261   7.7821   7.8146   7.8216   7.8752   7.9746   8.0086   8.0250
     8.0493   8.0822   8.2130   8.2947   8.3898   8.4021   8.5096   8.6150
     8.6724   8.7964   8.8259   8.8651   8.9911   9.0668   9.1066   9.2047
     9.2316   9.3165   9.3614   9.4290   9.5653   9.5750   9.6111   9.7764
     9.8049   9.9150   9.9736  10.0065  10.0328  10.0851  10.1155  10.2826
    10.2940  10.3257  10.4120  10.5144  10.5680  10.6045  10.6819  10.7603
    10.8012  10.8362  10.8716  10.9197  10.9607  10.9633  11.2419  11.2511
    11.3398  11.3457  11.4656  11.5468  11.6060  11.6183  11.6497  11.6967
    11.7205  11.7520  11.8006  11.8419  11.9748  12.0622  12.1294  12.1411
    12.1640  12.2149  12.2613  12.3688  12.4685  12.5258  12.5556  12.5989
    12.6474  12.6668  12.7212  12.7827  12.8430  12.8932  12.9895  13.0248
    13.1072  13.1430  13.2363  13.2682  13.3321  13.3783  13.4101  13.4990
    13.6135  13.6515  13.6713  13.7834  13.8092  13.8227  14.0038  14.0779
    14.1328  14.1506  14.1821  14.2362  14.3052  14.4035  14.4398  14.4831
    14.5297  14.5628  14.6147  14.7729  14.8492  14.9261  14.9651  14.9955
    15.0315  15.0910  15.1424  15.2652  15.2757  15.3135  15.3628  15.4782
    15.5311  15.5666  15.5886  15.7179  15.7838  15.8070  15.8880  15.8949
    15.9800  16.0296  16.0659  16.1279  16.1768  16.2912  16.3145  16.3382
    16.4756  16.5229  16.6125  16.6825  16.7515  16.7821  16.8638  16.9219
    16.9831  17.0254  17.0740  17.1372  17.1586  17.1942  17.2403  17.2835
    17.3297  17.3660  17.3776  17.4051  17.4461  17.4572  17.4878  17.5761
    17.6108  17.6854  17.7109  17.7511  17.7923  17.8619  18.0244  18.0598
    18.0797  18.1936  18.3224  18.3467  18.3714  18.3810  18.4175  18.4535
    18.5158  18.5627  18.6234  18.7663  18.8223  18.8753  18.9328  18.9664
    19.0069  19.0963  19.1350  19.2726  19.2985  19.3463  19.4065  19.4401
    19.4698  19.5012  19.5811  19.6235  19.6624  19.7054  19.7734  19.8630
    19.8819  19.9712  20.0671  20.1026  20.1142  20.1559  20.1693  20.2278
    20.2502  20.3070  20.3283  20.4447  20.4526  20.5357  20.5897  20.6048
    20.6585  20.6937  20.7307  20.7791  20.7998  20.9881  21.0257  21.0554
    21.0791  21.1108  21.1600  21.1830  21.2429  21.2691  21.2850  21.3818
    21.4232  21.4329  21.4688  21.5213  21.5234  21.5687  21.6159  21.6585
    21.6750  21.6963  21.7541  21.7592  21.7939  21.8541  21.8828  21.9059
    21.9195  21.9328  21.9537  21.9845  21.9966  22.0125  22.0952  22.1093
    22.1690  22.1809  22.2797  22.3012  22.3528  22.3996  22.4114  22.4531
    22.4856  22.5120  22.5282  22.5461  22.5597  22.5866  22.6582  22.6798
    22.7006  22.7249  22.7625  22.8088  22.8750  22.9369  22.9567  22.9965
    23.0003  23.0397  23.0548  23.1224  23.1640  23.1737  23.2161  23.2395
    23.3008  23.3293  23.3809  23.3892  23.3988  23.4321  23.4397  23.4774
    23.5205  23.5367  23.5920  23.6795  23.7121  23.7778  23.7917  23.8576
    23.8721  23.9397  23.9765  23.9921  24.0296  24.0542  24.0611  24.0722
    24.1007  24.1308  24.1701  24.1842  24.2184  24.3241  24.3422  24.3614
    24.4133  24.4524  24.4726  24.5646  24.6060  24.6159  24.6363  24.6841
    24.7302  24.7599  24.8003  24.8177

          k = 0.0000 0.0000 0.1080 ( 39052 PWs)   bands (ev):

   -25.0912 -25.0904 -24.1885 -24.1874 -19.3354 -19.2435 -18.9997 -18.8665
   -18.7905 -18.6074 -18.5265 -18.1665 -18.1081 -17.6737 -17.5199 -17.0833
   -16.8217 -16.3987 -16.0805 -15.7022 -15.4691 -14.1797 -13.9387 -13.5307
   -13.2084 -12.7717 -12.4513 -12.1912 -11.6865 -11.6411 -11.4106 -11.2063
   -10.8788 -10.4642 -10.0097  -9.5860  -9.2918  -9.1258  -9.0284  -8.9652
    -8.5907  -8.4461  -8.3060  -8.1683  -8.1202  -8.0022  -7.9744  -7.9272
    -7.7808  -7.7587  -7.6326  -7.5523  -7.5000  -7.4616  -7.3983  -7.3767
    -7.2708  -7.2131  -7.1754  -7.0531  -6.9270  -6.7692  -6.7095  -6.6298
    -6.6079  -6.5519  -6.3628  -6.3233  -6.1993  -6.0751  -5.9300  -5.7820
    -5.4718  -5.3687  -4.9790  -4.8187  -4.4246  -4.2130  -3.8345  -3.6620
    -3.2642  -3.1983   0.7374   0.8590   1.1744   1.4683   1.8914   2.2383
     2.6710   2.8713   2.9366   3.0794   3.4594   3.6230   3.6361   3.7476
     3.8102   3.8432   3.9664   4.2439   4.3107   4.3522   4.4498   4.4967
     4.5511   4.6162   4.6373   4.7249   4.8133   4.9367   5.0275   5.0914
     5.1366   5.1836   5.2463   5.3336   5.3592   5.4250   5.4874   5.4907
     5.5372   5.5478   5.6724   5.7810   5.8019   5.9345   6.0586   6.1005
     6.1272   6.1335   6.1762   6.2161   6.2331   6.3188   6.3762   6.3996
     6.4802   6.5048   6.5286   6.6166   6.6583   6.7289   6.7499   6.7787
     6.7951   6.8212   6.8555   6.9426   6.9914   7.0646   7.0980   7.1361
     7.1808   7.2006   7.2130   7.2585   7.2851   7.3674   7.5239   7.5585
     7.6849   7.6905   7.7294   7.7476   7.8364   7.8906   7.9201   8.0170
     8.0451   8.1339   8.2314   8.3210   8.4187   8.4913   8.5806   8.6322
     8.6629   8.7043   8.7529   8.8962   8.9703   9.0337   9.1237   9.1540
     9.1750   9.3695   9.4315   9.4569   9.4814   9.5454   9.6059   9.7509
     9.7788   9.8985   9.9295   9.9801   9.9981  10.0937  10.1231  10.1729
    10.2612  10.3525  10.4558  10.5375  10.5731  10.6290  10.6782  10.7250
    10.7799  10.8487  10.9311  11.0060  11.0456  11.0714  11.1438  11.1564
    11.2480  11.4009  11.4507  11.4612  11.5032  11.5775  11.6287  11.6767
    11.7153  11.7270  11.8258  11.8594  11.9417  12.0155  12.0615  12.1543
    12.2180  12.2579  12.3016  12.3970  12.4882  12.5277  12.5355  12.5645
    12.6317  12.6848  12.7246  12.8040  12.8776  12.9197  12.9844  13.0202
    13.1032  13.1712  13.2368  13.2676  13.3272  13.3529  13.3902  13.4004
    13.5644  13.6434  13.6781  13.7604  13.7808  13.8268  13.9187  14.0124
    14.0837  14.1302  14.1752  14.3277  14.3584  14.4156  14.4798  14.5027
    14.5447  14.5914  14.6285  14.7624  14.7893  14.8437  14.9484  15.0191
    15.0385  15.0583  15.1203  15.2495  15.3354  15.3694  15.4121  15.4678
    15.4948  15.5733  15.6612  15.7227  15.7642  15.7990  15.8745  15.9441
    15.9844  16.0858  16.1083  16.1426  16.1804  16.3072  16.3198  16.3296
    16.5049  16.5922  16.6600  16.7078  16.7394  16.7762  16.8124  16.8640
    16.9317  16.9998  17.0152  17.1088  17.1675  17.1952  17.2270  17.2866
    17.3457  17.3585  17.3638  17.3969  17.4442  17.5254  17.5569  17.5842
    17.6025  17.6915  17.7129  17.7814  17.7931  17.8631  17.9350  18.0430
    18.0814  18.1698  18.1891  18.2598  18.3015  18.3848  18.4329  18.4949
    18.5837  18.5961  18.6561  18.7520  18.7999  18.9345  18.9411  18.9815
    19.1162  19.1424  19.2400  19.2988  19.3699  19.4031  19.4229  19.4655
    19.5665  19.5861  19.6975  19.7497  19.8175  19.8599  19.9124  20.0025
    20.0474  20.0587  20.1585  20.1959  20.2213  20.2405  20.2702  20.3217
    20.3744  20.4088  20.4704  20.5366  20.6219  20.6473  20.7370  20.7711
    20.7826  20.8062  20.8670  20.8847  20.9963  21.0234  21.0365  21.0747
    21.0890  21.1186  21.1454  21.2123  21.2390  21.2990  21.3516  21.4330
    21.4647  21.4840  21.5063  21.5417  21.5719  21.6078  21.6128  21.6286
    21.6658  21.6899  21.7322  21.7614  21.8196  21.8361  21.8590  21.8897
    21.8958  21.9405  21.9649  22.0252  22.0737  22.0896  22.1271  22.1828
    22.2215  22.2296  22.2602  22.2706  22.3106  22.3427  22.3612  22.3823
    22.4132  22.4937  22.5078  22.5427  22.5952  22.6053  22.6286  22.6324
    22.6822  22.7445  22.7482  22.7935  22.8013  22.8367  22.8482  22.8915
    22.9195  22.9961  23.0209  23.1125  23.1860  23.2281  23.2829  23.2911
    23.3128  23.3216  23.3384  23.3728  23.4239  23.4837  23.5094  23.5332
    23.5641  23.5960  23.6254  23.6484  23.6738  23.6968  23.7228  23.7624
    23.8203  23.8553  23.8712  23.9028  23.9732  24.0019  24.0303  24.0582
    24.1047  24.1484  24.1699  24.2271  24.2643  24.3265  24.3488  24.4228
    24.4697  24.5033  24.5535  24.5732  24.6152  24.6383  24.6830  24.7112
    24.7367  24.7785  24.7963  24.8180

          k = 0.0000 0.0000 0.1127 ( 39062 PWs)   bands (ev):

   -25.0791 -25.0783 -24.2037 -24.2026 -19.2274 -19.1390 -18.9987 -18.9108
   -18.8765 -18.6459 -18.5084 -18.2689 -18.0220 -17.7794 -17.4298 -17.1865
   -16.7354 -16.4946 -16.0093 -15.7746 -15.4500 -14.2076 -13.8992 -13.5839
   -13.1628 -12.8063 -12.4075 -12.2025 -11.6655 -11.6318 -11.4334 -11.2593
   -10.8505 -10.4954  -9.9808  -9.5750  -9.2447  -8.9559  -8.8862  -8.7668
    -8.6122  -8.4211  -8.3520  -8.2445  -8.1973  -8.1887  -7.8600  -7.8221
    -7.7071  -7.6828  -7.5952  -7.5488  -7.5352  -7.5267  -7.4893  -7.4801
    -7.3981  -7.1314  -7.0675  -6.9824  -6.9110  -6.8399  -6.7768  -6.6630
    -6.6119  -6.5078  -6.4097  -6.3408  -6.2822  -6.0923  -5.9714  -5.7475
    -5.5678  -5.2816  -5.0847  -4.7330  -4.5220  -4.1518  -3.9038  -3.6397
    -3.2908  -3.1991   0.7280   0.8975   1.1230   1.5590   1.7970   2.3601
     2.5947   2.9437   3.0174   3.2145   3.3538   3.4943   3.6871   3.7853
     3.9277   3.9626   4.0835   4.1145   4.2689   4.3076   4.4607   4.5080
     4.5363   4.6549   4.7670   4.8394   4.8657   4.8890   4.9744   5.0284
     5.1032   5.1807   5.2020   5.3082   5.3871   5.4680   5.5525   5.6064
     5.6233   5.6637   5.6804   5.7576   5.8061   5.9114   5.9543   5.9780
     6.0234   6.0850   6.1115   6.2242   6.3241   6.3714   6.4046   6.4391
     6.4604   6.4735   6.4892   6.5215   6.5929   6.6566   6.6776   6.7048
     6.7339   6.8014   6.8985   6.9394   6.9499   7.0173   7.0799   7.1821
     7.1930   7.2129   7.2651   7.3149   7.3491   7.3952   7.4834   7.5012
     7.5741   7.6150   7.6542   7.6751   7.7733   7.7883   7.8963   8.0366
     8.1213   8.1944   8.2354   8.3418   8.4814   8.5073   8.5643   8.6181
     8.6637   8.7003   8.7478   8.8954   8.9506   8.9841   9.0373   9.1359
     9.2962   9.3230   9.3739   9.4860   9.5627   9.5721   9.6420   9.6555
     9.7498   9.8590   9.8912   9.9089   9.9557  10.0467  10.1506  10.2456
    10.3042  10.3646  10.4504  10.5059  10.5779  10.6340  10.6530  10.6904
    10.7597  10.9500  10.9699  11.0210  11.0467  11.1462  11.1586  11.2039
    11.2330  11.3267  11.3465  11.4180  11.4390  11.5387  11.5772  11.6274
    11.7474  11.7997  11.8428  11.8844  11.9322  11.9530  12.0749  12.1576
    12.2027  12.2921  12.3326  12.3654  12.4308  12.4765  12.5468  12.5851
    12.6814  12.7708  12.7814  12.8096  12.8410  12.8568  12.9810  13.0463
    13.1081  13.1823  13.2291  13.2610  13.2947  13.3571  13.3858  13.4373
    13.5056  13.5735  13.6142  13.7285  13.8300  13.8661  13.9055  13.9513
    14.0152  14.1281  14.1928  14.2884  14.3588  14.4739  14.5122  14.5612
    14.6063  14.6259  14.6597  14.7341  14.7629  14.7807  14.8991  14.9494
    15.0210  15.0797  15.1657  15.2276  15.3482  15.3631  15.4007  15.4936
    15.5609  15.6350  15.7010  15.7154  15.7635  15.7701  15.8585  15.9311
    15.9452  16.0389  16.1295  16.1819  16.2440  16.3300  16.3733  16.4232
    16.5169  16.6086  16.6293  16.6916  16.7173  16.7753  16.8002  16.8819
    16.8938  16.8978  17.0108  17.0958  17.1336  17.1652  17.1860  17.2756
    17.3166  17.3578  17.4168  17.4449  17.4946  17.5702  17.5750  17.6337
    17.6509  17.7007  17.7358  17.7370  17.8103  17.8385  17.8950  17.9992
    18.0168  18.0827  18.1461  18.2271  18.2619  18.3725  18.4141  18.5203
    18.5881  18.6102  18.7168  18.7609  18.8279  18.9372  18.9667  19.0305
    19.0938  19.1816  19.2203  19.3090  19.3427  19.4053  19.4387  19.6418
    19.6637  19.6771  19.7344  19.8791  19.9189  19.9420  19.9888  20.0656
    20.1596  20.1971  20.2368  20.2426  20.2877  20.3370  20.3828  20.4625
    20.5112  20.5320  20.5416  20.5594  20.6675  20.7707  20.8086  20.8507
    20.8661  20.9360  20.9494  20.9846  21.0240  21.0684  21.0923  21.1178
    21.1411  21.1605  21.1748  21.2202  21.2638  21.2753  21.2908  21.3443
    21.3698  21.4412  21.5229  21.5374  21.5616  21.6001  21.6062  21.6539
    21.6981  21.7147  21.7214  21.7515  21.7876  21.8125  21.8254  21.9301
    21.9425  21.9640  21.9990  22.0149  22.0452  22.0687  22.1017  22.1787
    22.2187  22.2483  22.2521  22.2752  22.2890  22.3055  22.3503  22.3708
    22.4097  22.4632  22.4734  22.5076  22.5454  22.5798  22.5890  22.6304
    22.6507  22.6774  22.7329  22.7468  22.8022  22.8251  22.9391  22.9541
    22.9720  23.0263  23.1172  23.1344  23.1721  23.2083  23.2507  23.2808
    23.3051  23.3233  23.3453  23.4253  23.4363  23.4529  23.4773  23.5545
    23.5806  23.5955  23.6236  23.6311  23.6510  23.6807  23.7119  23.7603
    23.7761  23.7993  23.8147  23.8371  23.9660  24.0085  24.0474  24.0850
    24.0886  24.1628  24.2006  24.2208  24.2336  24.2748  24.3259  24.3595
    24.4612  24.4914  24.5092  24.5240  24.5682  24.5916  24.6201  24.6775
    24.7412  24.7771  24.8148  24.8224

          k = 0.0000 0.0000-0.1174 ( 39068 PWs)   bands (ev):

   -25.0749 -25.0741 -24.2089 -24.2077 -19.1288 -19.1014 -19.0536 -18.9888
   -18.8157 -18.7198 -18.4425 -18.3404 -17.9587 -17.8472 -17.3704 -17.2500
   -16.6821 -16.5511 -15.9713 -15.8130 -15.4434 -14.2172 -13.8820 -13.6057
   -13.1445 -12.8215 -12.3880 -12.2107 -11.6595 -11.6244 -11.4403 -11.2810
   -10.8387 -10.5083  -9.9701  -9.5736  -9.2303  -8.9107  -8.7423  -8.7128
    -8.5342  -8.5084  -8.3705  -8.3650  -8.2288  -8.2276  -7.7415  -7.7288
    -7.6999  -7.6397  -7.6236  -7.6049  -7.5620  -7.5212  -7.5165  -7.5113
    -7.4832  -7.0759  -6.9951  -6.9544  -6.9343  -6.8794  -6.8238  -6.6761
    -6.6180  -6.4574  -6.4075  -6.3772  -6.3281  -6.0562  -6.0298  -5.6813
    -5.6462  -5.1891  -5.1823  -4.6730  -4.5859  -4.1215  -3.9368  -3.6314
    -3.3005  -3.1993   0.7249   0.9152   1.1011   1.6148   1.7400   2.4601
     2.5027   2.9955   3.0455   3.2874   3.3456   3.3776   3.6567   3.9215
     3.9550   3.9916   4.0653   4.1683   4.1908   4.2390   4.4296   4.5331
     4.5602   4.7370   4.8187   4.8212   4.8374   4.9245   5.0135   5.0219
     5.0779   5.1039   5.1215   5.2992   5.5022   5.5168   5.5254   5.6211
     5.6417   5.7110   5.7577   5.7921   5.8276   5.8441   5.8787   5.8935
     6.0277   6.0649   6.1187   6.1805   6.3131   6.4118   6.4189   6.4476
     6.4601   6.4789   6.5018   6.5330   6.5750   6.5846   6.6121   6.6430
     6.7320   6.8351   6.8744   6.9296   6.9682   7.0001   7.0463   7.1711
     7.1949   7.2617   7.3205   7.3821   7.4034   7.4095   7.4431   7.4465
     7.5406   7.5702   7.6128   7.6227   7.7398   7.7504   7.9118   8.0353
     8.1670   8.1816   8.2918   8.3951   8.4110   8.4640   8.5627   8.6411
     8.6954   8.7253   8.7682   8.8448   8.9097   8.9654   9.0515   9.1458
     9.2729   9.3121   9.4532   9.4626   9.5153   9.6164   9.6400   9.6763
     9.7864   9.8089   9.8272   9.8779   9.9235  10.0528  10.1592  10.3059
    10.3558  10.3979  10.4194  10.4297  10.5623  10.5901  10.6616  10.7290
    10.8575  10.8707  10.8946  11.0871  11.1379  11.1587  11.1680  11.1827
    11.2699  11.3078  11.3157  11.3521  11.4209  11.4875  11.5651  11.6869
    11.7320  11.7991  11.8180  11.8424  11.9809  12.0173  12.0650  12.1419
    12.1737  12.2871  12.3320  12.3693  12.3928  12.4591  12.5907  12.6297
    12.6892  12.7342  12.7502  12.8297  12.8963  12.9320  12.9327  12.9527
    13.1261  13.2152  13.2278  13.2955  13.3056  13.3127  13.3423  13.4945
    13.4946  13.5420  13.5942  13.6721  13.8724  13.8814  13.9152  13.9314
    13.9820  14.1351  14.1708  14.2933  14.3465  14.4519  14.5554  14.6174
    14.6358  14.6451  14.6849  14.6991  14.7544  14.7637  14.8653  14.9054
    15.0160  15.0922  15.2030  15.2097  15.3158  15.3443  15.4185  15.5404
    15.5827  15.6519  15.6818  15.7350  15.7900  15.7984  15.8230  15.8952
    15.9119  15.9994  16.1319  16.2621  16.2777  16.3206  16.4266  16.4534
    16.5055  16.5754  16.6233  16.6461  16.7520  16.7585  16.8329  16.8432
    16.8632  16.9107  17.0081  17.0953  17.1238  17.1299  17.1768  17.2576
    17.3014  17.3485  17.4625  17.5016  17.5322  17.5414  17.5820  17.5992
    17.6958  17.7284  17.7599  17.7738  17.8030  17.8275  17.8786  17.9153
    17.9522  18.0912  18.1179  18.2356  18.2606  18.3577  18.4080  18.5268
    18.5842  18.6169  18.6945  18.7541  18.9369  18.9490  18.9776  18.9994
    19.0968  19.1459  19.2316  19.2739  19.3247  19.3862  19.5128  19.6424
    19.6578  19.8235  19.8649  19.9000  19.9454  19.9702  20.0050  20.0291
    20.1614  20.1813  20.2076  20.3026  20.3279  20.4128  20.4277  20.4939
    20.6008  20.6281  20.6406  20.6873  20.7258  20.7937  20.8123  20.8398
    20.8462  20.8694  20.9158  20.9708  20.9991  21.0335  21.0933  21.1187
    21.1392  21.2060  21.2254  21.2535  21.2892  21.3064  21.3250  21.4028
    21.4403  21.4601  21.4852  21.4977  21.5657  21.5940  21.6139  21.6625
    21.6752  21.6805  21.6824  21.7164  21.7423  21.7830  21.8569  21.9072
    21.9105  21.9429  22.0022  22.0058  22.0436  22.0754  22.1124  22.1204
    22.1825  22.2152  22.2556  22.2795  22.3039  22.3457  22.3513  22.3732
    22.4231  22.4477  22.4807  22.5035  22.5271  22.5294  22.5456  22.6370
    22.6483  22.7490  22.7680  22.8116  22.8328  22.8626  22.9126  22.9293
    22.9870  23.0448  23.1014  23.1586  23.1907  23.2062  23.2380  23.2527
    23.2786  23.3127  23.3623  23.3976  23.4182  23.4287  23.4454  23.4755
    23.5380  23.5409  23.5812  23.6247  23.7523  23.7535  23.7846  23.8394
    23.8436  23.8759  23.8988  23.9256  23.9505  23.9550  23.9839  24.0205
    24.0684  24.1040  24.1452  24.1467  24.1864  24.2279  24.2860  24.3190
    24.3446  24.4434  24.4751  24.4853  24.6492  24.6641  24.6710  24.6842
    24.7343  24.7995  24.8212  24.8502

     the Fermi energy is    -1.0193 ev

     Writing output data file AGNR_OH_17.save/

     init_run     :      8.26s CPU      8.40s WALL (       1 calls)
     electrons    :   2069.10s CPU   2081.22s WALL (       1 calls)

     Called by init_run:
     wfcinit      :      0.00s CPU      0.00s WALL (       1 calls)
     potinit      :      0.36s CPU      0.41s WALL (       1 calls)
     hinit0       :      7.20s CPU      7.23s WALL (       1 calls)

     Called by electrons:
     c_bands      :   2069.09s CPU   2081.19s WALL (       1 calls)
     v_of_rho     :      0.28s CPU      0.31s WALL (       1 calls)
     newd         :      0.21s CPU      0.25s WALL (       1 calls)

     Called by c_bands:
     init_us_2    :      0.11s CPU      0.11s WALL (      26 calls)
     cegterg      :   2017.42s CPU   2028.35s WALL (      26 calls)

     Called by sum_band:

     Called by *egterg:
     h_psi        :    331.31s CPU    335.46s WALL (     537 calls)
     s_psi        :     26.33s CPU     26.37s WALL (     537 calls)
     g_psi        :      2.64s CPU      2.65s WALL (     485 calls)
     cdiaghg      :   1164.39s CPU   1165.59s WALL (     511 calls)

     Called by h_psi:
     h_psi:pot    :    330.10s CPU    333.84s WALL (     537 calls)
     h_psi:calbec :     28.73s CPU     29.16s WALL (     537 calls)
     vloc_psi     :    275.14s CPU    278.41s WALL (     537 calls)
     add_vuspsi   :     26.22s CPU     26.27s WALL (     537 calls)

     General routines
     calbec       :     28.72s CPU     29.16s WALL (     537 calls)
     fft          :      0.18s CPU      0.21s WALL (      14 calls)
     ffts         :      0.01s CPU      0.01s WALL (       1 calls)
     fftw         :    251.83s CPU    254.82s WALL (  318620 calls)
     interpolate  :      0.02s CPU      0.02s WALL (       1 calls)
     davcio       :      0.01s CPU      0.71s WALL (      52 calls)

     Parallel routines
     fft_scatt_xy :     36.37s CPU     36.80s WALL (  318635 calls)
     fft_scatt_yz :     87.79s CPU     88.96s WALL (  318635 calls)

     PWSCF        : 34m48.72s CPU    36m47.24s WALL


   This run was terminated on:  22:53:26  21Apr2021            

=------------------------------------------------------------------------------=
   JOB DONE.
=------------------------------------------------------------------------------=
