
     Program PWSCF v.6.3 starts on  2Jan2022 at 17: 2:28 

     This program is part of the open-source Quantum ESPRESSO suite
     for quantum simulation of materials; please cite
         "P. Giannozzi et al., J. Phys.:Condens. Matter 21 395502 (2009);
         "P. Giannozzi et al., J. Phys.:Condens. Matter 29 465901 (2017);
          URL http://www.quantum-espresso.org", 
     in publications or presentations arising from this work. More details at
     http://www.quantum-espresso.org/quote

     Parallel version (MPI), running on    16 processors
     R & G space division:  proc/nbgrp/npool/nimage =      16
     Waiting for input...
     Reading input from standard input
     Message from routine read_cards :
     DEPRECATED: no units specified in CELL_PARAMETERS card

     Current dimensions of program PWSCF are:
     Max number of different atomic species (ntypx) = 10
     Max number of k-points (npk) =  40000
     Max angular momentum in pseudopotentials (lmaxx) =  3

     Atomic positions and unit cell read from directory:
     /home/zfwang/scratch/GNRDATASET/AGNR/AGNR_OH_18/AGNR_OH_18.save/


     Subspace diagonalization in iterative solution of the eigenvalue problem:
     a serial algorithm will be used


     Parallelization info
     --------------------
     sticks:   dense  smooth     PW     G-vecs:    dense   smooth      PW
     Min        2811     936    264               105270    20264    3038
     Max        2813     938    266               105271    20265    3039
     Sum       44989   14995   4233              1684325   324231   48609



     bravais-lattice index     =            0
     lattice parameter (alat)  =       1.8897  a.u.
     unit-cell volume          =    9486.8086 (a.u.)^3
     number of atoms/cell      =           44
     number of atomic types    =            3
     number of electrons       =       172.00
     number of Kohn-Sham states=          500
     kinetic-energy cutoff     =      40.0000  Ry
     charge density cutoff     =     480.0000  Ry
     Exchange-correlation      = PBE ( 1  4  3  4 0 0)

     celldm(1)=  18.897261  celldm(2)=   3.300000  celldm(3)=   0.426000
     celldm(4)=   0.000000  celldm(5)=   0.000000  celldm(6)=   0.000000

     crystal axes: (cart. coord. in units of alat)
               a(1) = (  10.000000   0.000000   0.000000 )  
               a(2) = (   0.000000  33.000000   0.000000 )  
               a(3) = (   0.000000   0.000000   4.260000 )  

     reciprocal axes: (cart. coord. in units 2 pi/alat)
               b(1) = (  0.100000  0.000000  0.000000 )  
               b(2) = (  0.000000  0.030303  0.000000 )  
               b(3) = (  0.000000  0.000000  0.234742 )  


     PseudoPot. # 1 for C  read from file:
     /home/zfwang/hp_home/MySoftware/qe-6.3/pseudo/C.pbe-n-rrkjus_psl.0.1.UPF
     MD5 check sum: fff530ed632a789b3b184014e67dd7f1
     Pseudo is Ultrasoft + core correction, Zval =  4.0
     Generated using "atomic" code by A. Dal Corso v.5.0.2 svn rev. 9415
     Using radial grid of 1073 points,  4 beta functions with: 
                l(1) =   0
                l(2) =   0
                l(3) =   1
                l(4) =   1
     Q(r) pseudized with 0 coefficients 


     PseudoPot. # 2 for O  read from file:
     /home/zfwang/hp_home/MySoftware/qe-6.3/pseudo/O.pbe-n-rrkjus_psl.0.1.UPF
     MD5 check sum: 73b3d1dec572cf22214b1d95c6304b69
     Pseudo is Ultrasoft + core correction, Zval =  6.0
     Generated using "atomic" code by A. Dal Corso v.6.3MaX
     Using radial grid of 1095 points,  4 beta functions with: 
                l(1) =   0
                l(2) =   0
                l(3) =   1
                l(4) =   1
     Q(r) pseudized with 0 coefficients 


     PseudoPot. # 3 for H  read from file:
     /home/zfwang/hp_home/MySoftware/qe-6.3/pseudo/H.pbe-rrkjus_psl.0.1.UPF
     MD5 check sum: e164a6907b691c6980f16942be34de84
     Pseudo is Ultrasoft, Zval =  1.0
     Generated using "atomic" code by A. Dal Corso v.5.0.2 svn rev. 9415
     Using radial grid of  929 points,  2 beta functions with: 
                l(1) =   0
                l(2) =   0
     Q(r) pseudized with 0 coefficients 


     atomic species   valence    mass     pseudopotential
        C              4.00    12.01070     C ( 1.00)
        O              6.00    18.99840     O ( 1.00)
        H              1.00     1.00794     H ( 1.00)

     No symmetry found



   Cartesian axes

     site n.     atom                  positions (alat units)
         1           C   tau(   1) = (   4.8033212   6.0615997   2.8016695  )
         2           C   tau(   2) = (   4.9423453   7.2439133   3.5495547  )
         3           C   tau(   3) = (   5.1451761   6.0794681   1.4681223  )
         4           C   tau(   4) = (   5.0073297   8.4783432   2.8373079  )
         5           C   tau(   5) = (   5.0154580   9.7157443   3.5500896  )
         6           C   tau(   6) = (   5.0458466   7.2477830   0.7087344  )
         7           C   tau(   7) = (   4.9984323   8.4813931   1.4217321  )
         8           C   tau(   8) = (   5.0093242  10.9474298   2.8411799  )
         9           C   tau(   9) = (   5.0023319  12.1811326   3.5492638  )
        10           C   tau(  10) = (   4.9933704   9.7172035   0.7082705  )
        11           C   tau(  11) = (   4.9973146  10.9484101   1.4168393  )
        12           C   tau(  12) = (   4.9983897  13.4172353   2.8378678  )
        13           C   tau(  13) = (   4.9981569  14.6504948   3.5452151  )
        14           C   tau(  14) = (   5.0000047  12.1817876   0.7083108  )
        15           C   tau(  15) = (   5.0007187  13.4180651   1.4183931  )
        16           C   tau(  16) = (   4.9992523  15.8829889   2.8348525  )
        17           C   tau(  17) = (   5.0001550  17.1185906   3.5439719  )
        18           C   tau(  18) = (   5.0004324  14.6503846   0.7083337  )
        19           C   tau(  19) = (   5.0000478  15.8835611   1.4152141  )
        20           C   tau(  20) = (   5.0013328  18.3513133   2.8352004  )
        21           C   tau(  21) = (   5.0018762  19.5837813   3.5449338  )
        22           C   tau(  22) = (   4.9995409  17.1184685   0.7035141  )
        23           C   tau(  23) = (   4.9988921  18.3511585   1.4122888  )
        24           C   tau(  24) = (   4.9988155  20.8194545   2.8346709  )
        25           C   tau(  25) = (   4.9924313  22.0530834   3.5426452  )
        26           C   tau(  26) = (   4.9991181  19.5836826   0.7042955  )
        27           C   tau(  27) = (   5.0011381  20.8195922   1.4155551  )
        28           C   tau(  28) = (   4.9879393  23.2838455   2.8328667  )
        29           C   tau(  29) = (   4.9974791  24.5210768   3.5448651  )
        30           C   tau(  30) = (   5.0053419  22.0519743   0.7068771  )
        31           C   tau(  31) = (   5.0110667  23.2833428   1.4148731  )
        32           C   tau(  32) = (   5.0578230  25.7550501   2.8315935  )
        33           C   tau(  33) = (   5.1871732  26.9380423   3.5784070  )
        34           C   tau(  34) = (   5.0061181  24.5183975   0.7002363  )
        35           C   tau(  35) = (   4.9523100  25.7518378   1.4125703  )
        36           C   tau(  36) = (   4.8430860  26.9188524   0.6518506  )
        37           O   tau(  37) = (   4.4087022   4.8108044   3.1844418  )
        38           O   tau(  38) = (   5.5281833   4.8230611   1.0134724  )
        39           O   tau(  39) = (   4.4529036  28.1740711   1.1044135  )
        40           O   tau(  40) = (   5.5746603  28.1899057   3.1921739  )
        41           H   tau(  41) = (   4.7929961   4.5985052   4.1021237  )
        42           H   tau(  42) = (   5.2632462   4.2481281   1.7864921  )
        43           H   tau(  43) = (   4.7195196  28.7474366   0.3301366  )
        44           H   tau(  44) = (   5.1868995  28.3996061   2.2745839  )

     number of k points=    26  Marzari-Vanderbilt smearing, width (Ry)=  0.0100
                       cart. coord. in units 2pi/alat
        k(    1) = (   0.0000000   0.0000000   0.0000000), wk =   0.0400000
        k(    2) = (   0.0000000   0.0000000   0.0046948), wk =   0.0800000
        k(    3) = (   0.0000000   0.0000000   0.0093897), wk =   0.0800000
        k(    4) = (   0.0000000   0.0000000   0.0140845), wk =   0.0800000
        k(    5) = (   0.0000000   0.0000000   0.0187793), wk =   0.0800000
        k(    6) = (   0.0000000   0.0000000   0.0234742), wk =   0.0800000
        k(    7) = (   0.0000000   0.0000000   0.0281690), wk =   0.0800000
        k(    8) = (   0.0000000   0.0000000   0.0328638), wk =   0.0800000
        k(    9) = (   0.0000000   0.0000000   0.0375587), wk =   0.0800000
        k(   10) = (   0.0000000   0.0000000   0.0422535), wk =   0.0800000
        k(   11) = (   0.0000000   0.0000000   0.0469484), wk =   0.0800000
        k(   12) = (   0.0000000   0.0000000   0.0516432), wk =   0.0800000
        k(   13) = (   0.0000000   0.0000000   0.0563380), wk =   0.0800000
        k(   14) = (   0.0000000   0.0000000   0.0610329), wk =   0.0800000
        k(   15) = (   0.0000000   0.0000000   0.0657277), wk =   0.0800000
        k(   16) = (   0.0000000   0.0000000   0.0704225), wk =   0.0800000
        k(   17) = (   0.0000000   0.0000000   0.0751174), wk =   0.0800000
        k(   18) = (   0.0000000   0.0000000   0.0798122), wk =   0.0800000
        k(   19) = (   0.0000000   0.0000000   0.0845070), wk =   0.0800000
        k(   20) = (   0.0000000   0.0000000   0.0892019), wk =   0.0800000
        k(   21) = (   0.0000000   0.0000000   0.0938967), wk =   0.0800000
        k(   22) = (   0.0000000   0.0000000   0.0985915), wk =   0.0800000
        k(   23) = (   0.0000000   0.0000000   0.1032864), wk =   0.0800000
        k(   24) = (   0.0000000   0.0000000   0.1079812), wk =   0.0800000
        k(   25) = (   0.0000000   0.0000000   0.1126761), wk =   0.0800000
        k(   26) = (   0.0000000   0.0000000  -0.1173709), wk =   0.0400000

     Dense  grid:  1684325 G-vectors     FFT dimensions: ( 135, 450,  60)

     Smooth grid:   324231 G-vectors     FFT dimensions: (  80, 256,  36)

     Estimated max dynamical RAM per process >     487.04 MB

     Estimated total dynamical RAM >       7.61 GB

     Check: negative/imaginary core charge=   -0.000006    0.000000

     The potential is recalculated from file :
     /home/zfwang/scratch/GNRDATASET/AGNR/AGNR_OH_18/AGNR_OH_18.save/charge-density.dat


     negative rho (up, down):  9.102E-04 0.000E+00
     Starting wfcs are  164 randomized atomic wfcs +  336 random wfcs

     Band Structure Calculation
     Davidson diagonalization with overlap

     ethr =  5.81E-09,  avg # of iterations = 18.5

     total cpu time spent up to now is     2236.6 secs

     End of band structure calculation

          k = 0.0000 0.0000 0.0000 ( 40395 PWs)   bands (ev):

   -25.6065 -25.6054 -23.3280 -23.3280 -20.5508 -20.4583 -20.2310 -19.8862
   -19.4367 -18.8895 -18.2351 -17.5080 -16.7294 -15.9618 -15.3548 -15.2946
   -15.2660 -15.0696 -14.9363 -14.7604 -14.5417 -14.3783 -14.2673 -14.0757
   -14.0551 -13.9633 -13.6882 -13.6563 -13.4308 -12.9599 -12.6346 -12.3723
   -11.9745 -11.7823 -11.7266 -11.4231 -11.0501 -10.9720 -10.8759 -10.3456
   -10.2000 -10.1499  -9.6428  -9.5091  -9.3223  -8.9908  -8.9230  -8.8208
    -8.8025  -8.5638  -8.4245  -8.2788  -8.2691  -8.1667  -7.8982  -7.7430
    -7.7203  -7.6657  -7.4756  -7.2998  -6.9885  -6.9036  -6.6743  -6.4632
    -6.2481  -5.9555  -5.9118  -5.5866  -5.4974  -5.3805  -5.0786  -4.9002
    -4.6988  -4.5998  -4.3372  -4.2234  -3.8728  -3.3251  -3.1712  -3.0109
    -2.8750  -2.4513  -2.1651  -1.9195  -1.3908  -1.2906  -0.7243  -0.5301
    -0.2574   0.0714   0.2988   0.3250   0.5117   0.6245   1.1303   1.1806
     1.3903   1.9574   2.1319   2.1403   2.2547   2.6887   2.7521   2.9041
     2.9437   3.1120   3.2251   3.3436   3.5894   3.6839   3.8148   3.8279
     3.8843   4.0884   4.3905   4.4471   4.4997   4.6385   4.6797   4.8396
     4.9566   5.1974   5.2164   5.3222   5.3544   5.4101   5.7892   5.9910
     6.0353   6.3053   6.3683   6.4773   6.4934   6.5744   6.6766   6.8211
     6.8293   6.8725   6.9405   7.0040   7.2443   7.2772   7.3337   7.3373
     7.4871   7.5082   7.5828   7.5842   7.6519   7.8213   7.9063   7.9637
     8.0654   8.1455   8.1492   8.3121   8.3291   8.3420   8.4095   8.5851
     8.7391   8.8077   8.8424   8.9505   9.0149   9.0285   9.3070   9.3373
     9.3424   9.4196   9.4932   9.5150   9.5699   9.5890   9.5998   9.6392
     9.6986   9.8072   9.8658   9.9321   9.9507   9.9559   9.9868  10.0310
    10.0403  10.0458  10.1019  10.1140  10.1406  10.2294  10.2585  10.2742
    10.3089  10.3461  10.3610  10.4336  10.4383  10.4632  10.5322  10.5475
    10.5628  10.5987  10.6495  10.7378  10.8073  10.8303  10.8963  10.9298
    10.9460  10.9946  11.1209  11.1663  11.1693  11.1788  11.1961  11.2840
    11.3241  11.3589  11.4076  11.4212  11.4326  11.4704  11.4950  11.5027
    11.5239  11.5528  11.6144  11.6486  11.6714  11.7081  11.7635  11.8460
    11.8686  11.8912  11.9067  11.9091  11.9214  11.9430  11.9634  12.0033
    12.0656  12.0681  12.1866  12.2112  12.2240  12.2486  12.2618  12.3662
    12.3864  12.4141  12.5053  12.5245  12.5295  12.5437  12.5739  12.5878
    12.6481  12.7120  12.7629  12.7848  12.8240  12.8930  12.9135  12.9576
    13.0497  13.0768  13.1417  13.1431  13.2519  13.3032  13.3324  13.4665
    13.5115  13.5163  13.6369  13.6885  13.7785  13.8445  13.8832  13.9431
    13.9791  14.0117  14.0900  14.1476  14.1951  14.2353  14.2888  14.3260
    14.3377  14.3838  14.4344  14.5064  14.5500  14.5614  14.6047  14.6795
    14.7392  14.7429  14.8326  14.8522  14.9015  15.0520  15.0561  15.0858
    15.1789  15.2177  15.3392  15.3641  15.4849  15.4941  15.5291  15.5571
    15.5770  15.6505  15.6880  15.7236  15.7414  15.8136  15.8265  15.9424
    15.9590  15.9789  16.0125  16.0763  16.1598  16.2063  16.2326  16.2472
    16.2544  16.3592  16.3972  16.4756  16.5478  16.5937  16.6552  16.7283
    16.7506  16.7730  16.8139  16.8364  16.8656  16.9241  16.9359  16.9485
    17.0359  17.0918  17.1187  17.1441  17.2451  17.2970  17.3441  17.3464
    17.3605  17.3699  17.4466  17.4787  17.5201  17.5864  17.6030  17.6492
    17.8348  17.9016  17.9551  17.9726  17.9811  18.0162  18.0737  18.1513
    18.1601  18.1987  18.2249  18.2623  18.3287  18.3909  18.4128  18.4326
    18.4428  18.4863  18.5106  18.5161  18.5283  18.5637  18.5897  18.5972
    18.6192  18.6214  18.6962  18.7438  18.8116  18.8477  18.8678  18.8904
    18.9216  18.9576  19.0013  19.0350  19.0728  19.2849  19.3151  19.3369
    19.3542  19.4442  19.4827  19.5181  19.5578  19.6258  19.6689  19.7181
    19.7555  19.7899  19.8156  19.9524  19.9738  20.0005  20.0552  20.1946
    20.2293  20.2992  20.3639  20.4159  20.4365  20.5174  20.7200  20.7296
    20.7660  20.8392  20.8677  20.8792  20.9494  21.0141  21.0487  21.0879
    21.1022  21.1304  21.2024  21.2154  21.3069  21.3201  21.3240  21.3824
    21.3841  21.4373  21.4600  21.5067  21.5990  21.6257  21.6414  21.6494
    21.6678  21.6999  21.7209  21.7590  21.8535  21.8691  21.9113  21.9395
    21.9643  21.9906  22.0750  22.1497  22.1521  22.2226  22.2389  22.2696
    22.3211  22.3466  22.4449  22.4835  22.4880  22.5361  22.5410  22.6193
    22.6540  22.7119  22.7397  22.7795  22.8103  22.8370  22.8831  22.8874
    22.9139  22.9215  23.0202  23.0266  23.0400  23.0723  23.1048  23.1351
    23.1512  23.1661  23.2203  23.2630  23.2763  23.3013  23.3224  23.4341
    23.4443  23.4916  23.5323  23.5390

          k = 0.0000 0.0000 0.0047 ( 40415 PWs)   bands (ev):

   -25.6050 -25.6039 -23.3306 -23.3306 -20.5484 -20.4560 -20.2287 -19.8839
   -19.4344 -18.8872 -18.2328 -17.5058 -16.7274 -15.9609 -15.3878 -15.3490
   -15.2671 -15.1234 -14.9211 -14.7898 -14.5350 -14.3909 -14.2231 -14.0812
   -14.0193 -13.9692 -13.6645 -13.6021 -13.4269 -12.9675 -12.6392 -12.3760
   -11.9686 -11.7779 -11.7325 -11.4124 -11.0382 -10.9812 -10.8702 -10.3307
   -10.2077 -10.1502  -9.6378  -9.5069  -9.3237  -8.9957  -8.9169  -8.8214
    -8.7938  -8.5618  -8.4279  -8.2796  -8.2665  -8.1600  -7.8953  -7.7453
    -7.7174  -7.6702  -7.4720  -7.2975  -6.9816  -6.9058  -6.6837  -6.4539
    -6.2461  -5.9640  -5.9092  -5.5848  -5.4999  -5.3787  -5.0867  -4.9008
    -4.6971  -4.6073  -4.3411  -4.2319  -3.8715  -3.3410  -3.1876  -3.0113
    -2.8920  -2.4708  -2.1686  -1.9435  -1.4114  -1.3385  -0.6770  -0.5110
    -0.2334   0.0920   0.3000   0.3449   0.5314   0.6440   1.1338   1.1784
     1.3932   1.9607   2.1283   2.1435   2.2576   2.6915   2.7552   2.9071
     2.9469   3.1082   3.2281   3.3459   3.5926   3.6861   3.8179   3.8309
     3.8875   4.0879   4.3899   4.4502   4.5026   4.6404   4.6827   4.8403
     4.9595   5.1982   5.2194   5.3246   5.3559   5.4133   5.7868   5.9937
     6.0353   6.3047   6.3702   6.4787   6.4967   6.5770   6.6750   6.8200
     6.8284   6.8643   6.9421   7.0011   7.2442   7.2858   7.3318   7.3405
     7.4873   7.5085   7.5752   7.5826   7.6541   7.8139   7.8955   7.9708
     8.0683   8.1390   8.1446   8.3017   8.3320   8.3418   8.4094   8.5662
     8.7344   8.8046   8.8439   8.9446   9.0076   9.0357   9.2981   9.3076
     9.3343   9.4194   9.4859   9.5043   9.5279   9.5744   9.5794   9.6562
     9.7056   9.7174   9.7637   9.8164   9.8690   9.9399   9.9655   9.9835
    10.0135  10.0711  10.1059  10.1250  10.1897  10.2532  10.2682  10.2985
    10.3345  10.3531  10.3934  10.4166  10.4348  10.4479  10.5456  10.5645
    10.5892  10.6400  10.6978  10.7059  10.7831  10.8094  10.8252  10.8911
    10.9506  11.0127  11.0555  11.0978  11.1688  11.2080  11.2482  11.2782
    11.3076  11.3321  11.3650  11.3907  11.4284  11.4692  11.4756  11.5170
    11.5347  11.5656  11.6796  11.7317  11.7483  11.7789  11.8000  11.8126
    11.8446  11.8782  11.8889  11.9149  11.9387  11.9768  12.0180  12.0381
    12.0761  12.0988  12.1897  12.2137  12.2226  12.2338  12.2665  12.2882
    12.3240  12.3826  12.4237  12.4400  12.4619  12.5316  12.6035  12.6408
    12.6548  12.7698  12.7992  12.8145  12.8550  12.8946  12.9696  13.0151
    13.0338  13.0842  13.1158  13.1334  13.2297  13.2937  13.4728  13.4808
    13.5235  13.5351  13.5789  13.6897  13.7665  13.8263  13.8803  13.9333
    13.9915  14.0391  14.1212  14.1770  14.2363  14.2397  14.3107  14.3348
    14.3411  14.3551  14.4258  14.4965  14.5522  14.5697  14.6086  14.6797
    14.7149  14.7915  14.8250  14.8543  14.8577  15.0112  15.0325  15.1310
    15.1730  15.2427  15.3217  15.3935  15.4179  15.4824  15.5155  15.5332
    15.5848  15.6691  15.6883  15.7379  15.7405  15.8063  15.8595  15.9039
    15.9590  16.0035  16.0843  16.1202  16.1320  16.1797  16.2004  16.2629
    16.2855  16.4009  16.4143  16.4487  16.5009  16.5846  16.6315  16.7251
    16.7411  16.7729  16.8057  16.8680  16.9294  16.9323  16.9538  16.9827
    17.0016  17.0220  17.1712  17.1924  17.2616  17.2824  17.3446  17.3619
    17.4159  17.4307  17.4468  17.5036  17.5563  17.6070  17.6258  17.6315
    17.7761  17.8108  17.9233  17.9610  17.9838  18.0249  18.0910  18.1330
    18.1541  18.1756  18.2143  18.2593  18.2838  18.3157  18.3975  18.4059
    18.4246  18.4362  18.4640  18.5094  18.5573  18.5598  18.5781  18.5947
    18.6240  18.6281  18.6854  18.7509  18.8610  18.8644  18.9126  18.9410
    18.9660  18.9837  19.0392  19.0857  19.1090  19.2568  19.3048  19.3391
    19.4340  19.4618  19.5046  19.5489  19.5507  19.5989  19.6599  19.6901
    19.7238  19.7652  19.8613  19.9049  19.9818  20.0285  20.0687  20.1767
    20.2014  20.3205  20.4304  20.4631  20.4929  20.5401  20.6958  20.7471
    20.7773  20.8369  20.8676  20.8804  20.8898  20.9779  20.9873  21.0358
    21.1110  21.1719  21.2051  21.2872  21.2959  21.3189  21.3284  21.3602
    21.4289  21.4520  21.4936  21.5407  21.6110  21.6265  21.6469  21.6706
    21.6837  21.6857  21.6893  21.7829  21.8429  21.8680  21.8925  21.9266
    21.9478  21.9976  22.1032  22.1211  22.1749  22.2011  22.2377  22.2763
    22.3315  22.3575  22.4115  22.4616  22.5013  22.5125  22.5527  22.6205
    22.6790  22.7012  22.7530  22.7831  22.7939  22.8405  22.8519  22.8682
    22.9251  22.9293  22.9807  23.0138  23.0312  23.0398  23.0944  23.1170
    23.1564  23.1997  23.2097  23.2760  23.2941  23.3363  23.3518  23.4059
    23.4270  23.4654  23.5145  23.5487

          k = 0.0000 0.0000 0.0094 ( 40435 PWs)   bands (ev):

   -25.6007 -25.5995 -23.3385 -23.3385 -20.5413 -20.4489 -20.2217 -19.8769
   -19.4274 -18.8803 -18.2260 -17.4992 -16.7212 -15.9587 -15.4826 -15.4670
   -15.2880 -15.2342 -14.9528 -14.8321 -14.5557 -14.3861 -14.1409 -14.1123
   -13.9476 -13.8916 -13.5973 -13.4874 -13.4102 -12.9894 -12.6527 -12.3853
   -11.9563 -11.7689 -11.7402 -11.3822 -11.0106 -11.0040 -10.8489 -10.2926
   -10.2242 -10.1527  -9.6263  -9.4984  -9.3274  -9.0047  -8.9030  -8.8209
    -8.7714  -8.5559  -8.4364  -8.2808  -8.2584  -8.1418  -7.8865  -7.7468
    -7.7266  -7.6708  -7.4616  -7.2889  -6.9646  -6.9140  -6.7024  -6.4321
    -6.2402  -5.9855  -5.9044  -5.5797  -5.5058  -5.3749  -5.1093  -4.9037
    -4.6923  -4.6293  -4.3530  -4.2574  -3.8677  -3.3879  -3.2355  -3.0133
    -2.9410  -2.5270  -2.1794  -2.0116  -1.4693  -1.4515  -0.5651  -0.4585
    -0.1654   0.1519   0.3034   0.4034   0.5894   0.7018   1.1441   1.1717
     1.4021   1.9704   2.1173   2.1530   2.2667   2.7002   2.7645   2.9160
     2.9565   3.0966   3.2369   3.3532   3.6022   3.6923   3.8271   3.8398
     3.8968   4.0862   4.3887   4.4595   4.5115   4.6460   4.6917   4.8425
     4.9684   5.2005   5.2281   5.3317   5.3610   5.4229   5.7798   6.0019
     6.0354   6.3031   6.3759   6.4827   6.5064   6.5847   6.6705   6.8146
     6.8261   6.8433   6.9450   6.9929   7.2442   7.3101   7.3290   7.3475
     7.4858   7.5086   7.5615   7.5750   7.6589   7.7933   7.8661   7.9840
     8.0760   8.1169   8.1409   8.2664   8.3365   8.3449   8.4096   8.5211
     8.7134   8.7988   8.8470   8.9113   8.9980   9.0495   9.2088   9.2493
     9.3323   9.3616   9.4044   9.4585   9.4890   9.5156   9.5302   9.5435
     9.6028   9.6756   9.6986   9.7301   9.8290   9.8835   9.9235   9.9383
     9.9668   9.9867  10.0484  10.0935  10.1431  10.2390  10.2547  10.2907
    10.2956  10.3645  10.3759  10.4124  10.4337  10.4619  10.5759  10.6150
    10.6360  10.6757  10.6952  10.7180  10.7868  10.8013  10.8383  10.8615
    10.9277  10.9524  11.0100  11.0120  11.1247  11.1282  11.2060  11.2324
    11.2846  11.3396  11.4280  11.4383  11.4631  11.4866  11.5147  11.5572
    11.5865  11.6642  11.6986  11.7212  11.7479  11.7628  11.8246  11.8421
    11.8789  11.9083  11.9387  11.9762  12.0058  12.0412  12.0568  12.0618
    12.1034  12.1192  12.1527  12.1724  12.2213  12.2321  12.2506  12.2674
    12.2957  12.3374  12.3598  12.3940  12.4713  12.5035  12.5880  12.6404
    12.6669  12.7409  12.7821  12.8016  12.8753  12.9175  13.0303  13.0693
    13.1022  13.1099  13.1776  13.2706  13.2826  13.3124  13.4355  13.4598
    13.5110  13.5888  13.6931  13.7470  13.7797  13.8085  13.8648  13.9475
    14.0146  14.0541  14.1034  14.1732  14.2658  14.2942  14.3239  14.3675
    14.3931  14.4086  14.4231  14.4541  14.5497  14.5989  14.6079  14.6415
    14.7761  14.8020  14.8256  14.8498  14.8626  14.9885  15.0215  15.0878
    15.1723  15.1857  15.2628  15.3130  15.4619  15.4851  15.5035  15.5514
    15.5938  15.6704  15.7259  15.7333  15.7630  15.8057  15.8546  15.9175
    15.9724  16.0128  16.0256  16.0936  16.1588  16.1841  16.2599  16.2977
    16.3117  16.3654  16.4891  16.5058  16.5428  16.5811  16.6026  16.7303
    16.7336  16.7832  16.7950  16.8515  16.9032  16.9474  16.9597  17.0128
    17.0608  17.1150  17.2209  17.2649  17.2935  17.3323  17.3653  17.3934
    17.4137  17.4873  17.5030  17.5429  17.5753  17.6036  17.6516  17.6611
    17.6801  17.7785  17.8406  17.8882  17.9643  18.0137  18.0797  18.0859
    18.1212  18.1496  18.1600  18.1944  18.2468  18.2823  18.3202  18.3443
    18.3919  18.4011  18.4313  18.4400  18.5292  18.5551  18.5669  18.6080
    18.6189  18.6599  18.6996  18.7922  18.8744  18.9449  18.9586  19.0322
    19.0445  19.0912  19.1172  19.1569  19.1912  19.2521  19.3002  19.3918
    19.4400  19.4533  19.4856  19.5512  19.5832  19.6202  19.6855  19.7007
    19.7319  19.7820  19.8192  19.9442  20.0355  20.0841  20.1121  20.1646
    20.2213  20.3452  20.4763  20.5500  20.5676  20.6208  20.6402  20.6656
    20.7541  20.8144  20.8293  20.8605  20.9141  20.9259  21.0258  21.0686
    21.1321  21.2024  21.2625  21.2649  21.2930  21.3234  21.3251  21.3961
    21.4420  21.4465  21.5032  21.5711  21.5747  21.6013  21.6660  21.6691
    21.6926  21.7166  21.7705  21.8093  21.8441  21.8756  21.8822  21.8992
    21.9963  22.0193  22.0912  22.1310  22.1712  22.2148  22.2429  22.2765
    22.2851  22.3431  22.4280  22.4672  22.4885  22.5138  22.5386  22.5957
    22.6516  22.6790  22.7218  22.7244  22.7629  22.7888  22.8260  22.8612
    22.8908  22.9596  22.9669  22.9841  23.0405  23.0728  23.0923  23.1409
    23.1660  23.2123  23.2516  23.2817  23.3263  23.3467  23.3517  23.3959
    23.4048  23.4842  23.5260  23.5432

          k = 0.0000 0.0000 0.0141 ( 40407 PWs)   bands (ev):

   -25.5934 -25.5923 -23.3515 -23.3515 -20.5295 -20.4372 -20.2100 -19.8653
   -19.4159 -18.8689 -18.2147 -17.4882 -16.7111 -15.9573 -15.6200 -15.6131
   -15.3954 -15.3047 -15.0439 -14.8842 -14.5960 -14.4036 -14.1560 -14.0052
   -13.8454 -13.7466 -13.5152 -13.3705 -13.3441 -13.0228 -12.6735 -12.3957
   -11.9558 -11.7601 -11.7236 -11.3430 -11.0299 -10.9784 -10.8041 -10.2780
   -10.2062 -10.1568  -9.6178  -9.4800  -9.3314  -9.0111  -8.8859  -8.8166
    -8.7426  -8.5465  -8.4449  -8.2793  -8.2444  -8.1165  -7.8722  -7.7652
    -7.7405  -7.6540  -7.4451  -7.2718  -6.9597  -6.9183  -6.7137  -6.4076
    -6.2315  -6.0151  -5.9003  -5.5727  -5.5126  -5.3728  -5.1423  -4.9114
    -4.6899  -4.6597  -4.3734  -4.2996  -3.8613  -3.4630  -3.3122  -3.0347
    -3.0006  -2.6149  -2.1983  -2.1142  -1.5957  -1.5514  -0.4258  -0.3822
    -0.0623   0.2462   0.3095   0.4970   0.6828   0.7949   1.1591   1.1623
     1.4174   1.9866   2.0986   2.1689   2.2823   2.7148   2.7799   2.9306
     2.9726   3.0771   3.2514   3.3660   3.6182   3.7021   3.8424   3.8547
     3.9125   4.0823   4.3883   4.4749   4.5263   4.6545   4.7067   4.8460
     4.9832   5.2045   5.2425   5.3431   5.3707   5.4386   5.7687   6.0153
     6.0351   6.3001   6.3854   6.4881   6.5224   6.5962   6.6639   6.7978
     6.8128   6.8272   6.9473   6.9806   7.2452   7.3257   7.3474   7.3578
     7.4753   7.5056   7.5518   7.5687   7.6633   7.7630   7.8181   7.9915
     8.0822   8.1019   8.1335   8.2017   8.3358   8.3546   8.4105   8.4752
     8.6594   8.7892   8.8391   8.8645   8.9533   9.0462   9.0761   9.1268
     9.1795   9.2278   9.3093   9.3847   9.4053   9.4582   9.5002   9.5394
     9.5691   9.5907   9.6368   9.7060   9.7319   9.8079   9.8717   9.8868
     9.9329   9.9531  10.0403  10.0532  10.0746  10.1264  10.1329  10.1853
    10.2107  10.2635  10.3092  10.3657  10.4420  10.4869  10.5200  10.5503
    10.5897  10.6660  10.6730  10.7008  10.7512  10.7771  10.8656  10.9009
    10.9458  10.9724  11.0078  11.0291  11.0995  11.1561  11.2320  11.2731
    11.2879  11.3799  11.4115  11.4794  11.4881  11.5224  11.5758  11.5898
    11.6145  11.6577  11.6682  11.7116  11.7319  11.7654  11.7886  11.8238
    11.8806  11.8950  11.9342  11.9835  12.0071  12.0642  12.0773  12.1012
    12.1377  12.1988  12.2007  12.2280  12.2448  12.2760  12.3099  12.3386
    12.3471  12.3573  12.3891  12.4117  12.4377  12.4822  12.5066  12.6072
    12.6969  12.7208  12.7769  12.8003  12.9037  12.9442  13.0248  13.0608
    13.0995  13.1680  13.2180  13.3164  13.3718  13.4086  13.5165  13.5451
    13.5789  13.6276  13.6789  13.7757  13.8253  13.8794  13.9139  13.9792
    14.0442  14.0542  14.0793  14.1746  14.2596  14.2979  14.3334  14.3716
    14.3915  14.4343  14.4649  14.5074  14.5643  14.6003  14.6556  14.7148
    14.7878  14.8168  14.8371  14.8579  14.9076  14.9665  15.0202  15.0342
    15.0730  15.2214  15.2424  15.2852  15.4439  15.5058  15.5358  15.5611
    15.5689  15.5854  15.6692  15.7424  15.7606  15.8154  15.8608  15.9227
    15.9388  16.0375  16.0703  16.1049  16.1844  16.2181  16.2598  16.3154
    16.3436  16.4532  16.4918  16.5285  16.5934  16.6325  16.6783  16.7267
    16.7686  16.8163  16.8480  16.8593  16.9470  16.9833  17.0199  17.0273
    17.1119  17.1637  17.2518  17.2887  17.3229  17.3616  17.3738  17.3751
    17.4083  17.4839  17.5040  17.5234  17.5624  17.5846  17.6628  17.6689
    17.7044  17.7264  17.8209  17.8830  17.9464  17.9978  18.0189  18.0425
    18.0735  18.0942  18.1204  18.1626  18.2365  18.2470  18.2761  18.2945
    18.3970  18.4294  18.4365  18.4834  18.5107  18.5500  18.5599  18.5978
    18.6175  18.6468  18.7384  18.8158  18.8692  18.9542  19.0524  19.0716
    19.0959  19.1465  19.1687  19.1820  19.2298  19.2495  19.2569  19.3563
    19.4128  19.5233  19.5367  19.5741  19.6021  19.6908  19.7490  19.7848
    19.8319  19.8592  19.9630  20.0435  20.0965  20.1503  20.1662  20.1901
    20.2529  20.3224  20.4770  20.5025  20.5400  20.5881  20.6471  20.7059
    20.7466  20.8190  20.8539  20.9077  20.9384  20.9507  21.0505  21.1186
    21.1592  21.2050  21.2752  21.2941  21.3000  21.3337  21.3631  21.3667
    21.4441  21.4819  21.5050  21.5197  21.5577  21.6096  21.6273  21.6788
    21.6948  21.7184  21.7499  21.7983  21.8150  21.8968  21.9296  22.0409
    22.0614  22.1191  22.1203  22.1511  22.1944  22.2070  22.2384  22.2666
    22.2847  22.3202  22.3757  22.4330  22.4774  22.5108  22.5242  22.5467
    22.5666  22.6165  22.6318  22.6958  22.7580  22.7753  22.8232  22.8401
    22.9291  22.9490  22.9768  22.9906  23.0331  23.1089  23.1397  23.1503
    23.1838  23.2128  23.2280  23.3083  23.3287  23.3634  23.3743  23.4197
    23.4445  23.4965  23.5303  23.5618

          k = 0.0000 0.0000 0.0188 ( 40429 PWs)   bands (ev):

   -25.5833 -25.5821 -23.3696 -23.3695 -20.5130 -20.4207 -20.1936 -19.8490
   -19.3998 -18.8529 -18.1990 -17.4728 -16.6971 -15.9655 -15.7747 -15.7706
   -15.5486 -15.3817 -15.1213 -14.9843 -14.6261 -14.4932 -14.0995 -13.9342
   -13.6893 -13.5766 -13.4469 -13.2812 -13.1966 -13.0572 -12.7006 -12.4019
   -11.9834 -11.7335 -11.6809 -11.3233 -11.0248 -10.9528 -10.7413 -10.2995
   -10.1748 -10.1279  -9.6179  -9.4567  -9.3281  -9.0140  -8.8665  -8.8058
    -8.7161  -8.5325  -8.4460  -8.2728  -8.2249  -8.0886  -7.8534  -7.8161
    -7.7288  -7.6281  -7.4239  -7.2480  -6.9957  -6.8961  -6.7091  -6.3874
    -6.2228  -6.0475  -5.8979  -5.5666  -5.5185  -5.3759  -5.1806  -4.9265
    -4.7247  -4.6630  -4.4030  -4.3577  -3.8526  -3.5626  -3.4135  -3.1317
    -3.0103  -2.7280  -2.2463  -2.2206  -1.7491  -1.6532  -0.2916  -0.2757
     0.0662   0.3164   0.3706   0.6207   0.8072   0.9197   1.1434   1.1857
     1.4396   2.0092   2.0721   2.1912   2.3045   2.7356   2.8013   2.9504
     2.9951   3.0499   3.2715   3.3851   3.6407   3.7144   3.8638   3.8757
     3.9344   4.0752   4.3911   4.4964   4.5469   4.6642   4.7278   4.8513
     5.0039   5.2106   5.2625   5.3582   5.3861   5.4601   5.7542   6.0318
     6.0359   6.2954   6.3985   6.4923   6.5440   6.6092   6.6558   6.7603
     6.7918   6.8222   6.9484   6.9671   7.2476   7.3240   7.3668   7.3891
     7.4574   7.4991   7.5540   7.5655   7.6620   7.7303   7.7566   7.9849
     8.0488   8.1055   8.1122   8.1567   8.3323   8.3609   8.4057   8.4474
     8.5598   8.7393   8.7872   8.8070   8.8382   8.8751   8.9338   9.0329
     9.1076   9.1330   9.1723   9.2287   9.3581   9.4331   9.4683   9.5135
     9.5248   9.5640   9.5737   9.6083   9.7328   9.7618   9.7812   9.8139
     9.8489   9.8854   9.9272   9.9641  10.0114  10.0401  10.0672  10.1147
    10.1758  10.2250  10.2524  10.2576  10.2996  10.3162  10.4409  10.4765
    10.5458  10.5758  10.5982  10.6559  10.6874  10.7588  10.8006  10.8561
    10.8726  11.0503  11.1081  11.1217  11.1863  11.2466  11.2812  11.3163
    11.3486  11.3823  11.4279  11.4517  11.4824  11.5032  11.5857  11.5993
    11.6259  11.6426  11.6710  11.6961  11.7093  11.7296  11.7487  11.7840
    11.8644  11.9511  12.0035  12.0242  12.0407  12.0547  12.1042  12.1371
    12.1946  12.2187  12.2272  12.2517  12.2753  12.3016  12.3390  12.3697
    12.4152  12.4280  12.4341  12.4548  12.5089  12.5508  12.5650  12.5971
    12.6604  12.7745  12.7918  12.8179  12.8522  12.9708  13.0431  13.0645
    13.1144  13.2061  13.2448  13.3174  13.4329  13.5113  13.5662  13.5907
    13.6144  13.6796  13.7341  13.8481  13.8589  13.9167  13.9907  14.0043
    14.0583  14.1631  14.1760  14.1788  14.2297  14.2974  14.3179  14.3629
    14.3828  14.4345  14.5354  14.5569  14.6112  14.6414  14.6602  14.7068
    14.7834  14.8156  14.8768  14.8912  14.9061  14.9664  15.0374  15.0958
    15.1486  15.2572  15.2831  15.2897  15.3952  15.4320  15.4789  15.4985
    15.5480  15.5617  15.6564  15.7322  15.7848  15.8140  15.8536  15.8820
    15.9912  16.0186  16.1027  16.1748  16.1899  16.2825  16.2936  16.3593
    16.4235  16.4612  16.5385  16.5970  16.6377  16.6988  16.7135  16.7491
    16.7921  16.8812  16.9197  16.9576  16.9706  17.0354  17.0766  17.0873
    17.1441  17.1717  17.2237  17.2677  17.2889  17.3217  17.3339  17.3849
    17.4327  17.4434  17.4809  17.4888  17.5375  17.5940  17.6198  17.6542
    17.6611  17.7245  17.7894  17.8194  17.9248  18.0072  18.0251  18.0569
    18.0915  18.1050  18.1185  18.1991  18.2272  18.2404  18.3138  18.3479
    18.4093  18.4346  18.4551  18.4913  18.5478  18.5659  18.6038  18.6145
    18.6393  18.6771  18.7714  18.8181  18.8601  18.8996  18.9919  19.0296
    19.0441  19.1069  19.1444  19.1799  19.2280  19.2786  19.3688  19.3840
    19.3925  19.5303  19.6604  19.6928  19.7519  19.8025  19.8413  19.9306
    19.9487  19.9971  20.0696  20.0919  20.1490  20.1643  20.2147  20.2445
    20.2746  20.3546  20.4303  20.4956  20.5642  20.6057  20.6343  20.7272
    20.7969  20.8212  20.8834  20.9363  20.9950  21.0296  21.0489  21.1238
    21.1469  21.2121  21.2408  21.2419  21.3526  21.3656  21.4078  21.4414
    21.4550  21.4820  21.4917  21.4984  21.5528  21.5955  21.6118  21.6241
    21.7055  21.7419  21.7702  21.8049  21.8688  21.8950  21.9937  22.0537
    22.0823  22.1298  22.1351  22.1687  22.1839  22.2244  22.2330  22.2837
    22.3006  22.3187  22.3450  22.3885  22.4708  22.4950  22.5349  22.5406
    22.5506  22.6305  22.6460  22.7075  22.7621  22.7811  22.8035  22.8319
    22.9146  22.9460  22.9782  22.9992  23.0185  23.0963  23.1284  23.1702
    23.2105  23.2146  23.2395  23.2962  23.3100  23.3614  23.4273  23.4581
    23.4654  23.4736  23.5212  23.5713

          k = 0.0000 0.0000 0.0235 ( 40427 PWs)   bands (ev):

   -25.5703 -25.5692 -23.3924 -23.3924 -20.4917 -20.3996 -20.1726 -19.8281
   -19.3790 -18.8323 -18.1787 -17.4531 -16.6795 -16.0269 -15.9386 -15.8943
   -15.6977 -15.5050 -15.1655 -15.1130 -14.6685 -14.5988 -14.0246 -13.8920
   -13.5085 -13.4042 -13.3781 -13.2029 -13.0519 -13.0322 -12.7314 -12.4011
   -12.0284 -11.6956 -11.6129 -11.3450 -10.9742 -10.9242 -10.6807 -10.3038
   -10.1869 -10.0547  -9.6213  -9.4444  -9.3057  -9.0156  -8.8448  -8.7856
    -8.6993  -8.5101  -8.4341  -8.2608  -8.2002  -8.0650  -7.8721  -7.8260
    -7.7094  -7.5968  -7.3993  -7.2253  -7.0440  -6.8680  -6.6918  -6.3758
    -6.2199  -6.0731  -5.8976  -5.5646  -5.5247  -5.3862  -5.2179  -4.9511
    -4.7857  -4.6488  -4.4447  -4.4284  -3.8418  -3.6825  -3.5348  -3.2557
    -3.0140  -2.8601  -2.3874  -2.2598  -1.9061  -1.7664  -0.1922  -0.1219
     0.2123   0.3280   0.5159   0.7694   0.9581   1.0716   1.1222   1.2167
     1.4690   2.0343   2.0419   2.2198   2.3334   2.7627   2.8283   2.9708
     3.0196   3.0242   3.2972   3.4107   3.6695   3.7271   3.8911   3.9026
     3.9626   4.0652   4.3996   4.5238   4.5734   4.6723   4.7552   4.8596
     5.0302   5.2200   5.2875   5.3762   5.4079   5.4873   5.7376   6.0300
     6.0579   6.2879   6.4148   6.4898   6.5694   6.6182   6.6438   6.7144
     6.7753   6.8129   6.9410   6.9639   7.2519   7.3248   7.3658   7.3958
     7.4701   7.5026   7.5484   7.5655   7.6421   7.7020   7.7168   7.9232
     7.9823   8.0750   8.1287   8.1723   8.3128   8.3559   8.3707   8.4394
     8.4427   8.5349   8.6134   8.6812   8.7346   8.8134   8.8626   8.8806
     9.0043   9.0530   9.0908   9.1671   9.2629   9.3336   9.3907   9.4000
     9.4923   9.5482   9.5697   9.6016   9.6220   9.6446   9.6992   9.7201
     9.7694   9.8080   9.8788   9.9307   9.9599   9.9906  10.0001  10.0181
    10.0529  10.0703  10.1461  10.1776  10.2110  10.2494  10.2589  10.4088
    10.4765  10.5205  10.5738  10.6198  10.6339  10.6825  10.7383  10.8115
    10.8850  10.9964  11.0556  11.0771  11.1096  11.2173  11.2631  11.3178
    11.3698  11.3767  11.4362  11.4918  11.5020  11.5170  11.5930  11.6280
    11.6547  11.6667  11.6744  11.7236  11.7747  11.7978  11.8231  11.8639
    11.8666  11.9041  11.9927  12.0305  12.0523  12.0732  12.1346  12.1732
    12.2503  12.2785  12.2866  12.3036  12.3124  12.3519  12.4009  12.4047
    12.4161  12.4644  12.4804  12.5168  12.5317  12.5661  12.5806  12.6182
    12.7046  12.7910  12.7971  12.8544  12.8771  13.0247  13.0917  13.1158
    13.1807  13.2395  13.3524  13.3623  13.4364  13.4884  13.5336  13.5811
    13.6318  13.6882  13.7839  13.8448  13.9173  13.9778  14.0952  14.1028
    14.1373  14.2155  14.2283  14.2558  14.3024  14.3153  14.3632  14.3791
    14.4046  14.4386  14.4912  14.5917  14.6130  14.6684  14.7298  14.7767
    14.8093  14.8261  14.8787  14.8935  14.9480  14.9921  15.0870  15.1430
    15.1744  15.1980  15.2475  15.3165  15.4248  15.4506  15.4655  15.5105
    15.5943  15.6258  15.6568  15.7158  15.8034  15.8201  15.8433  15.9036
    15.9583  16.0329  16.1436  16.1879  16.2042  16.2984  16.3274  16.3989
    16.4871  16.5867  16.6070  16.6729  16.6974  16.7213  16.7604  16.7719
    16.7869  16.8879  16.9469  16.9845  17.0146  17.0893  17.1030  17.1145
    17.1298  17.1564  17.2185  17.2461  17.2519  17.3075  17.3345  17.3681
    17.3792  17.4101  17.4595  17.4790  17.5660  17.5737  17.6069  17.6354
    17.6821  17.7376  17.7514  17.8458  17.8655  17.9471  18.0172  18.0595
    18.1314  18.1617  18.1907  18.2218  18.3102  18.3490  18.3618  18.3957
    18.4568  18.4736  18.4756  18.4952  18.5450  18.5710  18.6346  18.6596
    18.6767  18.7536  18.7746  18.7789  18.8300  18.8653  18.8962  18.9166
    19.0532  19.0610  19.2168  19.2295  19.2776  19.3443  19.3848  19.4261
    19.5083  19.5703  19.7060  19.7795  19.8412  19.9133  19.9665  20.0013
    20.0340  20.0518  20.1012  20.1364  20.1532  20.2869  20.2951  20.3318
    20.3596  20.4194  20.4663  20.5200  20.5603  20.6584  20.7060  20.7276
    20.8172  20.8376  20.8722  20.9892  21.0111  21.0851  21.1037  21.1501
    21.1678  21.2280  21.2346  21.2582  21.3386  21.3751  21.4092  21.4218
    21.4369  21.4824  21.4990  21.5272  21.5373  21.5786  21.5913  21.6581
    21.7194  21.7933  21.8113  21.8382  21.9208  21.9617  21.9791  21.9971
    22.0146  22.0348  22.0753  22.1047  22.1970  22.2449  22.2762  22.3039
    22.3217  22.3484  22.3826  22.4376  22.4752  22.4989  22.5737  22.5885
    22.6344  22.6685  22.7205  22.7552  22.7797  22.7934  22.8125  22.8180
    22.8855  22.9324  22.9634  22.9856  23.0325  23.0601  23.1302  23.1863
    23.2156  23.2288  23.2459  23.2969  23.3207  23.3455  23.3859  23.4150
    23.5066  23.5099  23.5872  23.6456

          k = 0.0000 0.0000 0.0282 ( 40470 PWs)   bands (ev):

   -25.5546 -25.5534 -23.4199 -23.4198 -20.4658 -20.3738 -20.1469 -19.8026
   -19.3537 -18.8073 -18.1540 -17.4291 -16.6590 -16.1754 -16.1095 -15.9811
   -15.7993 -15.6541 -15.2631 -15.1868 -14.7596 -14.6716 -13.9624 -13.8526
   -13.4077 -13.2913 -13.2017 -13.1664 -12.9308 -12.8906 -12.7482 -12.3947
   -12.0730 -11.6574 -11.5280 -11.3861 -10.9460 -10.8464 -10.6351 -10.2704
   -10.2078  -9.9844  -9.6249  -9.4400  -9.2678  -9.0189  -8.8212  -8.7537
    -8.6899  -8.4776  -8.4086  -8.2461  -8.1707  -8.0595  -7.9046  -7.7977
    -7.6834  -7.5608  -7.3746  -7.2240  -7.0733  -6.8405  -6.6686  -6.3771
    -6.2301  -6.0798  -5.9006  -5.5688  -5.5385  -5.4009  -5.2482  -4.9871
    -4.8586  -4.6302  -4.5232  -4.4860  -3.8300  -3.8179  -3.6714  -3.3956
    -3.0225  -3.0021  -2.5412  -2.3086  -2.0603  -1.8870  -0.0884   0.0329
     0.3424   0.3705   0.6787   0.9381   1.0964   1.1309   1.2469   1.2547
     1.5057   1.9959   2.0745   2.2549   2.3690   2.7961   2.8589   2.9578
     3.0232   3.0593   3.3284   3.4430   3.7047   3.7362   3.9239   3.9355
     3.9970   4.0551   4.4156   4.5566   4.6055   4.6753   4.7888   4.8734
     5.0621   5.2341   5.3163   5.3964   5.4361   5.5199   5.7211   6.0238
     6.0855   6.2748   6.4335   6.4708   6.5875   6.5983   6.6364   6.6866
     6.7734   6.7973   6.9300   6.9714   7.2576   7.3276   7.3392   7.3856
     7.4668   7.4993   7.5369   7.5858   7.6217   7.6885   7.7183   7.7995
     7.9482   8.0247   8.1482   8.1958   8.2276   8.2509   8.2812   8.3525
     8.3779   8.4204   8.4806   8.5339   8.6393   8.6842   8.6966   8.8703
     8.9148   8.9675   9.0123   9.1114   9.1382   9.2193   9.2473   9.3401
     9.3880   9.3951   9.5134   9.5441   9.5986   9.6025   9.6399   9.7085
     9.7189   9.7563   9.7961   9.8031   9.8603   9.8616   9.8756   9.9073
     9.9827   9.9981  10.0531  10.0891  10.1333  10.2104  10.2261  10.3296
    10.3520  10.4227  10.5400  10.5929  10.6253  10.6519  10.7070  10.7673
    10.8353  10.8638  10.9208  10.9815  11.0456  11.0884  11.1754  11.1982
    11.3085  11.3669  11.4129  11.4767  11.5011  11.5380  11.5588  11.6227
    11.6829  11.7256  11.7677  11.7976  11.8284  11.8428  11.9159  11.9334
    11.9783  11.9806  12.0198  12.0640  12.0891  12.1651  12.2083  12.2327
    12.2601  12.2938  12.3111  12.3417  12.3526  12.3904  12.4031  12.4219
    12.4278  12.5003  12.5132  12.5437  12.5581  12.5967  12.6137  12.6674
    12.6916  12.7775  12.8375  12.8935  12.9824  13.0882  13.1292  13.1983
    13.2289  13.2697  13.3611  13.3979  13.4517  13.5026  13.5345  13.6298
    13.6785  13.7332  13.7886  13.8358  13.8875  13.9667  14.0729  14.1287
    14.2407  14.2826  14.2990  14.3254  14.3670  14.4093  14.4385  14.4776
    14.4834  14.5311  14.5658  14.6048  14.6525  14.7019  14.7490  14.7686
    14.8272  14.8731  14.8956  14.9159  14.9266  14.9974  15.1019  15.1507
    15.1743  15.2102  15.2699  15.3991  15.4380  15.4788  15.5253  15.5975
    15.6372  15.6489  15.7312  15.7526  15.8063  15.8759  15.9088  15.9580
    15.9721  16.0472  16.1617  16.2042  16.2417  16.3164  16.3354  16.4290
    16.5673  16.5763  16.6069  16.6491  16.6697  16.7447  16.7826  16.8572
    16.8602  16.8853  16.9243  16.9732  17.0318  17.0533  17.0913  17.1008
    17.1453  17.1782  17.1997  17.2456  17.2525  17.2912  17.3007  17.3274
    17.3698  17.4446  17.4860  17.5067  17.5270  17.6090  17.6227  17.7022
    17.7211  17.7678  17.8281  17.8370  17.8608  17.9713  18.0121  18.0906
    18.1581  18.2210  18.2568  18.2813  18.2841  18.3138  18.4096  18.4611
    18.4944  18.4976  18.5069  18.5236  18.5399  18.5885  18.6284  18.6905
    18.7046  18.7141  18.7937  18.7991  18.8092  18.8737  18.9224  18.9621
    19.1528  19.1634  19.2513  19.2688  19.3254  19.4583  19.5040  19.5219
    19.5556  19.6073  19.6821  19.8031  19.8209  19.9007  19.9641  20.0516
    20.1228  20.1386  20.2050  20.2301  20.2718  20.3235  20.3649  20.3885
    20.4450  20.4722  20.5046  20.5644  20.6035  20.6476  20.7661  20.7987
    20.8397  20.8852  20.9514  20.9768  21.0273  21.1021  21.1824  21.1991
    21.2314  21.2438  21.2925  21.3441  21.3508  21.3661  21.4014  21.4227
    21.4477  21.4586  21.4984  21.5208  21.5435  21.5819  21.6274  21.6704
    21.6907  21.7763  21.8096  21.8281  21.8549  21.8886  21.9251  21.9894
    22.0002  22.0877  22.1061  22.1444  22.2589  22.2813  22.3072  22.3235
    22.3626  22.3911  22.4199  22.4631  22.5252  22.5573  22.6097  22.6263
    22.6413  22.6576  22.7458  22.7683  22.7922  22.8009  22.8290  22.8599
    22.9034  22.9441  22.9883  23.0204  23.0842  23.1089  23.1347  23.1444
    23.2039  23.2322  23.2805  23.3093  23.3412  23.3564  23.3902  23.4408
    23.5474  23.5709  23.6452  23.6955

          k = 0.0000 0.0000 0.0329 ( 40458 PWs)   bands (ev):

   -25.5362 -25.5350 -23.4516 -23.4516 -20.4351 -20.3432 -20.1165 -19.7724
   -19.3238 -18.7777 -18.1249 -17.4010 -16.6375 -16.3479 -16.2801 -16.1197
   -15.8297 -15.8113 -15.4078 -15.2235 -14.8643 -14.7364 -13.9245 -13.7979
   -13.4361 -13.2083 -13.0321 -12.9911 -12.8893 -12.7303 -12.6661 -12.3875
   -12.1044 -11.6358 -11.4374 -11.4065 -10.9606 -10.7352 -10.5863 -10.2598
   -10.1811  -9.9213  -9.6360  -9.4196  -9.2326  -9.0220  -8.7958  -8.7111
    -8.6762  -8.4388  -8.3725  -8.2364  -8.1383  -8.0767  -7.8994  -7.7646
    -7.6513  -7.5209  -7.3631  -7.2505  -7.0615  -6.8170  -6.6449  -6.3934
    -6.2502  -6.0657  -5.9078  -5.5853  -5.5643  -5.4147  -5.2671  -5.0364
    -4.9404  -4.6271  -4.6061  -4.5424  -3.9671  -3.8318  -3.8031  -3.5468
    -3.1630  -3.0246  -2.7001  -2.3782  -2.2009  -2.0123   0.0177   0.1854
     0.3621   0.5364   0.8544   1.0651   1.1252   1.2954   1.3255   1.4413
     1.5497   1.9480   2.1165   2.2963   2.4111   2.8357   2.8739   2.9328
     3.0584   3.1009   3.3650   3.4819   3.7352   3.7465   3.9615   3.9738
     4.0376   4.0518   4.4395   4.5924   4.6423   4.6719   4.8287   4.8957
     5.0993   5.2544   5.3461   5.4188   5.4703   5.5577   5.7079   6.0140
     6.1158   6.2481   6.4282   6.4538   6.5233   6.5896   6.6614   6.6937
     6.7660   6.8012   6.9255   6.9818   7.2611   7.3013   7.3273   7.3678
     7.4126   7.4786   7.5052   7.5870   7.6693   7.6871   7.7206   7.7311
     7.8825   7.9406   8.0057   8.0707   8.0987   8.2161   8.2219   8.2834
     8.3390   8.3496   8.4107   8.4142   8.5006   8.5717   8.6104   8.7743
     8.8385   8.8693   8.9665   8.9877   9.0254   9.0568   9.1414   9.2360
     9.2752   9.3345   9.4026   9.4441   9.4656   9.5561   9.5822   9.6351
     9.6600   9.6726   9.6846   9.7388   9.7614   9.7922   9.8069   9.8201
     9.8553   9.9573   9.9951  10.0636  10.0950  10.1562  10.2019  10.2271
    10.3036  10.3552  10.4815  10.5131  10.5423  10.6306  10.6384  10.6756
    10.6840  10.8095  10.8802  10.9216  10.9976  11.0172  11.0320  11.0851
    11.1830  11.2770  11.3965  11.4312  11.4595  11.5078  11.5295  11.6407
    11.7097  11.7345  11.7610  11.8264  11.8620  11.8965  11.9402  12.0074
    12.0189  12.0763  12.1057  12.1563  12.1729  12.2237  12.2338  12.2857
    12.3042  12.3059  12.3216  12.3805  12.4089  12.4269  12.4619  12.4727
    12.4791  12.5003  12.5225  12.5351  12.6026  12.6567  12.6980  12.7331
    12.7565  12.8346  12.9143  12.9280  12.9483  13.1187  13.1427  13.1897
    13.2122  13.2640  13.3141  13.4517  13.4879  13.5143  13.6098  13.6555
    13.7034  13.8300  13.8600  13.8909  13.9476  13.9813  13.9860  14.1657
    14.2344  14.3011  14.3330  14.3830  14.4183  14.4370  14.4813  14.5358
    14.6001  14.6519  14.6689  14.6981  14.7533  14.7655  14.7822  14.8074
    14.8240  14.8440  14.8714  14.9137  14.9926  15.0497  15.1822  15.2387
    15.2445  15.3178  15.3649  15.4249  15.4821  15.5130  15.5471  15.5790
    15.6257  15.6731  15.7031  15.8667  15.8748  15.9080  16.0231  16.0646
    16.0893  16.1316  16.1873  16.2571  16.2794  16.3178  16.3451  16.4830
    16.5240  16.5575  16.5723  16.5950  16.6313  16.7304  16.7783  16.7960
    16.8181  16.8989  16.9276  16.9378  17.0278  17.0406  17.0484  17.1122
    17.1356  17.1546  17.2073  17.2418  17.2813  17.3270  17.3855  17.3935
    17.4373  17.4487  17.4758  17.5703  17.5789  17.6142  17.7101  17.7178
    17.7459  17.8085  17.8474  17.8671  17.9636  18.0000  18.0455  18.1150
    18.1327  18.2238  18.2547  18.2859  18.3065  18.4092  18.4176  18.4472
    18.5113  18.5190  18.5321  18.5521  18.5697  18.5815  18.6155  18.6825
    18.7027  18.7603  18.8183  18.8763  18.9356  18.9444  19.0221  19.1449
    19.2010  19.2652  19.2802  19.3125  19.4174  19.4736  19.5839  19.6066
    19.6429  19.6904  19.7717  19.8214  19.8687  19.9110  19.9898  20.0108
    20.1527  20.1736  20.2017  20.2815  20.3360  20.3484  20.4051  20.4249
    20.5011  20.5607  20.5699  20.5958  20.6323  20.7172  20.7980  20.8346
    20.9012  20.9085  20.9540  21.0491  21.1089  21.1250  21.1386  21.2581
    21.2935  21.3076  21.3362  21.3424  21.3855  21.4252  21.4746  21.4895
    21.5105  21.5231  21.5283  21.5501  21.5592  21.5710  21.6023  21.6212
    21.6419  21.7040  21.7366  21.8408  21.8573  21.9488  21.9832  22.0245
    22.0448  22.1116  22.1362  22.1874  22.2630  22.2834  22.3175  22.3367
    22.3762  22.4188  22.4536  22.5159  22.5711  22.5954  22.6372  22.6398
    22.7102  22.7171  22.7751  22.7870  22.7992  22.8077  22.8625  22.8900
    22.9416  22.9462  22.9602  23.0527  23.0800  23.1009  23.1539  23.2099
    23.2494  23.2974  23.3091  23.3537  23.3720  23.4149  23.4639  23.4960
    23.5999  23.6243  23.6542  23.7489

          k = 0.0000 0.0000 0.0376 ( 40470 PWs)   bands (ev):

   -25.5151 -25.5140 -23.4874 -23.4873 -20.3997 -20.3080 -20.0815 -19.7376
   -19.2893 -18.7436 -18.0913 -17.3688 -16.6240 -16.5241 -16.4404 -16.2817
   -15.9756 -15.8365 -15.5446 -15.2855 -14.9466 -14.8143 -13.8999 -13.7345
   -13.5037 -13.1593 -12.9546 -12.8085 -12.7859 -12.5442 -12.5225 -12.3837
   -12.1102 -11.6506 -11.3739 -11.3486 -11.0024 -10.6285 -10.5098 -10.2976
   -10.0971  -9.8640  -9.6550  -9.3757  -9.2165  -9.0115  -8.7694  -8.6701
    -8.6418  -8.3991  -8.3337  -8.2402  -8.1099  -8.0770  -7.8696  -7.7276
    -7.6138  -7.4777  -7.3993  -7.2505  -7.0275  -6.8032  -6.6237  -6.4189
    -6.2731  -6.0390  -5.9206  -5.6348  -5.5830  -5.4297  -5.2720  -5.1010
    -5.0283  -4.7382  -4.6166  -4.5737  -4.1247  -3.9807  -3.7961  -3.7056
    -3.3247  -3.0403  -2.8562  -2.4847  -2.3105  -2.1403   0.1248   0.3218
     0.4003   0.7073   1.0338   1.0402   1.3211   1.3492   1.5286   1.6004
     1.6522   1.8944   2.1652   2.3439   2.4598   2.8294   2.8818   2.9628
     3.1028   3.1487   3.4069   3.5272   3.7184   3.7943   4.0026   4.0172
     4.0644   4.0844   4.4712   4.6144   4.6698   4.6910   4.8748   4.9281
     5.1409   5.2816   5.3693   5.4461   5.5098   5.6002   5.7027   5.9996
     6.1436   6.1927   6.3723   6.4401   6.4718   6.5825   6.6964   6.7177
     6.7476   6.8343   6.9289   6.9909   7.2490   7.2615   7.2911   7.3403
     7.3836   7.4109   7.4873   7.5096   7.6690   7.6997   7.7311   7.7560
     7.7748   7.7827   7.8656   7.9150   8.0177   8.0611   8.2136   8.2543
     8.2683   8.2966   8.3075   8.3682   8.4024   8.4762   8.5686   8.6469
     8.7408   8.7614   8.8069   8.8297   8.9474   9.0314   9.0547   9.1146
     9.1657   9.2218   9.2670   9.3051   9.3242   9.4132   9.4340   9.5038
     9.6219   9.6282   9.6417   9.6728   9.6982   9.7126   9.7188   9.8097
     9.8420   9.8730   9.9516  10.0377  10.0620  10.0952  10.1826  10.2021
    10.2383  10.3125  10.3309  10.3601  10.4543  10.4868  10.5438  10.6809
    10.7009  10.7728  10.7822  10.8328  10.8715  10.9315  10.9783  11.0348
    11.1087  11.1715  11.3285  11.4124  11.4605  11.4981  11.5044  11.6524
    11.6749  11.6869  11.7480  11.7954  11.8665  11.9201  11.9617  11.9829
    12.0386  12.0653  12.0959  12.1490  12.1986  12.2327  12.2592  12.2729
    12.3484  12.3717  12.4208  12.4395  12.4701  12.4804  12.5051  12.5244
    12.5708  12.6019  12.6294  12.6501  12.6704  12.7376  12.7457  12.7708
    12.8505  12.8718  12.9443  12.9617  12.9917  13.0820  13.0863  13.1258
    13.2174  13.2862  13.3444  13.4466  13.4765  13.4947  13.5669  13.6495
    13.7659  13.8865  13.9314  13.9654  14.0075  14.0890  14.1546  14.1814
    14.2228  14.2415  14.3246  14.4037  14.4214  14.4476  14.5080  14.5687
    14.6009  14.6740  14.7375  14.7520  14.8119  14.8652  14.8744  14.9168
    14.9364  14.9943  15.0199  15.0492  15.0717  15.0934  15.1967  15.2692
    15.3740  15.4189  15.4547  15.4978  15.5256  15.5291  15.5634  15.6195
    15.6460  15.6584  15.7004  15.9223  15.9285  15.9546  16.0490  16.1083
    16.1897  16.2202  16.2675  16.2845  16.3630  16.3912  16.4184  16.4333
    16.5124  16.5442  16.5772  16.5850  16.6215  16.6339  16.7148  16.7383
    16.7706  16.8524  16.9460  16.9619  16.9830  17.0087  17.0480  17.1182
    17.1371  17.1927  17.2326  17.2575  17.3185  17.3523  17.4085  17.4278
    17.4426  17.5086  17.5776  17.6020  17.6601  17.6842  17.7361  17.7651
    17.7905  17.8153  17.9196  17.9331  17.9815  18.0135  18.0763  18.1003
    18.1558  18.1676  18.2619  18.2786  18.3891  18.4248  18.4416  18.4939
    18.5142  18.5369  18.5511  18.6064  18.6322  18.6774  18.6925  18.7384
    18.7685  18.8407  18.9097  18.9296  19.0216  19.0655  19.1142  19.1310
    19.2101  19.3408  19.3782  19.4207  19.4581  19.5729  19.6235  19.6805
    19.7115  19.7813  19.8817  19.9112  19.9419  19.9980  20.0463  20.0627
    20.0917  20.1410  20.1948  20.2725  20.3676  20.4087  20.4193  20.4374
    20.5164  20.5823  20.6292  20.6802  20.6954  20.7223  20.7863  20.8477
    20.9285  20.9404  21.0449  21.0836  21.1244  21.1543  21.1884  21.2321
    21.2674  21.3009  21.3215  21.3538  21.3860  21.4088  21.4463  21.4688
    21.5485  21.5777  21.6010  21.6214  21.6530  21.6627  21.7225  21.7463
    21.7789  21.7881  21.8071  21.9130  21.9340  21.9634  22.0483  22.0600
    22.0672  22.0913  22.1997  22.2241  22.2348  22.2620  22.2814  22.3118
    22.3642  22.4171  22.5150  22.5551  22.6004  22.6197  22.6527  22.7082
    22.7371  22.7679  22.8165  22.8330  22.8650  22.8762  22.8900  22.9097
    22.9209  22.9663  23.0048  23.0390  23.0834  23.1072  23.1983  23.2502
    23.2615  23.2840  23.3648  23.4164  23.4541  23.5080  23.5220  23.5696
    23.5831  23.6598  23.7200  23.7356

          k = 0.0000 0.0000 0.0423 ( 40500 PWs)   bands (ev):

   -25.4916 -25.4904 -23.5267 -23.5267 -20.3596 -20.2682 -20.0418 -19.6983
   -19.2503 -18.7050 -18.0535 -17.3329 -16.7026 -16.6775 -16.5297 -16.4472
   -16.1358 -15.8731 -15.6448 -15.3813 -14.9979 -14.9057 -13.8777 -13.6786
   -13.5732 -13.1173 -13.0186 -12.6080 -12.5822 -12.4131 -12.3765 -12.3247
   -12.0749 -11.6859 -11.2977 -11.2718 -11.0541 -10.5492 -10.4280 -10.2990
   -10.0210  -9.8168  -9.6568  -9.3302  -9.2139  -8.9764  -8.7426  -8.6373
    -8.5856  -8.3701  -8.3116  -8.2262  -8.0850  -8.0436  -7.8306  -7.6867
    -7.5719  -7.4725  -7.4300  -7.2192  -6.9873  -6.8083  -6.6059  -6.4403
    -6.2994  -6.0080  -5.9384  -5.7038  -5.6021  -5.4538  -5.2643  -5.1819
    -5.1184  -4.8595  -4.6875  -4.5476  -4.2889  -4.1439  -3.8712  -3.7783
    -3.4897  -3.0966  -2.9752  -2.6243  -2.3915  -2.2696   0.2321   0.3833
     0.5153   0.8795   1.0031   1.2299   1.4080   1.5263   1.6602   1.7447
     1.8375   1.8757   2.2202   2.3977   2.5150   2.7640   2.9333   3.0132
     3.1538   3.2025   3.4538   3.5785   3.6830   3.8487   4.0464   4.0642
     4.0978   4.1373   4.5095   4.5950   4.7102   4.7387   4.9269   4.9704
     5.1855   5.3156   5.3773   5.4832   5.5536   5.6464   5.7095   5.9782
     6.0949   6.1595   6.3090   6.3831   6.4803   6.5832   6.7053   6.7423
     6.7723   6.8761   6.9388   6.9936   7.1852   7.2025   7.2485   7.3035
     7.3239   7.3773   7.4016   7.4913   7.5029   7.5910   7.6536   7.6820
     7.7473   7.8037   7.8209   7.8967   7.9031   7.9645   8.0348   8.1441
     8.2016   8.2639   8.3011   8.3243   8.3615   8.3749   8.4806   8.5760
     8.5896   8.6379   8.7207   8.7388   8.8357   8.9103   8.9828   9.0013
     9.0442   9.0996   9.1252   9.1435   9.2232   9.2396   9.3643   9.4048
     9.4556   9.5207   9.5599   9.5859   9.6299   9.7087   9.7463   9.7707
     9.8436   9.8582   9.8958   9.9576   9.9873  10.0573  10.1028  10.1289
    10.1771  10.2195  10.2572  10.2818  10.3959  10.4439  10.4588  10.5550
    10.6749  10.6891  10.7170  10.7536  10.8251  10.8718  10.8987  10.9630
    11.1045  11.1945  11.2559  11.3372  11.4439  11.4749  11.5284  11.5776
    11.6193  11.6624  11.6954  11.7668  11.8804  11.8910  11.9259  11.9627
    11.9713  12.0569  12.0645  12.1147  12.1865  12.2082  12.2827  12.3286
    12.4067  12.4373  12.4567  12.4658  12.4970  12.5196  12.5417  12.5754
    12.6197  12.6564  12.6883  12.7351  12.7473  12.8062  12.8305  12.8385
    12.9024  12.9538  12.9721  13.0123  13.0282  13.0696  13.1249  13.1541
    13.2275  13.3156  13.3682  13.4097  13.4566  13.5095  13.5826  13.6246
    13.7715  13.8808  13.8997  14.0140  14.0379  14.0630  14.1354  14.2070
    14.2581  14.3630  14.4066  14.4440  14.4531  14.4793  14.5480  14.6528
    14.6967  14.7430  14.8068  14.8276  14.8770  14.9221  14.9501  15.0560
    15.0710  15.0835  15.1059  15.1785  15.2249  15.2419  15.2581  15.3105
    15.3301  15.3747  15.4783  15.5089  15.5774  15.6380  15.6907  15.6983
    15.7379  15.7436  15.8089  15.9417  15.9720  15.9942  16.0187  16.1143
    16.1922  16.2132  16.2522  16.3043  16.3730  16.3940  16.4366  16.4999
    16.5103  16.5216  16.5589  16.5756  16.6389  16.6803  16.7096  16.7538
    16.8631  16.8979  16.9507  16.9681  17.0166  17.0191  17.0605  17.1407
    17.1538  17.1881  17.2606  17.3139  17.3370  17.3888  17.3992  17.4460
    17.4550  17.5078  17.5305  17.6101  17.7298  17.7363  17.7475  17.8056
    17.8491  17.8877  17.9194  17.9789  18.0262  18.0290  18.1454  18.1725
    18.2324  18.2553  18.2682  18.2889  18.3962  18.4399  18.5286  18.5411
    18.5622  18.5760  18.6078  18.6652  18.6995  18.7259  18.7345  18.8443
    18.8840  18.9061  18.9808  19.0239  19.0693  19.1457  19.1772  19.2127
    19.3077  19.3694  19.4281  19.4729  19.5246  19.6975  19.7133  19.7646
    19.7976  19.8048  19.9015  19.9451  20.0031  20.0469  20.0674  20.1095
    20.1377  20.2046  20.2568  20.3480  20.3664  20.3950  20.4661  20.5065
    20.5222  20.5892  20.6495  20.7145  20.7497  20.7993  20.8355  20.8945
    20.9351  20.9666  21.0223  21.0543  21.0824  21.1183  21.1546  21.1787
    21.2063  21.2368  21.2870  21.3530  21.4109  21.4402  21.5066  21.5449
    21.5954  21.6648  21.6827  21.7071  21.7845  21.7939  21.8405  21.8816
    21.9038  21.9455  21.9801  22.0113  22.0319  22.0469  22.0681  22.0967
    22.1268  22.1453  22.1920  22.2300  22.2546  22.2956  22.3054  22.3212
    22.3452  22.4764  22.5548  22.5725  22.5956  22.6689  22.6782  22.6861
    22.7006  22.7410  22.8024  22.8650  22.8937  22.9044  22.9296  23.0073
    23.0137  23.0334  23.0622  23.0754  23.0858  23.1008  23.2119  23.2456
    23.2762  23.3741  23.4040  23.4435  23.4583  23.4688  23.5365  23.5969
    23.6146  23.7456  23.7590  23.7918

          k = 0.0000 0.0000 0.0469 ( 40508 PWs)   bands (ev):

   -25.4656 -25.4644 -23.5693 -23.5693 -20.3148 -20.2237 -19.9976 -19.6543
   -19.2067 -18.6619 -18.0113 -17.2940 -16.8755 -16.8277 -16.6185 -16.5232
   -16.2868 -15.9723 -15.6775 -15.5014 -15.0288 -15.0076 -13.8582 -13.6800
   -13.5854 -13.1212 -13.0485 -12.4862 -12.4325 -12.3377 -12.2234 -12.1276
   -11.9868 -11.7186 -11.2353 -11.1970 -11.0780 -10.5527 -10.3472 -10.2133
    -9.9760  -9.7730  -9.6254  -9.3132  -9.1843  -8.9281  -8.7138  -8.6026
    -8.5316  -8.3696  -8.2806  -8.1734  -8.0521  -7.9997  -7.7903  -7.6436
    -7.5527  -7.5213  -7.3825  -7.1779  -6.9468  -6.8395  -6.5921  -6.4456
    -6.3323  -5.9980  -5.9422  -5.7810  -5.6276  -5.4898  -5.2910  -5.2510
    -5.1944  -4.9849  -4.7689  -4.5155  -4.4572  -4.3111  -4.0382  -3.7658
    -3.6515  -3.2337  -3.0164  -2.7767  -2.4630  -2.3985   0.3390   0.4148
     0.6623   0.9599   1.0645   1.4136   1.4835   1.7047   1.7589   1.7750
     1.9751   2.1102   2.2818   2.4569   2.5764   2.6917   2.9899   3.0719
     3.2108   3.2618   3.5045   3.6267   3.6430   3.9094   4.0951   4.1126
     4.1484   4.1961   4.5480   4.5627   4.7660   4.7931   4.9850   5.0214
     5.2279   5.3541   5.3737   5.5279   5.6000   5.6941   5.7274   5.9264
     6.0041   6.1073   6.2825   6.3552   6.4732   6.5995   6.6913   6.7688
     6.8246   6.9171   6.9434   6.9863   7.0720   7.1221   7.1851   7.2050
     7.2823   7.3001   7.3209   7.3877   7.4365   7.4689   7.5442   7.6115
     7.7010   7.7644   7.8007   7.8487   7.8561   7.9019   8.0166   8.0361
     8.0892   8.1420   8.2243   8.2551   8.2955   8.3775   8.3847   8.4581
     8.5255   8.6185   8.6653   8.6809   8.6917   8.7680   8.8018   8.8325
     8.8595   8.9713   9.0543   9.0905   9.1442   9.1771   9.2207   9.2850
     9.3193   9.3790   9.4461   9.5130   9.6045   9.6622   9.7179   9.7590
     9.7856   9.8143   9.8643   9.8744   9.8881   9.9433  10.0326  10.0507
    10.1304  10.1793  10.2619  10.2921  10.3023  10.3539  10.3834  10.4201
    10.5772  10.6252  10.6770  10.7410  10.7745  10.8000  10.9091  11.0049
    11.0493  11.1757  11.2459  11.2669  11.3720  11.4206  11.4540  11.5556
    11.5866  11.6333  11.6649  11.6798  11.7921  11.8303  11.9222  11.9281
    11.9478  12.0744  12.1097  12.1485  12.1813  12.1998  12.2186  12.3170
    12.4150  12.4341  12.4770  12.5087  12.5275  12.5410  12.5456  12.5586
    12.6448  12.6579  12.7142  12.7423  12.7565  12.7862  12.8043  12.9232
    13.0077  13.0090  13.0217  13.1005  13.1428  13.1698  13.1827  13.2134
    13.2418  13.3384  13.4386  13.4752  13.4869  13.5207  13.6061  13.6281
    13.7296  13.7895  13.8766  13.9301  13.9688  14.0518  14.1036  14.2513
    14.2902  14.4082  14.4753  14.5225  14.5852  14.6091  14.6754  14.7323
    14.8087  14.8403  14.9245  14.9368  14.9500  15.0158  15.0610  15.0795
    15.1078  15.1214  15.1705  15.2068  15.2357  15.3072  15.3450  15.3757
    15.4064  15.4641  15.5499  15.5589  15.6387  15.7450  15.7571  15.7744
    15.8536  15.9101  15.9371  15.9540  15.9836  16.0235  16.0602  16.1040
    16.1373  16.1729  16.2409  16.2566  16.2911  16.3314  16.4458  16.4670
    16.4980  16.5312  16.5631  16.6040  16.6755  16.7885  16.8262  16.8557
    16.8962  16.9554  16.9997  17.0189  17.0707  17.0994  17.1395  17.1979
    17.2037  17.2314  17.2460  17.3235  17.3297  17.3880  17.4412  17.4541
    17.4898  17.5145  17.5567  17.6272  17.6501  17.7059  17.7587  17.8621
    17.9089  17.9478  17.9842  18.0558  18.0718  18.0967  18.1752  18.1956
    18.3109  18.3135  18.3526  18.4303  18.4933  18.5472  18.5784  18.5962
    18.6278  18.6314  18.6759  18.6978  18.7413  18.7548  18.7862  18.8725
    18.8999  18.9590  19.0892  19.1061  19.1894  19.2214  19.2633  19.3102
    19.3895  19.4625  19.5188  19.5737  19.6440  19.7160  19.7229  19.7846
    19.8269  19.8668  19.9113  19.9910  20.0374  20.0731  20.1135  20.1248
    20.1791  20.2701  20.2932  20.3240  20.4309  20.4505  20.4956  20.5710
    20.6032  20.7108  20.7678  20.7891  20.7941  20.8219  20.8628  20.8830
    20.9292  20.9762  20.9908  21.0236  21.0628  21.0911  21.1276  21.1704
    21.2165  21.2366  21.2639  21.2963  21.4409  21.4832  21.5182  21.6447
    21.7040  21.7330  21.7736  21.8040  21.8395  21.8608  21.8804  21.9524
    21.9791  22.0227  22.0635  22.0790  22.0933  22.1923  22.2045  22.2233
    22.2324  22.2433  22.2523  22.3112  22.3472  22.3713  22.3971  22.4081
    22.4570  22.5075  22.5418  22.5527  22.5792  22.5914  22.6359  22.6839
    22.7223  22.7513  22.8167  22.8830  22.9203  22.9332  22.9887  23.0328
    23.0466  23.0496  23.1097  23.1143  23.1679  23.2077  23.2365  23.2645
    23.3067  23.3467  23.3856  23.4040  23.4639  23.5313  23.5514  23.5983
    23.6921  23.7556  23.7888  23.7907

          k = 0.0000 0.0000 0.0516 ( 40548 PWs)   bands (ev):

   -25.4375 -25.4362 -23.6147 -23.6147 -20.2653 -20.1745 -19.9487 -19.6058
   -19.1587 -18.6145 -17.9651 -17.2547 -17.0450 -16.9912 -16.7814 -16.5487
   -16.3895 -16.1079 -15.6733 -15.6308 -15.1167 -15.0533 -13.8544 -13.7165
   -13.5522 -13.1780 -13.0250 -12.4653 -12.4210 -12.1066 -12.0471 -11.9242
   -11.8563 -11.7354 -11.2566 -11.0932 -11.0359 -10.6156 -10.2489 -10.1196
    -9.9382  -9.7024  -9.6047  -9.2895  -9.1300  -8.8911  -8.6734  -8.5687
    -8.4949  -8.3516  -8.2323  -8.1057  -8.0130  -7.9520  -7.7608  -7.6312
    -7.5801  -7.4727  -7.3333  -7.1336  -6.9183  -6.8845  -6.5851  -6.4354
    -6.3706  -6.0342  -5.9225  -5.8514  -5.6630  -5.5391  -5.3946  -5.3363
    -5.1876  -5.1071  -4.8572  -4.6284  -4.4825  -4.4775  -4.2065  -3.8415
    -3.7244  -3.3943  -3.0372  -2.9319  -2.5343  -2.5247   0.4447   0.4459
     0.8116   0.9290   1.2385   1.5175   1.6432   1.7139   1.7854   1.9708
     2.2097   2.3498   2.3536   2.5168   2.6195   2.6445   3.0500   3.1374
     3.2734   3.3249   3.5429   3.5931   3.6999   3.9765   4.1506   4.1582
     4.2101   4.2608   4.5159   4.6025   4.8295   4.8524   5.0488   5.0799
     5.2511   5.3739   5.3988   5.5702   5.6459   5.7147   5.7544   5.8347
     5.9561   6.0300   6.2762   6.3478   6.4578   6.6265   6.6664   6.7608
     6.8762   6.8967   6.9131   6.9578   6.9914   7.0324   7.0874   7.1525
     7.1630   7.2108   7.2502   7.3038   7.3560   7.4110   7.4775   7.5685
     7.5844   7.6624   7.7068   7.7935   7.8208   7.8955   7.9404   8.0028
     8.0241   8.0691   8.1084   8.1335   8.2141   8.2866   8.4049   8.4360
     8.4880   8.5188   8.5485   8.5877   8.6085   8.6472   8.6621   8.6991
     8.7599   8.8439   8.9377   8.9905   9.0335   9.0983   9.1754   9.1815
     9.2483   9.2560   9.2996   9.4735   9.4978   9.5400   9.5773   9.6435
     9.7128   9.7903   9.8305   9.8649   9.8704   9.9095   9.9354  10.0177
    10.0777  10.1235  10.1578  10.2024  10.2442  10.3068  10.3300  10.4382
    10.5026  10.5941  10.6249  10.6764  10.7548  10.8513  10.9495  10.9588
    11.0542  11.1215  11.1789  11.1910  11.3085  11.3407  11.4454  11.4700
    11.4923  11.5495  11.6629  11.6796  11.6946  11.7641  11.8983  11.9602
    11.9983  12.0800  12.1381  12.1467  12.1685  12.1735  12.1932  12.2692
    12.3440  12.3668  12.4225  12.4849  12.5244  12.5560  12.5623  12.6059
    12.6433  12.6963  12.7125  12.7402  12.7635  12.7824  12.8144  12.9548
    13.0071  13.0345  13.0784  13.1395  13.1708  13.2099  13.2117  13.3331
    13.3457  13.4507  13.4781  13.5111  13.5333  13.5497  13.5862  13.6667
    13.6931  13.7654  13.8547  13.8757  13.9653  14.0420  14.1416  14.3232
    14.3420  14.4340  14.5084  14.5742  14.6227  14.7339  14.7784  14.8450
    14.9120  14.9176  14.9628  14.9748  14.9965  15.0476  15.0861  15.1107
    15.1281  15.1699  15.2268  15.2322  15.3880  15.4176  15.4329  15.4854
    15.5609  15.5647  15.5859  15.6786  15.7085  15.8067  15.8283  15.8528
    15.8781  15.9490  15.9638  15.9719  16.0025  16.0354  16.0691  16.1000
    16.1289  16.1439  16.2574  16.2680  16.3160  16.4064  16.4227  16.4503
    16.5308  16.5654  16.5760  16.6575  16.7495  16.8324  16.8502  16.8637
    16.9604  16.9922  17.0427  17.0677  17.1066  17.1555  17.1949  17.2384
    17.2506  17.2798  17.3445  17.3829  17.3972  17.4176  17.4744  17.5071
    17.5342  17.5954  17.6135  17.6252  17.6670  17.7056  17.7984  17.9623
    17.9767  18.0243  18.0577  18.0819  18.0944  18.1228  18.1868  18.2497
    18.3988  18.4338  18.4628  18.5101  18.5408  18.5901  18.6045  18.6596
    18.6809  18.6982  18.7082  18.7327  18.7997  18.8380  18.8879  18.9579
    19.0355  19.0558  19.1296  19.1568  19.2082  19.3057  19.3626  19.4006
    19.4858  19.5553  19.5623  19.6472  19.6856  19.7629  19.7948  19.8079
    19.8620  19.9545  19.9997  20.0091  20.0269  20.0565  20.1485  20.1907
    20.2029  20.2342  20.3137  20.4029  20.4496  20.4880  20.6060  20.6513
    20.6571  20.6968  20.7196  20.7522  20.8326  20.8590  20.8858  20.9084
    20.9773  21.0276  21.0602  21.1099  21.1359  21.1518  21.2075  21.2179
    21.2406  21.2727  21.3341  21.3927  21.4529  21.4890  21.5357  21.7015
    21.7210  21.7441  21.7606  21.8227  21.8661  21.8854  21.8951  22.0512
    22.0575  22.0848  22.0956  22.1813  22.2048  22.2647  22.2875  22.3214
    22.3299  22.3444  22.3625  22.3823  22.3944  22.4534  22.4586  22.4886
    22.5068  22.5307  22.5874  22.6213  22.6403  22.6794  22.7110  22.7275
    22.7374  22.7873  22.8441  22.8599  22.9199  22.9620  23.0087  23.0374
    23.0772  23.0970  23.1591  23.1850  23.2010  23.2240  23.2780  23.3211
    23.3668  23.3892  23.4242  23.4447  23.4895  23.5127  23.5673  23.5845
    23.6098  23.6523  23.6958  23.8345

          k = 0.0000 0.0000 0.0563 ( 40540 PWs)   bands (ev):

   -25.4072 -25.4060 -23.6624 -23.6623 -20.2111 -20.1207 -19.8952 -19.5527
   -19.1061 -18.5627 -17.9149 -17.2499 -17.1824 -17.1499 -16.9387 -16.6658
   -16.3922 -16.2529 -15.7739 -15.6490 -15.2279 -15.0808 -13.8800 -13.7216
   -13.5378 -13.2156 -13.0063 -12.4903 -12.4055 -11.9115 -11.8525 -11.7802
   -11.7018 -11.6632 -11.2898 -10.9996 -10.9585 -10.6865 -10.2146 -10.0222
    -9.8466  -9.6363  -9.5972  -9.2216  -9.0749  -8.8828  -8.6093  -8.5421
    -8.4631  -8.2993  -8.1775  -8.0315  -7.9698  -7.9053  -7.7750  -7.6388
    -7.5333  -7.4182  -7.2837  -7.0902  -6.9769  -6.8598  -6.5885  -6.4511
    -6.3772  -6.0922  -5.9756  -5.8456  -5.7134  -5.6103  -5.5027  -5.4414
    -5.2326  -5.1431  -4.9509  -4.7999  -4.6496  -4.4426  -4.3735  -4.0031
    -3.7105  -3.5573  -3.0901  -3.0550  -2.6487  -2.6048   0.4796   0.5486
     0.8981   0.9599   1.4149   1.5650   1.6771   1.8428   1.8615   2.1941
     2.4242   2.4509   2.5102   2.6054   2.6169   2.7178   3.1098   3.2095
     3.3390   3.3849   3.5134   3.6356   3.7669   4.0499   4.1851   4.2170
     4.2797   4.3312   4.4898   4.6511   4.8989   4.9153   5.1172   5.1447
     5.2358   5.4096   5.4269   5.5721   5.6422   5.6898   5.7976   5.8157
     5.9140   6.0115   6.2370   6.3573   6.4367   6.5764   6.6569   6.6899
     6.7482   6.8609   6.8699   6.9490   6.9674   6.9966   7.0444   7.0885
     7.1038   7.1408   7.1537   7.2114   7.2734   7.3582   7.4342   7.5017
     7.5098   7.5608   7.5863   7.6787   7.7751   7.8615   7.8850   7.9139
     7.9270   8.0090   8.0218   8.1243   8.1590   8.1923   8.3105   8.3526
     8.3775   8.3929   8.4491   8.5171   8.5546   8.5681   8.5910   8.6659
     8.7390   8.7955   8.8245   8.8535   8.9081   8.9468   9.0699   9.0807
     9.1373   9.2607   9.2924   9.3165   9.3738   9.3976   9.4429   9.5226
     9.6415   9.7286   9.7615   9.7908   9.8674   9.8879   9.9468   9.9624
     9.9732   9.9869  10.0968  10.1707  10.2224  10.2908  10.3621  10.3801
    10.4911  10.5516  10.6109  10.6632  10.7498  10.8690  10.9136  10.9940
    11.0023  11.0535  11.0887  11.1405  11.2653  11.3050  11.3365  11.3730
    11.4485  11.4890  11.5785  11.6791  11.7010  11.7561  11.8789  11.9621
    12.0159  12.0605  12.0650  12.1135  12.1354  12.1683  12.2053  12.2409
    12.2685  12.3171  12.3796  12.4345  12.4845  12.5580  12.5924  12.6366
    12.6476  12.7012  12.7342  12.7368  12.7976  12.8120  12.8608  12.9324
    12.9679  12.9850  13.0954  13.1483  13.2231  13.2604  13.2799  13.3075
    13.3781  13.4003  13.4268  13.4565  13.5326  13.6492  13.7033  13.7498
    13.7932  13.8428  13.8673  13.8730  14.0057  14.0367  14.2918  14.3655
    14.3870  14.4500  14.5598  14.6094  14.6769  14.7383  14.7741  14.8505
    14.8767  14.8919  14.9653  15.0110  15.0379  15.0965  15.1133  15.1904
    15.2193  15.2512  15.2919  15.3656  15.4977  15.5382  15.5611  15.6028
    15.6260  15.6507  15.7130  15.7463  15.7567  15.8119  15.8390  15.8791
    15.8914  15.9208  15.9406  15.9733  16.0212  16.0341  16.0766  16.1298
    16.1895  16.2486  16.2634  16.3364  16.3678  16.4090  16.4781  16.5781
    16.6029  16.6257  16.6971  16.7153  16.7436  16.8109  16.8435  16.9395
    16.9599  16.9759  17.0281  17.1195  17.1620  17.2071  17.2348  17.2991
    17.3225  17.3658  17.4043  17.4659  17.4748  17.4917  17.5133  17.5295
    17.5556  17.6459  17.7001  17.7322  17.8383  17.8531  17.8729  17.9964
    18.0348  18.0754  18.0927  18.1566  18.1699  18.2288  18.2701  18.3629
    18.4112  18.4560  18.5086  18.5217  18.5286  18.6234  18.6608  18.6947
    18.7189  18.7382  18.7857  18.8267  18.9320  18.9573  18.9843  19.0337
    19.1374  19.1411  19.2150  19.2778  19.3029  19.3382  19.4359  19.4777
    19.5414  19.5658  19.6088  19.6623  19.7156  19.7705  19.8117  19.8477
    19.8854  19.9313  20.0189  20.1016  20.1180  20.1598  20.1979  20.2759
    20.3238  20.3382  20.3701  20.4179  20.4384  20.4931  20.5247  20.5776
    20.6375  20.6964  20.7175  20.7917  20.8585  20.8922  20.9655  20.9883
    21.0117  21.0666  21.0892  21.1811  21.2002  21.2524  21.2996  21.3280
    21.3803  21.4349  21.4527  21.5538  21.5723  21.5910  21.6344  21.6633
    21.7444  21.7568  21.7775  21.8002  21.9036  21.9222  21.9341  22.0094
    22.0268  22.0895  22.1335  22.1682  22.2228  22.2863  22.3034  22.3449
    22.3769  22.4252  22.4496  22.4619  22.5037  22.5309  22.5373  22.5669
    22.6159  22.6288  22.6704  22.6867  22.7207  22.7312  22.7559  22.7964
    22.8190  22.8411  22.8652  22.8814  22.9762  22.9960  23.0120  23.0454
    23.1322  23.1473  23.2139  23.2282  23.2535  23.3070  23.3115  23.3328
    23.3856  23.4202  23.4498  23.4773  23.5303  23.5476  23.5797  23.6127
    23.6315  23.6648  23.7199  23.7852

          k = 0.0000 0.0000 0.0610 ( 40548 PWs)   bands (ev):

   -25.3752 -25.3739 -23.7120 -23.7119 -20.1523 -20.0623 -19.8371 -19.4951
   -19.0491 -18.5067 -17.8613 -17.3925 -17.3194 -17.1832 -17.0628 -16.8129
   -16.4098 -16.3490 -15.9105 -15.6345 -15.3337 -15.1167 -13.9159 -13.7193
   -13.5441 -13.2204 -13.0000 -12.5078 -12.4056 -11.8287 -11.7536 -11.6126
   -11.5039 -11.4664 -11.2922 -10.9435 -10.8701 -10.7315 -10.2474  -9.8971
    -9.7225  -9.6743  -9.4863  -9.1353  -9.0360  -8.8764  -8.5322  -8.5186
    -8.4171  -8.2317  -8.1189  -7.9543  -7.9261  -7.8832  -7.7970  -7.6038
    -7.4802  -7.3598  -7.2346  -7.0661  -7.0447  -6.8207  -6.6055  -6.5100
    -6.3392  -6.1677  -6.0656  -5.8195  -5.7806  -5.7181  -5.5946  -5.5338
    -5.3407  -5.1067  -5.0443  -4.9695  -4.8174  -4.5422  -4.3995  -4.1675
    -3.7231  -3.6883  -3.2391  -3.0861  -2.7629  -2.6784   0.5165   0.6472
     0.8733   1.1062   1.5362   1.5905   1.7196   1.9406   2.0455   2.4081
     2.4470   2.5052   2.6888   2.6972   2.7966   2.8624   3.1574   3.2880
     3.3814   3.4333   3.5248   3.6997   3.8367   4.1296   4.1823   4.2885
     4.3559   4.4068   4.4972   4.6971   4.9725   4.9782   5.1785   5.2058
     5.2169   5.3673   5.4680   5.5311   5.5863   5.7251   5.8162   5.8554
     5.9392   6.0310   6.1723   6.3042   6.3971   6.4688   6.5468   6.6462
     6.6729   6.7665   6.8177   6.9084   6.9360   6.9908   7.0078   7.0158
     7.0678   7.0978   7.1252   7.1502   7.1885   7.2905   7.3458   7.4082
     7.4660   7.4978   7.5286   7.5942   7.6646   7.7198   7.7684   7.8145
     7.9164   7.9650   8.0365   8.0466   8.0683   8.1025   8.1714   8.1878
     8.2112   8.3100   8.4248   8.4521   8.4763   8.5862   8.5999   8.6322
     8.6787   8.7174   8.7297   8.7619   8.8485   8.8821   8.9136   8.9852
     9.0237   9.1184   9.1967   9.2537   9.3027   9.3390   9.3800   9.4433
     9.5215   9.5934   9.6389   9.6930   9.7516   9.8014   9.9013   9.9122
    10.0223  10.0453  10.0991  10.1493  10.1869  10.2311  10.2957  10.4000
    10.5037  10.5257  10.5992  10.6952  10.7227  10.8199  10.8435  10.9419
    10.9875  11.0118  11.0721  11.0852  11.1960  11.2359  11.3073  11.3472
    11.3747  11.4792  11.5023  11.6473  11.6584  11.8121  11.8476  11.8513
    11.8868  12.0459  12.0729  12.1048  12.1360  12.1494  12.1771  12.2217
    12.2425  12.2599  12.3820  12.4452  12.4719  12.5332  12.5721  12.6084
    12.6504  12.6914  12.7297  12.7325  12.8076  12.8755  12.9035  12.9503
    12.9659  12.9948  13.0705  13.1115  13.1659  13.1885  13.2374  13.2560
    13.3180  13.3585  13.4899  13.5317  13.6153  13.6970  13.7571  13.8157
    13.8535  13.9113  13.9457  13.9879  14.0172  14.1349  14.3638  14.3755
    14.4416  14.4636  14.5881  14.6099  14.6701  14.7185  14.7824  14.8230
    14.8503  14.9133  14.9327  15.0336  15.0618  15.1798  15.1849  15.2359
    15.2911  15.3604  15.4013  15.4698  15.4934  15.5431  15.5673  15.6161
    15.6289  15.6716  15.7324  15.7817  15.8038  15.8289  15.8628  15.9076
    15.9374  15.9787  15.9970  16.0498  16.1066  16.1453  16.1678  16.1885
    16.2662  16.2893  16.3258  16.3532  16.3812  16.4827  16.4978  16.6114
    16.6635  16.7026  16.7134  16.7762  16.8421  16.9077  16.9256  16.9940
    17.0006  17.0404  17.0843  17.1536  17.2185  17.2465  17.2724  17.3325
    17.3573  17.3807  17.4807  17.4988  17.5136  17.5461  17.5565  17.5801
    17.7347  17.7831  17.8344  17.8700  17.8988  17.9458  17.9723  18.0719
    18.0975  18.1159  18.2076  18.2515  18.3068  18.3494  18.3745  18.4118
    18.4338  18.4841  18.5038  18.5275  18.6365  18.6637  18.6900  18.7386
    18.7466  18.7966  18.8676  18.9135  19.0148  19.0263  19.0856  19.1235
    19.1773  19.2421  19.3110  19.3471  19.3608  19.4549  19.5034  19.5205
    19.5572  19.6362  19.6756  19.7116  19.7367  19.7706  19.7909  19.8822
    19.9152  19.9281  20.0420  20.1207  20.1860  20.2321  20.2616  20.3201
    20.3452  20.3894  20.4198  20.4778  20.4988  20.5390  20.5433  20.6457
    20.7075  20.7399  20.7781  20.7912  20.8509  20.8911  20.9835  21.0359
    21.0577  21.0760  21.1767  21.2005  21.3119  21.3314  21.4201  21.4792
    21.4938  21.5024  21.5633  21.5956  21.7433  21.7628  21.7678  21.8009
    21.8129  21.8232  21.8517  21.8768  21.9171  21.9258  21.9570  21.9916
    22.0212  22.0724  22.1219  22.1543  22.1784  22.2740  22.2932  22.3951
    22.4610  22.4775  22.4993  22.5384  22.5677  22.5756  22.6019  22.6150
    22.6315  22.6920  22.7195  22.7501  22.7700  22.7815  22.8027  22.8255
    22.8716  22.8882  22.9123  22.9569  22.9666  22.9993  23.0358  23.0931
    23.1299  23.2029  23.2356  23.2812  23.3118  23.3249  23.3523  23.4177
    23.4378  23.4902  23.5640  23.5810  23.5895  23.6406  23.6586  23.6918
    23.7169  23.7331  23.7723  23.8136

          k = 0.0000 0.0000 0.0657 ( 40536 PWs)   bands (ev):

   -25.3415 -25.3402 -23.7628 -23.7627 -20.0889 -19.9992 -19.7744 -19.4329
   -18.9877 -18.4465 -17.8059 -17.5525 -17.4753 -17.2906 -17.0637 -16.9612
   -16.5516 -16.3155 -16.0412 -15.6435 -15.4152 -15.1638 -13.9434 -13.7493
   -13.5359 -13.2143 -12.9980 -12.5116 -12.4145 -11.8104 -11.7303 -11.3850
   -11.3080 -11.2658 -11.2158 -10.9528 -10.7993 -10.7056 -10.2843  -9.8324
    -9.6493  -9.5866  -9.3690  -9.0870  -9.0004  -8.8254  -8.5027  -8.4530
    -8.3520  -8.1596  -8.0597  -7.9349  -7.8749  -7.8589  -7.7581  -7.5575
    -7.4286  -7.2978  -7.1878  -7.1477  -7.0175  -6.7829  -6.6455  -6.5683
    -6.2994  -6.2602  -6.1532  -5.9220  -5.8567  -5.7700  -5.6600  -5.6054
    -5.4393  -5.1714  -5.1330  -5.0386  -4.9819  -4.7050  -4.3589  -4.3281
    -3.8793  -3.6762  -3.3826  -3.1305  -2.8614  -2.7535   0.5569   0.7275
     0.8692   1.2483   1.4768   1.7643   1.7998   2.0201   2.2486   2.3517
     2.5924   2.6511   2.7763   2.8789   2.9448   3.1241   3.1644   3.3728
     3.3948   3.5077   3.5946   3.7667   3.9034   4.1514   4.2159   4.3662
     4.4378   4.4873   4.5422   4.7335   5.0204   5.0457   5.1593   5.2160
     5.2751   5.2965   5.4678   5.5350   5.5712   5.7583   5.8670   5.8939
     5.9987   6.0446   6.0837   6.1752   6.3042   6.3760   6.4472   6.5702
     6.6046   6.7421   6.7682   6.8160   6.8388   6.9254   6.9474   6.9750
     7.0337   7.0543   7.1029   7.1326   7.1799   7.1953   7.2891   7.3520
     7.4197   7.4541   7.4759   7.5014   7.5780   7.6136   7.6783   7.7299
     7.7590   7.8873   7.9188   7.9343   7.9782   8.0203   8.1025   8.1328
     8.1796   8.2155   8.2903   8.4088   8.4442   8.4875   8.5204   8.5555
     8.6282   8.6651   8.7158   8.7519   8.7806   8.8082   8.8508   8.8774
     8.9275   9.0466   9.1045   9.1440   9.1934   9.2893   9.3487   9.4254
     9.4344   9.4515   9.5073   9.5512   9.6615   9.7343   9.8720   9.9252
    10.0273  10.0644  10.1105  10.1307  10.1597  10.1999  10.2176  10.4407
    10.5033  10.5135  10.5263  10.6854  10.7338  10.7448  10.8167  10.8439
    10.9141  10.9771  11.0539  11.1068  11.1524  11.2281  11.2754  11.3049
    11.3954  11.4051  11.4700  11.5636  11.6294  11.6879  11.7250  11.8390
    11.9005  11.9592  12.0310  12.0767  12.1362  12.1681  12.2085  12.2202
    12.2566  12.2777  12.3414  12.4170  12.4534  12.4613  12.5209  12.6132
    12.6439  12.6890  12.7296  12.7774  12.8131  12.8395  12.9291  12.9558
    12.9720  13.0088  13.0441  13.0576  13.0683  13.1261  13.1859  13.2264
[...]
     6.6132   6.6340   6.6981   6.7243   6.7822   6.8384   6.8541   6.8751
     6.9243   6.9334   6.9864   6.9998   7.0406   7.0690   7.1090   7.2305
     7.2867   7.2955   7.3417   7.4156   7.5192   7.5826   7.6062   7.6292
     7.7527   7.7992   7.8316   7.8510   7.8970   7.9627   8.0116   8.0725
     8.1117   8.1616   8.2528   8.2892   8.3997   8.4603   8.5104   8.6951
     8.7452   8.8148   8.8821   8.9386   9.0427   9.0579   9.0770   9.0985
     9.2166   9.2671   9.2830   9.4686   9.5678   9.5896   9.6558   9.7687
     9.8064   9.8452   9.9069   9.9777  10.0032  10.1114  10.1439  10.2535
    10.2936  10.3297  10.3481  10.4469  10.4956  10.5549  10.5899  10.6495
    10.7349  10.8828  10.9146  10.9466  10.9710  10.9825  11.1708  11.1852
    11.2941  11.3030  11.3481  11.3912  11.4341  11.4801  11.5761  11.5878
    11.7293  11.7665  11.8138  11.8961  11.9207  11.9507  11.9944  12.0680
    12.0746  12.1150  12.1363  12.1747  12.2398  12.2954  12.3737  12.4985
    12.5593  12.6420  12.6668  12.7067  12.7683  12.8427  12.8860  12.9312
    12.9614  13.0121  13.0312  13.0691  13.0898  13.1088  13.2464  13.3842
    13.5358  13.5710  13.5920  13.6873  13.6949  13.7347  13.7485  13.7899
    13.8590  13.8957  13.9759  14.0581  14.0777  14.1812  14.2543  14.2787
    14.3163  14.3585  14.4090  14.5690  14.6938  14.7066  14.7221  14.7683
    14.8484  14.8996  14.9813  14.9992  15.0333  15.0724  15.1113  15.1958
    15.2592  15.3311  15.3489  15.5148  15.5531  15.5999  15.6404  15.6700
    15.7004  15.7575  15.8031  15.8551  15.9374  15.9475  16.0232  16.0954
    16.2401  16.2928  16.3383  16.3734  16.4615  16.5329  16.6433  16.6639
    16.6981  16.7288  16.7887  16.8112  16.8377  16.8642  16.9270  16.9910
    17.0262  17.0532  17.1080  17.1280  17.1695  17.3296  17.3592  17.3736
    17.3840  17.4362  17.4419  17.5675  17.5798  17.6739  17.7379  17.7626
    17.7802  17.8246  17.9294  17.9782  18.0428  18.0759  18.1532  18.1716
    18.2366  18.2533  18.2756  18.3104  18.3471  18.4870  18.4992  18.5785
    18.5890  18.5993  18.7516  18.7680  18.8613  18.9014  18.9680  18.9928
    19.1190  19.2077  19.2374  19.3130  19.3241  19.4686  19.4808  19.5193
    19.5859  19.6193  19.6486  19.6792  19.7220  19.7539  19.8491  19.9349
    19.9408  19.9755  19.9909  20.0574  20.0901  20.1071  20.1638  20.2532
    20.3025  20.3530  20.4172  20.4711  20.5936  20.6390  20.6670  20.7108
    20.7979  20.8260  20.8407  20.8757  20.9371  20.9466  20.9703  21.0186
    21.0370  21.0760  21.1355  21.1683  21.1842  21.2484  21.2654  21.3094
    21.3379  21.3535  21.4079  21.4223  21.4524  21.4675  21.5259  21.5441
    21.6183  21.6635  21.7133  21.7431  21.7708  21.7906  21.8498  21.8839
    21.9085  21.9181  21.9292  21.9418  21.9745  22.0085  22.0599  22.1367
    22.2057  22.2166  22.2381  22.2645  22.2735  22.2856  22.3000  22.3203
    22.4187  22.4377  22.4616  22.5411  22.5876  22.6110  22.6548  22.6973
    22.7311  22.7682  22.8147  22.8416  22.8525  22.8784  22.9049  22.9431
    22.9572  22.9635  22.9930  23.0259  23.0533  23.0870  23.1315  23.1450
    23.1895  23.2026  23.2723  23.3171  23.3315  23.3571  23.3755  23.3857
    23.4309  23.4870  23.5190  23.5367  23.5625  23.6342  23.6542  23.6915
    23.7151  23.7364  23.7501  23.7734  23.8707  23.8947  23.9235  23.9449
    23.9591  23.9734  24.0160  24.0558

          k = 0.0000 0.0000 0.1080 ( 40544 PWs)   bands (ev):

   -25.0576 -25.0559 -24.1519 -24.1514 -19.3114 -19.2293 -19.0136 -18.8499
   -18.7663 -18.6821 -18.5313 -18.2697 -18.1713 -17.8047 -17.6689 -17.2678
   -17.0439 -16.6445 -16.3527 -15.9859 -15.6645 -15.4431 -14.1517 -13.9595
   -13.5342 -13.2664 -12.8071 -12.5371 -12.2249 -11.8296 -11.6451 -11.3963
   -11.2957 -11.0152 -10.6287 -10.2180  -9.7728  -9.4563  -9.1618  -9.0785
    -8.9982  -8.8913  -8.5273  -8.4116  -8.2547  -8.1349  -8.0882  -7.9806
    -7.9757  -7.9160  -7.7763  -7.7369  -7.6303  -7.5665  -7.4985  -7.4602
    -7.4063  -7.3652  -7.3411  -7.2252  -7.1367  -7.1075  -7.0605  -6.8839
    -6.7456  -6.6848  -6.6237  -6.5637  -6.5026  -6.4544  -6.2672  -6.1953
    -6.1386  -5.9301  -5.8751  -5.5418  -5.4975  -5.1021  -4.9941  -4.6070
    -4.4082  -4.0770  -3.8129  -3.6037  -3.2455  -3.1798   0.7483   0.8612
     1.1402   1.4441   1.7766   2.2094   2.5057   2.8415   2.8998   3.1747
     3.2581   3.5756   3.6505   3.6803   3.8095   3.8359   3.9461   4.1243
     4.2867   4.3778   4.3933   4.4919   4.5085   4.5671   4.5841   4.6611
     4.8064   4.8458   4.9644   5.0298   5.1268   5.1672   5.2063   5.2703
     5.3145   5.3765   5.4320   5.4839   5.5186   5.5373   5.5608   5.5789
     5.6863   5.9367   5.9580   6.0227   6.0642   6.1004   6.1074   6.1431
     6.1691   6.2167   6.3191   6.3340   6.4169   6.4477   6.4813   6.5408
     6.6134   6.6520   6.6746   6.6989   6.7219   6.7513   6.7593   6.8452
     6.8698   6.8948   6.9806   7.0318   7.0362   7.0849   7.1021   7.1563
     7.2296   7.2779   7.3244   7.3955   7.4648   7.5147   7.5478   7.5880
     7.6743   7.7125   7.7450   7.7656   7.8288   8.0245   8.0393   8.1320
     8.2156   8.2423   8.2877   8.3138   8.3809   8.4529   8.4807   8.6423
     8.6995   8.7581   8.8388   8.8493   8.9145   8.9429   9.1504   9.1823
     9.2045   9.3083   9.3385   9.4398   9.5851   9.6157   9.6987   9.7874
     9.8248   9.8404   9.9353   9.9640   9.9974  10.0388  10.0749  10.1654
    10.2484  10.3222  10.3584  10.4498  10.5101  10.5267  10.5770  10.6046
    10.6996  10.7844  10.8370  11.0546  11.0611  11.0955  11.1641  11.2046
    11.2218  11.2950  11.3355  11.4216  11.4964  11.5407  11.5988  11.6089
    11.6727  11.7014  11.7929  11.8549  11.9145  11.9514  11.9708  12.0150
    12.0328  12.1096  12.1251  12.1670  12.2483  12.2570  12.4312  12.4527
    12.5096  12.5513  12.5873  12.7264  12.8005  12.8526  12.8843  12.9153
    12.9798  13.0063  13.0656  13.1176  13.1420  13.1662  13.3292  13.3333
    13.5081  13.5469  13.5959  13.6371  13.6552  13.7432  13.7629  13.7882
    13.8530  13.8805  13.9347  13.9454  14.1250  14.2017  14.2051  14.2860
    14.3388  14.3983  14.4458  14.5299  14.5944  14.6546  14.6705  14.7322
    14.8477  14.9104  14.9900  15.0121  15.0278  15.1223  15.1766  15.2025
    15.2967  15.3330  15.3492  15.5138  15.5422  15.6196  15.6601  15.7096
    15.7367  15.7578  15.7951  15.8882  15.9362  15.9793  16.0718  16.1078
    16.2151  16.3211  16.4206  16.4339  16.5056  16.5522  16.5962  16.6031
    16.6329  16.6932  16.7160  16.8468  16.8652  16.8934  16.9063  16.9645
    16.9983  17.0716  17.1253  17.1417  17.2250  17.2911  17.3458  17.3661
    17.4004  17.4581  17.4746  17.5632  17.6149  17.6737  17.6916  17.7292
    17.7479  17.8097  17.8650  17.9278  17.9488  18.0284  18.1331  18.2005
    18.2327  18.2712  18.2919  18.3217  18.3864  18.4611  18.4986  18.5097
    18.6881  18.7162  18.7436  18.7713  18.9084  18.9089  18.9694  19.0058
    19.1344  19.1798  19.3200  19.3684  19.4250  19.4972  19.5752  19.5946
    19.6537  19.6951  19.7457  19.7882  19.8213  19.8510  19.9403  20.0118
    20.0892  20.1451  20.1542  20.2000  20.2289  20.2883  20.3303  20.3815
    20.4677  20.5476  20.6361  20.6930  20.6993  20.7607  20.7964  20.8087
    20.8365  20.8794  20.9372  20.9400  20.9534  20.9809  21.0015  21.0631
    21.0975  21.1441  21.1883  21.2181  21.2528  21.2649  21.2962  21.3179
    21.3292  21.4259  21.4319  21.4671  21.4890  21.5210  21.5468  21.5659
    21.5916  21.6232  21.6553  21.6663  21.7183  21.7436  21.7546  21.8328
    21.8491  21.9314  21.9417  21.9981  22.0115  22.0320  22.0919  22.1424
    22.1942  22.2372  22.2480  22.2668  22.2863  22.3507  22.3663  22.4166
    22.4408  22.4551  22.4900  22.5101  22.5701  22.5807  22.6088  22.6302
    22.6676  22.7076  22.7656  22.7840  22.8481  22.8668  22.8910  22.9397
    22.9510  22.9828  23.0147  23.0913  23.0999  23.1311  23.1515  23.1572
    23.1855  23.2144  23.2309  23.2729  23.3084  23.3185  23.3363  23.3768
    23.4391  23.4711  23.4902  23.5093  23.5389  23.5758  23.6056  23.6589
    23.6712  23.7162  23.7400  23.7626  23.8071  23.8441  23.8599  23.9111
    23.9580  23.9815  24.0168  24.0289

          k = 0.0000 0.0000 0.1127 ( 40562 PWs)   bands (ev):

   -25.0454 -25.0436 -24.1673 -24.1667 -19.2031 -19.1240 -18.9703 -18.9287
   -18.8606 -18.6853 -18.5455 -18.3408 -18.1153 -17.9027 -17.5854 -17.3718
   -16.9547 -16.7460 -16.2687 -16.0757 -15.6060 -15.4875 -14.1227 -14.0175
   -13.4718 -13.3311 -12.7521 -12.5844 -12.1839 -11.8446 -11.6224 -11.4229
   -11.2917 -11.0636 -10.5978 -10.2470  -9.7318  -9.4445  -9.0612  -8.9090
    -8.8421  -8.7447  -8.5452  -8.3845  -8.3154  -8.2224  -8.1753  -8.1678
    -7.8368  -7.8191  -7.7147  -7.6448  -7.5699  -7.5400  -7.5142  -7.5015
    -7.4931  -7.4652  -7.4552  -7.3303  -7.0412  -7.0228  -6.9836  -6.8442
    -6.8022  -6.7493  -6.7007  -6.5406  -6.5215  -6.4493  -6.2896  -6.2409
    -6.2141  -5.9615  -5.8557  -5.6340  -5.4108  -5.2074  -4.9022  -4.7069
    -4.3306  -4.1591  -3.7654  -3.6535  -3.2382  -3.2022   0.7703   0.8287
     1.2085   1.3636   1.8822   2.1005   2.6324   2.8519   2.9638   3.1481
     3.3875   3.5175   3.5962   3.6873   3.8211   3.9720   4.0926   4.1358
     4.2342   4.2915   4.3868   4.4726   4.5291   4.5485   4.6972   4.7831
     4.8470   4.8735   4.9188   4.9853   5.0551   5.1033   5.2004   5.2563
     5.3927   5.4266   5.4764   5.5408   5.5826   5.6270   5.6330   5.6605
     5.6831   5.8514   5.9000   5.9231   5.9716   6.0004   6.0666   6.1367
     6.2238   6.2677   6.2781   6.3776   6.4260   6.4493   6.4733   6.5057
     6.5136   6.5756   6.6129   6.6212   6.6862   6.7456   6.7803   6.8107
     6.8355   6.8930   6.9365   7.0256   7.0750   7.1217   7.1480   7.1988
     7.2312   7.2910   7.2970   7.3800   7.3923   7.4294   7.4738   7.5423
     7.5830   7.6265   7.6956   7.7644   7.8220   7.9948   8.1081   8.1838
     8.2580   8.2885   8.3566   8.3668   8.4255   8.4651   8.4832   8.5928
     8.6272   8.6508   8.7598   8.7804   8.8508   8.8924   9.1199   9.2011
     9.2981   9.3356   9.4495   9.5296   9.5564   9.6014   9.6414   9.7559
     9.8045   9.8409   9.9131   9.9409  10.0159  10.0419  10.1016  10.1823
    10.1944  10.2569  10.3270  10.4515  10.4989  10.5128  10.5527  10.6861
    10.7217  10.7378  10.7762  10.9785  11.0351  11.0606  11.1892  11.2238
    11.3371  11.3939  11.4193  11.4558  11.4771  11.5357  11.6019  11.6228
    11.6564  11.7268  11.7347  11.8213  11.8390  11.8929  11.9131  11.9735
    12.0299  12.0707  12.1688  12.1974  12.2807  12.3523  12.3878  12.4233
    12.4724  12.5103  12.5927  12.6376  12.6837  12.8201  12.9220  12.9294
    13.0010  13.0898  13.1277  13.1565  13.1726  13.2659  13.3216  13.4136
    13.4415  13.4929  13.5188  13.5783  13.6615  13.6790  13.7483  13.7632
    13.8392  13.9092  13.9391  14.0188  14.0737  14.1963  14.2292  14.2310
    14.3767  14.4368  14.4722  14.4999  14.5427  14.5787  14.6568  14.7699
    14.8185  14.9462  14.9862  15.0094  15.0258  15.0387  15.2293  15.2565
    15.3039  15.3726  15.4218  15.5088  15.5203  15.5940  15.6234  15.7041
    15.7324  15.7646  15.8292  15.8380  16.0434  16.0594  16.1161  16.1733
    16.2194  16.3621  16.3836  16.4093  16.4184  16.5084  16.5333  16.6304
    16.6599  16.6868  16.7241  16.8118  16.8635  16.9129  16.9395  16.9719
    17.0100  17.0891  17.1440  17.1998  17.2280  17.2370  17.3126  17.3289
    17.4581  17.4833  17.5032  17.5150  17.6105  17.6388  17.6575  17.7121
    17.7762  17.7999  17.8180  17.8631  17.9198  18.0290  18.1378  18.1838
    18.1954  18.2225  18.3048  18.3434  18.4170  18.4584  18.5024  18.5325
    18.6619  18.6748  18.7947  18.8098  18.9115  18.9609  18.9711  19.0407
    19.1111  19.1814  19.2697  19.4741  19.5037  19.5361  19.5773  19.6482
    19.6606  19.6921  19.7294  19.7920  19.9124  20.0015  20.1989  20.2220
    20.2547  20.2834  20.3028  20.3630  20.3730  20.4278  20.4552  20.4840
    20.5099  20.5913  20.6689  20.7284  20.7574  20.7889  20.8137  20.8796
    20.9083  20.9588  20.9823  21.0173  21.0484  21.0815  21.0896  21.1544
    21.1679  21.1926  21.2139  21.2185  21.2311  21.2574  21.2909  21.3370
    21.3539  21.3634  21.3776  21.4065  21.4466  21.4915  21.5157  21.5314
    21.5780  21.6067  21.6173  21.6529  21.7132  21.7408  21.7551  21.8016
    21.8579  21.9041  21.9587  21.9839  22.0313  22.0582  22.0735  22.1167
    22.1605  22.1735  22.1991  22.2436  22.2525  22.3434  22.3544  22.4037
    22.4455  22.4659  22.5126  22.5389  22.5815  22.6006  22.6104  22.6316
    22.7101  22.7320  22.7675  22.8060  22.8267  22.8323  22.8877  22.9184
    22.9305  22.9545  23.0424  23.0521  23.1389  23.1471  23.1785  23.1971
    23.2182  23.2323  23.2517  23.2887  23.3444  23.3715  23.3945  23.4230
    23.4265  23.4687  23.4936  23.5151  23.5540  23.5740  23.5980  23.6332
    23.6424  23.6645  23.6948  23.7273  23.7389  23.7535  23.8052  23.8376
    23.8526  23.8972  24.0001  24.0366

          k = 0.0000 0.0000-0.1174 ( 40564 PWs)   bands (ev):

   -25.0412 -25.0394 -24.1725 -24.1719 -19.0990 -19.0874 -19.0195 -18.9945
   -18.8025 -18.7719 -18.4669 -18.4297 -18.0339 -17.9899 -17.5060 -17.4559
   -16.8783 -16.8262 -16.2009 -16.1453 -15.5617 -15.5267 -14.0935 -14.0568
   -13.4135 -13.3904 -12.7199 -12.6141 -12.1675 -11.8516 -11.6140 -11.4338
   -11.2851 -11.0844 -10.5851 -10.2592  -9.7167  -9.4432  -9.0265  -8.8842
    -8.6736  -8.6666  -8.4984  -8.4886  -8.3423  -8.3394  -8.2091  -8.2052
    -7.7213  -7.7090  -7.6702  -7.6637  -7.5958  -7.5794  -7.5359  -7.5202
    -7.4940  -7.4868  -7.4671  -7.4243  -6.9568  -6.9507  -6.9412  -6.9089
    -6.8480  -6.7809  -6.7127  -6.5674  -6.5147  -6.3686  -6.3663  -6.2724
    -6.2059  -5.9976  -5.8084  -5.6896  -5.3328  -5.2903  -4.8089  -4.8036
    -4.2565  -4.2351  -3.7199  -3.6991  -3.2258  -3.2192   0.7972   0.7977
     1.2827   1.2855   1.9885   1.9933   2.7465   2.7570   3.0441   3.1110
     3.4581   3.5236   3.5813   3.5819   3.9664   3.9700   4.1140   4.1358
     4.2503   4.2562   4.3619   4.3713   4.5885   4.6031   4.7510   4.7850
     4.8668   4.8823   4.9511   4.9557   5.0000   5.0251   5.2461   5.2841
     5.3319   5.4163   5.5463   5.5472   5.6528   5.6614   5.6733   5.7168
     5.7577   5.8193   5.8275   5.8282   5.9236   5.9450   6.0935   6.1298
     6.2423   6.2521   6.3291   6.3692   6.4121   6.4317   6.4554   6.4731
     6.5088   6.5411   6.5986   6.6236   6.6674   6.6955   6.7945   6.8148
     6.8455   6.8965   6.9422   6.9553   7.0920   7.1381   7.2074   7.2222
     7.2714   7.2990   7.3379   7.3414   7.3576   7.3736   7.4428   7.4520
     7.5591   7.6130   7.6820   7.7578   7.8707   7.9306   8.1659   8.1858
     8.2501   8.3087   8.4114   8.4256   8.4668   8.4722   8.4728   8.5635
     8.6001   8.6033   8.7025   8.7077   8.8493   8.8868   9.1403   9.1465
     9.3742   9.3842   9.4917   9.5120   9.5715   9.6030   9.6566   9.7099
     9.7574   9.7758   9.8830  10.0040  10.0621  10.0672  10.1258  10.1352
    10.1660  10.2358  10.3507  10.4111  10.4929  10.5005  10.5391  10.6827
    10.7739  10.7859  10.8404  10.8495  10.9589  10.9899  11.3164  11.3187
    11.3373  11.3490  11.4415  11.4457  11.5272  11.5601  11.5964  11.6133
    11.6774  11.7131  11.7608  11.7681  11.8022  11.8038  11.9169  11.9408
    12.0545  12.0711  12.1888  12.2327  12.2835  12.3110  12.4237  12.4530
    12.4807  12.4867  12.5510  12.6010  12.6663  12.7383  12.9757  12.9819
    12.9928  13.0507  13.1628  13.1785  13.2728  13.2934  13.3354  13.3656
    13.3997  13.4866  13.5032  13.6156  13.6255  13.6462  13.6808  13.7397
    13.8660  13.9385  13.9820  14.0022  14.1265  14.1349  14.2015  14.2364
    14.4113  14.4564  14.4674  14.4826  14.5008  14.5585  14.6885  14.7584
    14.8883  14.8986  14.9637  14.9864  15.0267  15.0318  15.2616  15.2686
    15.3390  15.3407  15.4839  15.4864  15.5217  15.5685  15.6453  15.6887
    15.7253  15.7611  15.8090  15.8214  16.0734  16.1288  16.2217  16.2423
    16.2653  16.2842  16.2966  16.2996  16.4109  16.4670  16.5633  16.6461
    16.6799  16.7166  16.7273  16.8029  16.8428  16.8911  16.9506  16.9638
    17.1046  17.1337  17.1542  17.1741  17.1790  17.1904  17.3061  17.3417
    17.4465  17.4983  17.5330  17.5638  17.5919  17.6092  17.6350  17.6573
    17.7620  17.7893  17.8107  17.8641  17.9925  18.0153  18.1184  18.1253
    18.1896  18.2129  18.3203  18.3524  18.4191  18.4370  18.5560  18.5793
    18.6053  18.6233  18.8552  18.8636  18.8871  18.8913  19.0029  19.0530
    19.1190  19.1311  19.3836  19.3901  19.5358  19.5464  19.6199  19.6264
    19.6385  19.6784  19.7221  19.9144  20.0088  20.1096  20.1595  20.2177
    20.2937  20.3229  20.3991  20.4069  20.4324  20.4759  20.5681  20.5747
    20.6229  20.6418  20.6445  20.7040  20.7804  20.8041  20.8518  20.8755
    20.8869  20.9243  20.9645  21.0075  21.0523  21.0566  21.1123  21.1178
    21.2066  21.2108  21.2229  21.2298  21.2806  21.2861  21.3247  21.3632
    21.3669  21.3745  21.4219  21.4549  21.4661  21.5004  21.5057  21.5339
    21.5722  21.5739  21.6094  21.6339  21.6539  21.6591  21.7073  21.7475
    21.8253  21.8277  21.9234  21.9778  22.0275  22.0447  22.1471  22.1568
    22.1751  22.1794  22.2218  22.2259  22.3503  22.3603  22.3843  22.3900
    22.4247  22.4268  22.4286  22.4381  22.5315  22.5432  22.6828  22.6839
    22.7555  22.7608  22.7661  22.7830  22.7959  22.8289  22.8972  22.9365
    22.9650  23.0016  23.0067  23.0126  23.1181  23.1190  23.1738  23.1827
    23.2137  23.3331  23.3570  23.3585  23.3761  23.3879  23.4178  23.4325
    23.4374  23.4546  23.5073  23.5342  23.5463  23.5657  23.5805  23.6331
    23.6425  23.6455  23.7010  23.7037  23.7307  23.7450  23.8012  23.8126
    23.8966  23.8985  23.9336  23.9358

     the Fermi energy is    -1.2440 ev

     Writing output data file AGNR_OH_18.save/

     init_run     :      8.67s CPU      8.87s WALL (       1 calls)
     electrons    :   2203.18s CPU   2226.70s WALL (       1 calls)

     Called by init_run:
     wfcinit      :      0.00s CPU      0.00s WALL (       1 calls)
     potinit      :      0.42s CPU      0.47s WALL (       1 calls)
     hinit0       :      7.35s CPU      7.39s WALL (       1 calls)

     Called by electrons:
     c_bands      :   2203.16s CPU   2226.68s WALL (       1 calls)
     v_of_rho     :      0.34s CPU      0.36s WALL (       1 calls)
     newd         :      0.26s CPU      0.33s WALL (       1 calls)

     Called by c_bands:
     init_us_2    :      0.17s CPU      0.20s WALL (      26 calls)
     cegterg      :   2149.38s CPU   2164.20s WALL (      26 calls)

     Called by sum_band:

     Called by *egterg:
     h_psi        :    343.65s CPU    348.47s WALL (     534 calls)
     s_psi        :     35.54s CPU     35.63s WALL (     534 calls)
     g_psi        :      2.95s CPU      2.96s WALL (     482 calls)
     cdiaghg      :   1193.41s CPU   1194.74s WALL (     508 calls)

     Called by h_psi:
     h_psi:pot    :    339.80s CPU    343.79s WALL (     534 calls)
     h_psi:calbec :     35.10s CPU     35.86s WALL (     534 calls)
     vloc_psi     :    269.17s CPU    272.29s WALL (     534 calls)
     add_vuspsi   :     35.52s CPU     35.63s WALL (     534 calls)

     General routines
     calbec       :     35.10s CPU     35.85s WALL (     534 calls)
     fft          :      0.25s CPU      0.28s WALL (      14 calls)
     ffts         :      0.00s CPU      0.00s WALL (       1 calls)
     fftw         :    240.94s CPU    243.71s WALL (  323572 calls)
     interpolate  :      0.02s CPU      0.02s WALL (       1 calls)
     davcio       :      0.00s CPU      7.52s WALL (      52 calls)

     Parallel routines
     fft_scatt_xy :     40.78s CPU     41.21s WALL (  323587 calls)
     fft_scatt_yz :     66.66s CPU     67.57s WALL (  323587 calls)

     PWSCF        : 36m59.75s CPU    39m47.94s WALL


   This run was terminated on:  17:42:16   2Jan2022            

=------------------------------------------------------------------------------=
   JOB DONE.
=------------------------------------------------------------------------------=
