
     Program PWSCF v.6.3 starts on 21Apr2021 at 22:16:31 

     This program is part of the open-source Quantum ESPRESSO suite
     for quantum simulation of materials; please cite
         "P. Giannozzi et al., J. Phys.:Condens. Matter 21 395502 (2009);
         "P. Giannozzi et al., J. Phys.:Condens. Matter 29 465901 (2017);
          URL http://www.quantum-espresso.org", 
     in publications or presentations arising from this work. More details at
     http://www.quantum-espresso.org/quote

     Parallel version (MPI), running on    16 processors
     R & G space division:  proc/nbgrp/npool/nimage =      16
     Waiting for input...
     Reading input from standard input
     Message from routine read_cards :
     DEPRECATED: no units specified in CELL_PARAMETERS card

     Current dimensions of program PWSCF are:
     Max number of different atomic species (ntypx) = 10
     Max number of k-points (npk) =  40000
     Max angular momentum in pseudopotentials (lmaxx) =  3

     Atomic positions and unit cell read from directory:
     /home/zfwang/scratch/GNRDATASET/AGNR/AGNR_OH_19/AGNR_OH_19.save/


     Subspace diagonalization in iterative solution of the eigenvalue problem:
     a serial algorithm will be used


     Parallelization info
     --------------------
     sticks:   dense  smooth     PW     G-vecs:    dense   smooth      PW
     Min        2915     972    274               109203    21015    3149
     Max        2917     974    276               109204    21016    3150
     Sum       46669   15573   4391              1747249   336249   50399



     bravais-lattice index     =            0
     lattice parameter (alat)  =       1.8897  a.u.
     unit-cell volume          =    9840.4079 (a.u.)^3
     number of atoms/cell      =           46
     number of atomic types    =            3
     number of electrons       =       180.00
     number of Kohn-Sham states=          500
     kinetic-energy cutoff     =      40.0000  Ry
     charge density cutoff     =     480.0000  Ry
     Exchange-correlation      = PBE ( 1  4  3  4 0 0)

     celldm(1)=  18.897261  celldm(2)=   3.423000  celldm(3)=   0.426000
     celldm(4)=   0.000000  celldm(5)=   0.000000  celldm(6)=   0.000000

     crystal axes: (cart. coord. in units of alat)
               a(1) = (  10.000000   0.000000   0.000000 )  
               a(2) = (   0.000000  34.230000   0.000000 )  
               a(3) = (   0.000000   0.000000   4.260000 )  

     reciprocal axes: (cart. coord. in units 2 pi/alat)
               b(1) = (  0.100000  0.000000  0.000000 )  
               b(2) = (  0.000000  0.029214  0.000000 )  
               b(3) = (  0.000000  0.000000  0.234742 )  


     PseudoPot. # 1 for C  read from file:
     /home/zfwang/hp_home/MySoftware/qe-6.3/pseudo/C.pbe-n-rrkjus_psl.0.1.UPF
     MD5 check sum: fff530ed632a789b3b184014e67dd7f1
     Pseudo is Ultrasoft + core correction, Zval =  4.0
     Generated using "atomic" code by A. Dal Corso v.5.0.2 svn rev. 9415
     Using radial grid of 1073 points,  4 beta functions with: 
                l(1) =   0
                l(2) =   0
                l(3) =   1
                l(4) =   1
     Q(r) pseudized with 0 coefficients 


     PseudoPot. # 2 for O  read from file:
     /home/zfwang/hp_home/MySoftware/qe-6.3/pseudo/O.pbe-n-rrkjus_psl.0.1.UPF
     MD5 check sum: 73b3d1dec572cf22214b1d95c6304b69
     Pseudo is Ultrasoft + core correction, Zval =  6.0
     Generated using "atomic" code by A. Dal Corso v.6.3MaX
     Using radial grid of 1095 points,  4 beta functions with: 
                l(1) =   0
                l(2) =   0
                l(3) =   1
                l(4) =   1
     Q(r) pseudized with 0 coefficients 


     PseudoPot. # 3 for H  read from file:
     /home/zfwang/hp_home/MySoftware/qe-6.3/pseudo/H.pbe-rrkjus_psl.0.1.UPF
     MD5 check sum: e164a6907b691c6980f16942be34de84
     Pseudo is Ultrasoft, Zval =  1.0
     Generated using "atomic" code by A. Dal Corso v.5.0.2 svn rev. 9415
     Using radial grid of  929 points,  2 beta functions with: 
                l(1) =   0
                l(2) =   0
     Q(r) pseudized with 0 coefficients 


     atomic species   valence    mass     pseudopotential
        C              4.00    12.01070     C ( 1.00)
        O              6.00    18.99840     O ( 1.00)
        H              1.00     1.00794     H ( 1.00)

     No symmetry found



   Cartesian axes

     site n.     atom                  positions (alat units)
         1           C   tau(   1) = (   4.8056862   6.0598763   2.8010698  )
         2           C   tau(   2) = (   4.9429448   7.2413764   3.5501086  )
         3           C   tau(   3) = (   5.1487820   6.0776758   1.4690687  )
         4           C   tau(   4) = (   5.0092324   8.4746508   2.8373589  )
         5           C   tau(   5) = (   5.0172406   9.7112764   3.5510077  )
         6           C   tau(   6) = (   5.0495413   7.2453808   0.7079909  )
         7           C   tau(   7) = (   4.9989312   8.4779037   1.4215482  )
         8           C   tau(   8) = (   5.0079407  10.9430236   2.8413254  )
         9           C   tau(   9) = (   5.0003165  12.1757891   3.5501491  )
        10           C   tau(  10) = (   4.9922056   9.7124419   0.7079116  )
        11           C   tau(  11) = (   4.9975521  10.9436843   1.4182984  )
        12           C   tau(  12) = (   4.9987152  13.4116154   2.8393275  )
        13           C   tau(  13) = (   4.9998239  14.6464814   3.5491751  )
        14           C   tau(  14) = (   5.0007205  12.1758527   0.7098258  )
        15           C   tau(  15) = (   5.0007159  13.4114931   1.4208880  )
        16           C   tau(  16) = (   5.0005156  15.8798956   2.8403457  )
        17           C   tau(  17) = (   5.0004730  17.1153714   3.5500537  )
        18           C   tau(  18) = (   5.0001998  14.6460890   0.7110210  )
        19           C   tau(  19) = (   5.0002265  15.8797770   1.4193234  )
        20           C   tau(  20) = (   5.0002100  18.3505565   2.8393189  )
        21           C   tau(  21) = (   5.0001635  19.5839590   3.5472987  )
        22           C   tau(  22) = (   5.0004720  17.1150042   0.7087555  )
        23           C   tau(  23) = (   5.0005103  18.3503303   1.4183379  )
        24           C   tau(  24) = (   5.0007280  20.8184319   2.8368628  )
        25           C   tau(  25) = (   5.0008537  22.0541694   3.5471370  )
        26           C   tau(  26) = (   4.9998017  19.5836403   0.7091036  )
        27           C   tau(  27) = (   4.9987026  20.8183499   1.4184191  )
        28           C   tau(  28) = (   4.9977275  23.2863172   2.8379933  )
        29           C   tau(  29) = (   4.9922342  24.5176917   3.5475593  )
        30           C   tau(  30) = (   5.0004106  22.0540665   0.7068668  )
        31           C   tau(  31) = (   5.0081094  23.2870790   1.4148087  )
        32           C   tau(  32) = (   4.9986812  25.7520176   2.8331843  )
        33           C   tau(  33) = (   5.0489460  26.9846172   3.5459727  )
        34           C   tau(  34) = (   5.0172226  24.5187207   0.7044845  )
        35           C   tau(  35) = (   5.0089832  25.7553215   1.4174242  )
        36           C   tau(  36) = (   5.1478072  28.1521597   2.7845622  )
        37           C   tau(  37) = (   4.9427945  26.9883263   0.7037851  )
        38           C   tau(  38) = (   4.8056453  28.1700071   1.4521712  )
        39           O   tau(  39) = (   4.4078767   4.8105469   3.1848824  )
        40           O   tau(  40) = (   5.5287924   4.8214363   1.0136841  )
        41           O   tau(  41) = (   5.5280459  29.4092412   3.2382632  )
        42           O   tau(  42) = (   4.4094492  29.4197248   1.0675178  )
        43           H   tau(  43) = (   5.2596804   4.2473367   1.7857394  )
        44           H   tau(  44) = (   4.7954145   4.5972150   4.0998985  )
        45           H   tau(  45) = (   4.7973037  29.6326202   0.1520665  )
        46           H   tau(  46) = (   5.2576708  29.9814481   2.4651092  )

     number of k points=    26  Marzari-Vanderbilt smearing, width (Ry)=  0.0100
                       cart. coord. in units 2pi/alat
        k(    1) = (   0.0000000   0.0000000   0.0000000), wk =   0.0400000
        k(    2) = (   0.0000000   0.0000000   0.0046948), wk =   0.0800000
        k(    3) = (   0.0000000   0.0000000   0.0093897), wk =   0.0800000
        k(    4) = (   0.0000000   0.0000000   0.0140845), wk =   0.0800000
        k(    5) = (   0.0000000   0.0000000   0.0187793), wk =   0.0800000
        k(    6) = (   0.0000000   0.0000000   0.0234742), wk =   0.0800000
        k(    7) = (   0.0000000   0.0000000   0.0281690), wk =   0.0800000
        k(    8) = (   0.0000000   0.0000000   0.0328638), wk =   0.0800000
        k(    9) = (   0.0000000   0.0000000   0.0375587), wk =   0.0800000
        k(   10) = (   0.0000000   0.0000000   0.0422535), wk =   0.0800000
        k(   11) = (   0.0000000   0.0000000   0.0469484), wk =   0.0800000
        k(   12) = (   0.0000000   0.0000000   0.0516432), wk =   0.0800000
        k(   13) = (   0.0000000   0.0000000   0.0563380), wk =   0.0800000
        k(   14) = (   0.0000000   0.0000000   0.0610329), wk =   0.0800000
        k(   15) = (   0.0000000   0.0000000   0.0657277), wk =   0.0800000
        k(   16) = (   0.0000000   0.0000000   0.0704225), wk =   0.0800000
        k(   17) = (   0.0000000   0.0000000   0.0751174), wk =   0.0800000
        k(   18) = (   0.0000000   0.0000000   0.0798122), wk =   0.0800000
        k(   19) = (   0.0000000   0.0000000   0.0845070), wk =   0.0800000
        k(   20) = (   0.0000000   0.0000000   0.0892019), wk =   0.0800000
        k(   21) = (   0.0000000   0.0000000   0.0938967), wk =   0.0800000
        k(   22) = (   0.0000000   0.0000000   0.0985915), wk =   0.0800000
        k(   23) = (   0.0000000   0.0000000   0.1032864), wk =   0.0800000
        k(   24) = (   0.0000000   0.0000000   0.1079812), wk =   0.0800000
        k(   25) = (   0.0000000   0.0000000   0.1126761), wk =   0.0800000
        k(   26) = (   0.0000000   0.0000000  -0.1173709), wk =   0.0400000

     Dense  grid:  1747249 G-vectors     FFT dimensions: ( 135, 480,  60)

     Smooth grid:   336249 G-vectors     FFT dimensions: (  80, 270,  36)

     Estimated max dynamical RAM per process >     499.42 MB

     Estimated total dynamical RAM >       7.80 GB

     Check: negative/imaginary core charge=   -0.000005    0.000000

     The potential is recalculated from file :
     /home/zfwang/scratch/GNRDATASET/AGNR/AGNR_OH_19/AGNR_OH_19.save/charge-density.dat


     negative rho (up, down):  9.140E-04 0.000E+00
     Starting wfcs are  172 randomized atomic wfcs +  328 random wfcs

     Band Structure Calculation
     Davidson diagonalization with overlap

     ethr =  5.56E-09,  avg # of iterations = 18.7

     total cpu time spent up to now is     2326.8 secs

     End of band structure calculation

          k = 0.0000 0.0000 0.0000 ( 41953 PWs)   bands (ev):

   -25.5836 -25.5832 -23.3070 -23.3016 -20.5329 -20.4553 -20.2486 -19.9396
   -19.5363 -19.0421 -18.4521 -17.7879 -17.0645 -16.3173 -15.6298 -15.2929
   -15.2533 -15.1437 -15.0498 -14.8565 -14.7041 -14.5040 -14.3192 -14.2397
   -14.0749 -14.0404 -13.9814 -13.6485 -13.6415 -13.5694 -13.1045 -12.7243
   -12.4860 -12.1210 -11.8159 -11.7981 -11.5434 -11.1782 -11.1526 -10.9213
   -10.6036 -10.4489 -10.1429  -9.9771  -9.7291  -9.3968  -9.3146  -9.0223
    -8.8954  -8.8881  -8.6974  -8.5286  -8.5051  -8.3193  -8.2978  -8.1118
    -7.9582  -7.9186  -7.7508  -7.5974  -7.4874  -7.4265  -7.2436  -6.9650
    -6.8116  -6.5835  -6.3646  -6.3124  -5.8851  -5.8319  -5.6835  -5.4025
    -5.3918  -5.0149  -4.9835  -4.8083  -4.5396  -4.2944  -4.2549  -4.1944
    -3.4424  -3.3059  -3.1721  -2.9046  -2.6223  -2.5215  -2.0403  -1.8360
    -1.4680  -1.1342  -0.7798  -0.5507  -0.1479  -0.0185   0.1458   0.3754
     0.5411   0.6403   0.8097   1.1547   1.3993   1.7003   1.9801   2.1411
     2.2477   2.6154   2.6784   2.7382   2.9082   2.9313   3.2512   3.3175
     3.4628   3.6118   3.7144   3.7814   3.8160   3.8788   4.2511   4.3792
     4.3987   4.4595   4.6731   4.7306   4.8226   4.9133   5.1442   5.2201
     5.2603   5.2911   5.4071   5.7731   5.8758   6.1581   6.2238   6.2270
     6.2399   6.4016   6.4379   6.6621   6.6712   6.8435   6.8998   6.9911
     7.1359   7.1579   7.2251   7.2900   7.3520   7.3628   7.4404   7.4798
     7.6199   7.6570   7.7123   7.7304   7.7796   7.8439   7.8917   7.9750
     8.1884   8.2172   8.3294   8.4612   8.5482   8.5799   8.6209   8.6594
     8.7349   8.9755   9.0244   9.0793   9.0837   9.3057   9.3537   9.3938
     9.4218   9.5138   9.5270   9.5462   9.6065   9.6525   9.6719   9.7122
     9.7625   9.8234   9.9019   9.9493   9.9549  10.0051  10.0107  10.0252
    10.0508  10.0586  10.0769  10.0961  10.1385  10.2257  10.2276  10.2384
    10.2631  10.3041  10.3166  10.4197  10.4486  10.4951  10.5129  10.5504
    10.6038  10.6292  10.6606  10.7141  10.8821  10.9096  10.9175  10.9475
    10.9982  11.0738  11.1070  11.1811  11.1914  11.2153  11.2544  11.2658
    11.3147  11.3582  11.3635  11.3853  11.4218  11.4411  11.4616  11.5157
    11.5393  11.5978  11.6115  11.6352  11.6450  11.6716  11.6953  11.7247
    11.7377  11.8047  11.8183  11.8550  11.9088  11.9129  11.9398  11.9448
    11.9503  11.9869  12.0522  12.0889  12.1372  12.1479  12.1920  12.2180
    12.2534  12.2735  12.3640  12.3923  12.4469  12.4922  12.5186  12.5684
    12.5802  12.5924  12.6259  12.6524  12.7132  12.8103  12.8293  12.8676
    12.9530  13.0317  13.1022  13.1367  13.1511  13.2891  13.3278  13.3295
    13.3748  13.4130  13.4374  13.4983  13.5571  13.5808  13.6240  13.7403
    13.7547  13.8054  13.8084  13.8626  13.9066  13.9832  14.0645  14.1637
    14.2049  14.2380  14.2406  14.3161  14.3633  14.3984  14.4438  14.5024
    14.5237  14.5975  14.6926  14.7332  14.7357  14.8041  14.8953  14.8963
    14.9594  14.9846  15.0741  15.1115  15.1430  15.3044  15.3377  15.3740
    15.3823  15.4165  15.5030  15.5092  15.5487  15.6071  15.6906  15.6969
    15.7687  15.7715  15.8518  15.8953  15.9432  16.0193  16.0219  16.0609
    16.1688  16.2586  16.2980  16.3328  16.3333  16.3589  16.3883  16.3964
    16.4063  16.4360  16.5087  16.5156  16.5957  16.6241  16.6628  16.6667
    16.7506  16.8405  16.9094  17.0076  17.0164  17.0696  17.1185  17.1261
    17.1515  17.2293  17.2655  17.3130  17.3567  17.3795  17.4106  17.4475
    17.4755  17.4979  17.5117  17.5998  17.6218  17.6474  17.7380  17.8742
    17.8992  17.9888  18.0134  18.0264  18.1591  18.1598  18.2201  18.2381
    18.2744  18.2859  18.3067  18.3091  18.3286  18.3552  18.4173  18.4232
    18.4459  18.4851  18.4855  18.5212  18.5477  18.5517  18.5854  18.6341
    18.6348  18.6408  18.6982  18.7097  18.7910  18.8784  18.9159  18.9421
    18.9434  19.0175  19.0745  19.1790  19.2103  19.2474  19.2646  19.3093
    19.3200  19.3627  19.4564  19.5621  19.5903  19.6613  19.7638  19.8098
    19.8887  19.9143  20.0115  20.0144  20.0514  20.0535  20.1317  20.1550
    20.1745  20.3097  20.3383  20.3427  20.3848  20.4214  20.4480  20.4986
    20.5551  20.6768  20.7490  20.8022  20.8266  20.8653  20.9002  20.9518
    20.9879  21.0762  21.0931  21.1852  21.2689  21.3111  21.3161  21.3491
    21.3633  21.3838  21.4362  21.4555  21.5573  21.6124  21.6522  21.7020
    21.7146  21.7779  21.8087  21.8232  21.8526  21.9053  21.9334  21.9529
    22.0245  22.0542  22.0630  22.1389  22.1399  22.1619  22.1921  22.2092
    22.2864  22.2942  22.3394  22.3502  22.3849  22.4091  22.4382  22.5071
    22.5942  22.6029  22.6537  22.6909  22.7409  22.7460  22.7571  22.7833
    22.8059  22.8635  22.8804  22.9006

          k = 0.0000 0.0000 0.0047 ( 41935 PWs)   bands (ev):

   -25.5822 -25.5817 -23.3096 -23.3042 -20.5305 -20.4530 -20.2463 -19.9373
   -19.5340 -19.0398 -18.4498 -17.7857 -17.0624 -16.3155 -15.6322 -15.3359
   -15.3108 -15.1503 -15.0766 -14.8755 -14.7024 -14.5276 -14.2963 -14.1942
   -14.1266 -13.9932 -13.9549 -13.6695 -13.5927 -13.5191 -13.1135 -12.7300
   -12.4898 -12.1239 -11.8078 -11.7971 -11.5437 -11.1670 -11.1472 -10.9266
   -10.5890 -10.4517 -10.1469  -9.9683  -9.7272  -9.4013  -9.3109  -9.0182
    -8.9043  -8.8737  -8.6982  -8.5272  -8.5044  -8.3189  -8.2906  -8.1161
    -7.9552  -7.9173  -7.7463  -7.5956  -7.4842  -7.4347  -7.2396  -6.9633
    -6.8044  -6.5920  -6.3716  -6.2996  -5.8877  -5.8312  -5.6852  -5.4162
    -5.3790  -5.0162  -4.9892  -4.8088  -4.5476  -4.2984  -4.2537  -4.2024
    -3.4417  -3.3219  -3.1885  -2.9219  -2.6236  -2.5401  -2.0625  -1.8434
    -1.5020  -1.1882  -0.7271  -0.5167  -0.1253  -0.0138   0.1662   0.3954
     0.5609   0.6599   0.8081   1.1581   1.4028   1.6966   1.9833   2.1443
     2.2510   2.6123   2.6815   2.7399   2.9114   2.9344   3.2540   3.3206
     3.4615   3.6150   3.7174   3.7813   3.8192   3.8820   4.2533   4.3770
     4.4018   4.4625   4.6762   4.7330   4.8255   4.9148   5.1468   5.2225
     5.2630   5.2936   5.4046   5.7725   5.8786   6.1582   6.2258   6.2294
     6.2441   6.4026   6.4387   6.6591   6.6710   6.8421   6.8944   6.9892
     7.1346   7.1576   7.2258   7.2966   7.3529   7.3606   7.4416   7.4807
     7.6210   7.6494   7.7139   7.7321   7.7752   7.8453   7.8934   7.9687
     8.1863   8.2134   8.3058   8.4587   8.5432   8.5794   8.6120   8.6654
     8.7388   8.9781   9.0283   9.0524   9.0769   9.2744   9.3297   9.4041
     9.4276   9.5145   9.5260   9.5300   9.6009   9.6100   9.6603   9.6759
     9.7275   9.7588   9.8251   9.8599   9.9161   9.9420   9.9793  10.0091
    10.0160  10.0375  10.0793  10.1457  10.1710  10.1943  10.2253  10.2471
    10.3077  10.3483  10.3656  10.4018  10.4431  10.4944  10.5430  10.5748
    10.6280  10.6685  10.6813  10.7274  10.7578  10.8589  10.8679  10.9775
    11.0467  11.0599  11.0956  11.1173  11.1346  11.2170  11.2619  11.2882
    11.3017  11.3162  11.3516  11.3873  11.4288  11.4518  11.4779  11.5169
    11.5441  11.5701  11.6333  11.6428  11.6932  11.7063  11.7163  11.7433
    11.7818  11.8136  11.8392  11.8454  11.9114  11.9234  11.9495  11.9748
    12.0272  12.0461  12.0669  12.1224  12.1431  12.1570  12.2054  12.2139
    12.2213  12.2430  12.3213  12.3389  12.3604  12.4182  12.4374  12.4824
    12.5427  12.6044  12.6657  12.7373  12.7805  12.8536  12.8617  12.9652
    12.9951  13.0266  13.0802  13.1158  13.1508  13.2961  13.3210  13.3345
    13.3747  13.4275  13.4702  13.4925  13.5529  13.5772  13.6046  13.7423
    13.7560  13.7816  13.8634  13.8912  13.9209  14.0250  14.0804  14.1703
    14.2057  14.2485  14.2896  14.2996  14.3727  14.3792  14.4189  14.4942
    14.5665  14.5815  14.6628  14.7094  14.7448  14.8080  14.8241  14.9619
    15.0000  15.0318  15.0721  15.0863  15.1945  15.2515  15.2968  15.3518
    15.3946  15.4231  15.5150  15.5417  15.5545  15.6001  15.6255  15.6945
    15.7104  15.8001  15.8471  15.8842  15.9219  16.0261  16.0503  16.0968
    16.1109  16.1641  16.2529  16.2788  16.3482  16.3866  16.4110  16.4786
    16.4952  16.5170  16.5188  16.5987  16.6198  16.6459  16.6828  16.6863
    16.7348  16.8182  16.8503  16.9960  17.0345  17.0728  17.1355  17.1910
    17.1953  17.2453  17.2629  17.2902  17.3257  17.3671  17.3791  17.4300
    17.4708  17.5095  17.5718  17.6064  17.6158  17.6709  17.7123  17.8304
    17.8878  17.9544  17.9771  18.0084  18.0959  18.1322  18.1736  18.2324
    18.2406  18.2491  18.2926  18.3224  18.3531  18.3815  18.3998  18.4360
    18.4602  18.4752  18.4956  18.5320  18.5525  18.5784  18.5974  18.6158
    18.6421  18.6430  18.7503  18.7936  18.8221  18.8866  18.9031  18.9459
    18.9937  19.0778  19.0859  19.1781  19.2004  19.2193  19.2609  19.2921
    19.3324  19.3688  19.4416  19.4955  19.5965  19.6459  19.8002  19.8073
    19.8702  19.8966  20.0306  20.0411  20.0779  20.0855  20.1537  20.1589
    20.1931  20.2186  20.3667  20.3996  20.4043  20.4421  20.4451  20.5057
    20.5604  20.6654  20.7559  20.8151  20.8807  20.9097  20.9340  20.9803
    21.0172  21.0571  21.0884  21.1851  21.2011  21.2792  21.3005  21.3404
    21.3723  21.4269  21.4479  21.4987  21.5652  21.5903  21.6535  21.6935
    21.6972  21.7559  21.7768  21.8181  21.8575  21.8825  21.9236  22.0045
    22.0289  22.0388  22.0716  22.1146  22.1509  22.1870  22.2001  22.2132
    22.2419  22.2740  22.3116  22.3306  22.3738  22.4340  22.4469  22.5064
    22.5878  22.6140  22.6548  22.6988  22.7136  22.7413  22.7758  22.7915
    22.8073  22.8418  22.8475  22.8799

          k = 0.0000 0.0000 0.0094 ( 41967 PWs)   bands (ev):

   -25.5778 -25.5773 -23.3175 -23.3121 -20.5234 -20.4459 -20.2392 -19.9303
   -19.5270 -19.0329 -18.4430 -17.7790 -17.0559 -16.3102 -15.6439 -15.4428
   -15.4289 -15.2368 -15.1190 -14.9226 -14.7373 -14.5484 -14.2690 -14.1926
   -14.0812 -13.9244 -13.8732 -13.6562 -13.4805 -13.4277 -13.1388 -12.7471
   -12.4993 -12.1342 -11.7907 -11.7872 -11.5435 -11.1636 -11.1004 -10.9416
   -10.5527 -10.4553 -10.1584  -9.9439  -9.7223  -9.4127  -9.3003  -9.0078
    -8.9114  -8.8506  -8.6991  -8.5229  -8.5020  -8.3162  -8.2727  -8.1264
    -7.9464  -7.9127  -7.7338  -7.5903  -7.4797  -7.4547  -7.2262  -6.9570
    -6.7881  -6.6148  -6.3785  -6.2756  -5.8969  -5.8285  -5.6895  -5.4326
    -5.3657  -5.0308  -4.9943  -4.8118  -4.5712  -4.3105  -4.2521  -4.2245
    -3.4397  -3.3688  -3.2363  -2.9722  -2.6285  -2.5937  -2.1258  -1.8659
    -1.5913  -1.3035  -0.6156  -0.4270  -0.0604   0.0001   0.2260   0.4540
     0.6190   0.7177   0.8033   1.1684   1.4133   1.6856   1.9930   2.1537
     2.2608   2.6020   2.6908   2.7457   2.9210   2.9436   3.2625   3.3298
     3.4571   3.6247   3.7263   3.7816   3.8287   3.8913   4.2601   4.3700
     4.4113   4.4715   4.6854   4.7402   4.8344   4.9197   5.1544   5.2298
     5.2709   5.3009   5.3975   5.7708   5.8870   6.1585   6.2321   6.2366
     6.2559   6.4041   6.4423   6.6514   6.6696   6.8363   6.8780   6.9844
     7.1297   7.1566   7.2280   7.3170   7.3524   7.3588   7.4449   7.4826
     7.6181   7.6338   7.7156   7.7320   7.7682   7.8499   7.8983   7.9539
     8.1778   8.2038   8.2388   8.4469   8.5290   8.5774   8.5916   8.6794
     8.7479   8.9740   8.9935   9.0353   9.0586   9.1807   9.2540   9.3768
     9.4325   9.4467   9.4658   9.5104   9.5259   9.5539   9.5750   9.5897
     9.6772   9.6955   9.7232   9.8013   9.8772   9.8862   9.9294   9.9539
     9.9877  10.0368  10.0388  10.0693  10.1142  10.1652  10.2141  10.2202
    10.2608  10.3271  10.3510  10.4058  10.4223  10.5210  10.6076  10.6462
    10.6685  10.6735  10.7442  10.7554  10.7614  10.8150  10.8323  10.8730
    10.9377  11.0339  11.0389  11.0559  11.0978  11.1556  11.2823  11.2939
    11.3227  11.3460  11.3935  11.4102  11.4578  11.4859  11.5186  11.5338
    11.5673  11.5884  11.6266  11.6543  11.6751  11.7056  11.7383  11.7718
    11.8315  11.8397  11.8641  11.9206  11.9655  11.9795  12.0058  12.0394
    12.0593  12.0780  12.1001  12.1061  12.1381  12.1535  12.1818  12.2109
    12.2198  12.2349  12.2455  12.2761  12.3604  12.3686  12.4004  12.4428
    12.5598  12.6165  12.6385  12.7285  12.8001  12.8500  12.8762  12.9725
    13.1013  13.1176  13.1505  13.1794  13.2288  13.2823  13.3051  13.3363
    13.3615  13.3639  13.4258  13.5259  13.5521  13.6710  13.7240  13.7389
    13.7541  13.7954  13.8862  13.9358  13.9664  14.0585  14.1472  14.1719
    14.1895  14.2548  14.3075  14.3228  14.3625  14.4133  14.4368  14.5439
    14.5648  14.5733  14.6697  14.7057  14.7617  14.7860  14.8464  14.9433
    14.9771  15.0770  15.0806  15.0913  15.1852  15.2194  15.2566  15.3254
    15.3804  15.4539  15.5128  15.5259  15.5600  15.6130  15.6243  15.6617
    15.6834  15.7595  15.7759  15.8486  15.9124  15.9900  16.0088  16.1200
    16.1308  16.1727  16.2484  16.3470  16.3968  16.4150  16.4537  16.5279
    16.5340  16.5558  16.5770  16.6386  16.6638  16.6881  16.7080  16.7422
    16.8373  16.8638  16.9288  16.9941  17.0285  17.0575  17.1368  17.1445
    17.1658  17.2308  17.2667  17.3073  17.3609  17.3864  17.4094  17.4306
    17.4406  17.5456  17.5988  17.6151  17.6203  17.6688  17.7535  17.7824
    17.8505  17.8865  17.9018  17.9240  17.9869  18.0629  18.0897  18.1516
    18.1907  18.2545  18.2974  18.3268  18.3402  18.3777  18.4016  18.4286
    18.4309  18.4626  18.4895  18.5479  18.5883  18.6267  18.6369  18.6592
    18.6713  18.7062  18.7958  18.8162  18.8566  18.9339  18.9760  19.0141
    19.0256  19.0637  19.1080  19.1845  19.2111  19.2433  19.2773  19.2996
    19.3614  19.4215  19.4416  19.4556  19.5981  19.6161  19.7969  19.8474
    19.8574  19.8912  19.9889  20.0282  20.0445  20.1403  20.1688  20.1766
    20.2528  20.2861  20.4034  20.4179  20.4587  20.4659  20.5230  20.5671
    20.6083  20.6589  20.7916  20.8432  20.8930  20.9517  20.9697  21.0063
    21.0620  21.1024  21.1410  21.1672  21.1980  21.2381  21.2985  21.3469
    21.4000  21.4466  21.4829  21.4997  21.5319  21.6099  21.6558  21.6668
    21.6825  21.7114  21.7380  21.8120  21.8318  21.9020  21.9272  21.9800
    22.0074  22.0274  22.0426  22.0828  22.1042  22.1685  22.1972  22.2163
    22.2395  22.2521  22.2737  22.3504  22.4005  22.4333  22.4671  22.5011
    22.5788  22.5918  22.6542  22.6948  22.7138  22.7336  22.7708  22.7913
    22.8158  22.8261  22.8384  22.8843

          k = 0.0000 0.0000 0.0141 ( 41939 PWs)   bands (ev):

   -25.5705 -25.5701 -23.3305 -23.3252 -20.5116 -20.4342 -20.2275 -19.9187
   -19.5155 -19.0214 -18.4316 -17.7678 -17.0452 -16.3017 -15.6895 -15.5857
   -15.5498 -15.3645 -15.2121 -14.9591 -14.8410 -14.5395 -14.3675 -14.1245
   -13.9820 -13.8501 -13.7295 -13.5727 -13.3486 -13.3204 -13.1713 -12.7763
   -12.5102 -12.1538 -11.7744 -11.7613 -11.5409 -11.1521 -11.0320 -10.9578
   -10.5227 -10.4367 -10.1738  -9.9109  -9.7149  -9.4264  -9.2840  -8.9942
    -8.9145  -8.8230  -8.6948  -8.5171  -8.4972  -8.3110  -8.2496  -8.1351
    -7.9331  -7.9030  -7.7154  -7.5832  -7.5098  -7.4467  -7.2030  -6.9442
    -6.7778  -6.6402  -6.3762  -6.2526  -5.9155  -5.8232  -5.6942  -5.4458
    -5.3584  -5.0657  -4.9882  -4.8201  -4.6094  -4.3313  -4.2764  -4.2339
    -3.4450  -3.4356  -3.3126  -3.0522  -2.6824  -2.6326  -2.2227  -1.9051
    -1.7121  -1.4386  -0.4869  -0.3033   0.0224   0.0398   0.3205   0.5478
     0.7125   0.7955   0.8111   1.1855   1.4308   1.6674   2.0091   2.1694
     2.2772   2.5834   2.7063   2.7574   2.9370   2.9589   3.2766   3.3451
     3.4482   3.6407   3.7412   3.7839   3.8446   3.9070   4.2716   4.3577
     4.4270   4.4864   4.7007   4.7523   4.8490   4.9286   5.1664   5.2415
     5.2841   5.3117   5.3884   5.7678   5.9009   6.1592   6.2430   6.2488
     6.2740   6.4026   6.4518   6.6408   6.6657   6.8202   6.8524   6.9797
     7.1194   7.1535   7.2326   7.3463   7.3516   7.3649   7.4490   7.4836
     7.5918   7.6347   7.6874   7.7391   7.7768   7.8575   7.9063   7.9396
     8.1375   8.1617   8.1916   8.4109   8.5054   8.5617   8.5887   8.6843
     8.7517   8.9061   8.9683   9.0011   9.0257   9.0968   9.1238   9.1471
     9.2291   9.3656   9.4509   9.4638   9.4855   9.5249   9.5344   9.5616
     9.6174   9.6746   9.7073   9.7326   9.7570   9.7915   9.8656   9.9211
     9.9589   9.9919  10.0231  10.0609  10.0709  10.0761  10.1517  10.1612
    10.1752  10.2205  10.2508  10.3525  10.4311  10.4486  10.5273  10.5732
    10.5953  10.6278  10.6393  10.7278  10.7838  10.8480  10.8651  10.8699
    10.9552  10.9791  11.0274  11.1235  11.1713  11.2377  11.2941  11.3191
    11.3401  11.3849  11.4131  11.4397  11.4462  11.5298  11.5393  11.5479
    11.5704  11.5852  11.6352  11.6586  11.6800  11.6903  11.7174  11.7818
    11.8341  11.8605  11.8749  11.9028  11.9161  11.9925  12.0036  12.0154
    12.0657  12.0853  12.0951  12.1347  12.1563  12.1890  12.2396  12.2495
    12.2899  12.3135  12.3191  12.3367  12.3479  12.3883  12.4437  12.4898
    12.5361  12.5887  12.6788  12.7478  12.8247  12.8395  12.8652  12.9600
    13.0871  13.1007  13.1339  13.1534  13.2480  13.2909  13.3413  13.4024
    13.4197  13.4632  13.4912  13.5665  13.6148  13.7084  13.7278  13.7837
    13.8542  13.8677  13.9132  13.9676  13.9967  14.0810  14.1101  14.1804
    14.2060  14.2876  14.3120  14.3567  14.3737  14.5000  14.5089  14.5518
    14.5925  14.6352  14.6655  14.7349  14.8001  14.8575  14.8677  14.9239
    14.9615  15.0138  15.0266  15.0994  15.1309  15.1640  15.2308  15.3453
    15.3831  15.3948  15.4649  15.5233  15.5526  15.5674  15.6047  15.6364
    15.6802  15.7673  15.8151  15.8426  15.9513  15.9686  16.0828  16.0916
    16.1836  16.1943  16.3165  16.3548  16.4178  16.4542  16.4987  16.5361
    16.5672  16.5818  16.6234  16.6802  16.7195  16.7505  16.7818  16.7985
    16.8465  16.9549  16.9773  16.9983  17.0275  17.0542  17.1273  17.1865
    17.1938  17.2419  17.2693  17.3080  17.3360  17.3635  17.4059  17.4908
    17.4987  17.5124  17.5478  17.5651  17.6189  17.7462  17.7742  17.8183
    17.8267  17.8491  17.8518  17.8883  17.9268  18.0029  18.0538  18.0961
    18.1711  18.1829  18.2547  18.2803  18.2960  18.3265  18.3788  18.4200
    18.4505  18.4960  18.5124  18.5344  18.5999  18.6374  18.6448  18.6674
    18.7269  18.7607  18.7825  18.8290  18.8443  18.9478  18.9766  18.9917
    19.0988  19.1136  19.1369  19.2450  19.2654  19.3107  19.3178  19.3566
    19.3946  19.5295  19.5686  19.5825  19.5939  19.6399  19.7775  19.8043
    19.8821  19.9122  19.9360  19.9715  20.0577  20.1593  20.2103  20.2301
    20.2904  20.3294  20.4086  20.4410  20.5079  20.5320  20.5592  20.6252
    20.6929  20.7528  20.8710  20.8840  20.9205  20.9598  20.9920  21.0355
    21.0689  21.1223  21.1503  21.1883  21.2455  21.2881  21.3407  21.3756
    21.4288  21.4785  21.4948  21.5329  21.5376  21.5648  21.6364  21.6423
    21.6831  21.7116  21.7438  21.7843  21.8204  21.8497  21.8845  21.8945
    21.9587  21.9950  22.0243  22.0417  22.0668  22.1449  22.1918  22.2231
    22.2548  22.2800  22.3025  22.3623  22.3979  22.4233  22.4717  22.5062
    22.5397  22.5917  22.6234  22.6846  22.6929  22.7369  22.7725  22.8015
    22.8179  22.8334  22.8547  22.8949

          k = 0.0000 0.0000 0.0188 ( 41917 PWs)   bands (ev):

   -25.5603 -25.5599 -23.3485 -23.3433 -20.4951 -20.4177 -20.2111 -19.9024
   -19.4993 -19.0053 -18.4157 -17.7522 -17.0303 -16.2907 -15.8102 -15.7466
   -15.6459 -15.4734 -15.3484 -15.0076 -14.9531 -14.5621 -14.4709 -14.0431
   -13.9462 -13.6865 -13.5596 -13.4478 -13.2918 -13.1762 -13.1514 -12.8183
   -12.5180 -12.1808 -11.7720 -11.7160 -11.5312 -11.1138 -11.0319 -10.9013
   -10.5139 -10.3947 -10.1786  -9.8800  -9.7049  -9.4356  -9.2647  -8.9792
    -8.9144  -8.7950  -8.6771  -8.5167  -8.4860  -8.3044  -8.2264  -8.1311
    -7.9164  -7.8877  -7.6956  -7.5914  -7.5386  -7.4204  -7.1743  -6.9254
    -6.7942  -6.6470  -6.3648  -6.2349  -5.9446  -5.8162  -5.6963  -5.4555
    -5.3600  -5.1116  -4.9765  -4.8364  -4.6612  -4.3617  -4.3322  -4.2245
    -3.5440  -3.4362  -3.4093  -3.1570  -2.7928  -2.6441  -2.3439  -1.9680
    -1.8406  -1.5811  -0.3534  -0.1617   0.0538   0.1661   0.4441   0.6720
     0.7852   0.8373   0.9361   1.2093   1.4551   1.6426   2.0318   2.1914
     2.3001   2.5556   2.7278   2.7760   2.9595   2.9802   3.2960   3.3665
     3.4330   3.6631   3.7616   3.7903   3.8667   3.9289   4.2880   4.3392
     4.4489   4.5072   4.7221   4.7697   4.8693   4.9424   5.1810   5.2567
     5.3018   5.3224   5.3840   5.7637   5.9203   6.1602   6.2582   6.2650
     6.2972   6.3971   6.4681   6.6291   6.6572   6.7845   6.8229   6.9782
     7.1006   7.1483   7.2402   7.3441   7.3713   7.3974   7.4514   7.4845
     7.5654   7.6189   7.6480   7.7585   7.7956   7.8648   7.9149   7.9332
     8.0209   8.1380   8.1754   8.3322   8.4684   8.5567   8.5893   8.6419
     8.7376   8.8054   8.8383   8.8889   8.9178   8.9510   9.0396   9.0937
     9.1206   9.1480   9.3488   9.4059   9.4469   9.4860   9.5159   9.5503
     9.5772   9.5992   9.6417   9.6898   9.7301   9.7478   9.7738   9.8119
     9.8865   9.8998   9.9320   9.9895  10.0565  10.0659  10.1147  10.1278
    10.1537  10.1639  10.2038  10.2743  10.3062  10.3094  10.3488  10.3863
    10.4720  10.4987  10.5870  10.6394  10.6633  10.7739  10.8336  10.8794
    11.0122  11.1008  11.1478  11.2248  11.2567  11.2723  11.3074  11.3473
    11.3812  11.4012  11.4193  11.4428  11.4715  11.5000  11.5175  11.5539
    11.5738  11.5891  11.6103  11.6202  11.6511  11.6771  11.7154  11.7532
    11.7779  11.8575  11.9185  11.9409  11.9656  11.9955  12.0409  12.0482
    12.0768  12.1263  12.1417  12.1607  12.1766  12.2063  12.2369  12.2786
    12.3068  12.3616  12.3763  12.3963  12.4304  12.4626  12.4703  12.5876
    12.5977  12.6682  12.7020  12.7532  12.8066  12.8856  12.9254  12.9580
    13.0143  13.0758  13.1365  13.1678  13.2120  13.2833  13.3245  13.3987
    13.4488  13.4823  13.6485  13.6976  13.7055  13.7509  13.8088  13.8509
    13.8731  13.8882  13.9361  14.0014  14.0673  14.1562  14.1633  14.1961
    14.2230  14.2469  14.3506  14.4174  14.4924  14.5040  14.5335  14.5524
    14.6366  14.6777  14.6870  14.7447  14.8563  14.8836  14.9234  14.9685
    14.9809  15.0073  15.0582  15.0822  15.1033  15.1388  15.1569  15.1983
    15.3122  15.3606  15.4324  15.5411  15.5671  15.5721  15.6168  15.6509
    15.7093  15.7434  15.8710  15.8916  15.9356  16.0679  16.1043  16.1744
    16.2416  16.2642  16.3418  16.3660  16.4639  16.4770  16.4954  16.5550
    16.5879  16.6151  16.6543  16.6832  16.7035  16.7540  16.7893  16.8473
    16.9025  16.9319  17.0111  17.0444  17.0721  17.1316  17.1608  17.2003
    17.2494  17.2641  17.3028  17.3079  17.3552  17.3877  17.3991  17.4365
    17.4601  17.4698  17.4808  17.5447  17.6689  17.7339  17.7590  17.8316
    17.8433  17.8831  17.8925  17.9296  17.9532  18.0056  18.0328  18.0553
    18.1282  18.1647  18.1942  18.2524  18.2971  18.3181  18.3448  18.4194
    18.4466  18.4735  18.4844  18.5734  18.6029  18.6139  18.6251  18.6572
    18.6984  18.7240  18.7441  18.8684  18.8715  18.9087  18.9843  19.0324
    19.1335  19.1644  19.1969  19.2846  19.3198  19.3827  19.4122  19.4418
    19.4731  19.5785  19.6729  19.7090  19.7480  19.7673  19.8100  19.8538
    19.8671  19.9299  19.9803  20.0111  20.1077  20.1589  20.1990  20.2223
    20.2635  20.3384  20.4051  20.4513  20.4881  20.5683  20.6145  20.7505
    20.8014  20.8328  20.9047  20.9433  20.9683  21.0036  21.0157  21.0784
    21.1219  21.1770  21.2066  21.2157  21.2769  21.3285  21.3429  21.4166
    21.4328  21.4836  21.4923  21.5163  21.5439  21.5565  21.5773  21.6128
    21.6422  21.6735  21.7318  21.7687  21.8190  21.8679  21.8971  21.9141
    21.9708  22.0141  22.0279  22.0534  22.0589  22.0978  22.1205  22.2021
    22.2715  22.3140  22.3315  22.3501  22.3872  22.4385  22.5041  22.5262
    22.5662  22.5880  22.6047  22.6234  22.6445  22.7361  22.7455  22.7712
    22.7925  22.8184  22.8527  22.8853

          k = 0.0000 0.0000 0.0235 ( 41951 PWs)   bands (ev):

   -25.5474 -25.5470 -23.3714 -23.3662 -20.4738 -20.3966 -20.1900 -19.8814
   -19.4785 -18.9847 -18.3953 -17.7322 -17.0112 -16.2793 -15.9727 -15.9129
   -15.7775 -15.5242 -15.5029 -15.1329 -15.0075 -14.6421 -14.5442 -13.9891
   -13.8910 -13.4920 -13.3789 -13.3452 -13.2934 -13.0444 -13.0083 -12.8723
   -12.5197 -12.2097 -11.7938 -11.6487 -11.5089 -11.0884 -11.0408 -10.7975
   -10.5012 -10.3831 -10.1420  -9.8602  -9.6955  -9.4334  -9.2442  -8.9621
    -8.9126  -8.7694  -8.6400  -8.5280  -8.4657  -8.2948  -8.2034  -8.1095
    -7.8970  -7.8706  -7.6913  -7.6190  -7.5276  -7.3861  -7.1470  -6.9076
    -6.8297  -6.6343  -6.3467  -6.2247  -5.9824  -5.8102  -5.6933  -5.4629
    -5.3736  -5.1627  -4.9620  -4.8619  -4.7250  -4.4105  -4.3961  -4.2105
    -3.6641  -3.5374  -3.4239  -3.2817  -2.9231  -2.6617  -2.4794  -2.0745
    -1.9470  -1.7268  -0.2188  -0.0130   0.0947   0.3118   0.5909   0.7724
     0.8219   0.9886   1.0884   1.2396   1.4864   1.6115   2.0609   2.2192
     2.3294   2.5190   2.7553   2.8018   2.9883   3.0076   3.3202   3.3936
     3.4106   3.6919   3.7873   3.8030   3.8950   3.9573   4.3079   4.3151
     4.4771   4.5340   4.7497   4.7926   4.8949   4.9618   5.1934   5.2739
     5.3175   5.3355   5.3948   5.7585   5.9449   6.1613   6.2747   6.2847
     6.3228   6.3921   6.4882   6.6185   6.6386   6.7294   6.7924   6.9813
     7.0698   7.1443   7.2493   7.3464   7.3767   7.4227   7.4711   7.4973
     7.5385   7.5605   7.6456   7.7853   7.8166   7.8464   7.8987   7.9281
     7.9535   8.1154   8.1514   8.2168   8.4134   8.5134   8.5460   8.5691
     8.5887   8.6327   8.6819   8.7738   8.8440   8.8997   8.9256   8.9475
     9.1032   9.1579   9.2074   9.2772   9.3209   9.3647   9.4587   9.5045
     9.5303   9.5486   9.5986   9.6086   9.6536   9.6828   9.7492   9.7879
     9.7968   9.8359   9.8958   9.9346   9.9911   9.9937  10.0463  10.0674
    10.0973  10.1017  10.1333  10.1482  10.1781  10.2259  10.2651  10.2944
    10.3220  10.4040  10.4495  10.4886  10.6508  10.6941  10.7934  10.8902
    10.9741  11.0936  11.1028  11.1652  11.1861  11.2192  11.2589  11.3261
    11.3377  11.3679  11.4304  11.4479  11.4758  11.4987  11.5650  11.5777
    11.5975  11.6365  11.6553  11.6722  11.7370  11.7550  11.7819  11.8006
    11.8401  11.8634  11.9015  11.9229  11.9487  12.0256  12.0660  12.0872
    12.1222  12.1777  12.2016  12.2138  12.2380  12.2527  12.2857  12.3288
    12.3568  12.3669  12.3926  12.4092  12.4322  12.4573  12.5822  12.5973
    12.6215  12.6654  12.7600  12.8314  12.8641  12.9049  12.9902  13.0458
    13.0668  13.0943  13.1199  13.1421  13.1867  13.2876  13.3583  13.4186
    13.4873  13.5280  13.6784  13.6906  13.6932  13.7516  13.8376  13.8650
    13.9503  14.0134  14.0620  14.1119  14.1439  14.1540  14.1946  14.2576
    14.2812  14.3526  14.3615  14.4363  14.4803  14.5601  14.5722  14.6233
    14.6669  14.7243  14.7697  14.7970  14.8281  14.8656  14.8935  14.9066
    14.9165  15.0049  15.0608  15.0984  15.1486  15.1825  15.2173  15.3075
    15.3532  15.3738  15.4013  15.5088  15.5538  15.6014  15.6131  15.6963
    15.7401  15.7621  15.8506  15.9717  16.0223  16.0573  16.1264  16.2173
    16.2569  16.2823  16.3758  16.4262  16.4792  16.4819  16.5193  16.5799
    16.6123  16.6269  16.6501  16.7104  16.7148  16.8036  16.8140  16.8880
    16.9106  16.9514  17.0388  17.0570  17.1339  17.1419  17.1586  17.2062
    17.2308  17.2763  17.2919  17.3110  17.3367  17.3513  17.3790  17.4156
    17.4792  17.4982  17.5801  17.6469  17.6664  17.6866  17.7596  17.7776
    17.8115  17.8654  17.9183  17.9411  18.0093  18.0322  18.0503  18.1159
    18.1467  18.1530  18.1950  18.2479  18.2867  18.3199  18.3532  18.3665
    18.4427  18.4671  18.4947  18.5104  18.5990  18.6157  18.6554  18.6996
    18.7114  18.7414  18.8038  18.8447  18.8757  18.8883  19.0414  19.0783
    19.1176  19.1594  19.2464  19.3036  19.3669  19.3910  19.4814  19.5295
    19.5794  19.6755  19.7349  19.8289  19.8576  19.8966  19.9025  19.9350
    19.9842  20.0101  20.0542  20.0833  20.1108  20.1360  20.2040  20.2423
    20.3258  20.3505  20.3688  20.4531  20.5443  20.6309  20.6515  20.7682
    20.8514  20.8707  20.9420  20.9710  20.9907  21.0331  21.0443  21.1469
    21.2240  21.2522  21.2648  21.3020  21.3073  21.3214  21.3502  21.3851
    21.4189  21.4234  21.4588  21.4965  21.5130  21.5298  21.5570  21.6050
    21.6260  21.6813  21.7061  21.7725  21.8364  21.8999  21.9205  21.9331
    21.9826  22.0429  22.0727  22.0949  22.1450  22.1793  22.1948  22.2178
    22.2582  22.3013  22.3099  22.3738  22.4244  22.4500  22.5149  22.5238
    22.5334  22.5537  22.5801  22.6063  22.6588  22.6734  22.7282  22.7373
    22.7520  22.7837  22.8559  22.8763

          k = 0.0000 0.0000 0.0282 ( 41980 PWs)   bands (ev):

   -25.5316 -25.5313 -23.3988 -23.3938 -20.4478 -20.3707 -20.1643 -19.8558
   -19.4531 -18.9595 -18.3705 -17.7078 -16.9882 -16.2762 -16.1468 -16.0724
   -15.9379 -15.6649 -15.5533 -15.2640 -15.0752 -14.7254 -14.6240 -13.9495
   -13.8208 -13.4077 -13.2943 -13.1747 -13.1609 -12.9588 -12.8844 -12.8357
   -12.5148 -12.2345 -11.8303 -11.5659 -11.4725 -11.1562 -10.9467 -10.6919
   -10.4845 -10.3967 -10.0670  -9.8538  -9.6877  -9.4224  -9.2172  -8.9435
    -8.9089  -8.7436  -8.5884  -8.5453  -8.4384  -8.2782  -8.1762  -8.0769
    -7.8746  -7.8665  -7.7166  -7.6065  -7.5026  -7.3456  -7.1320  -6.9177
    -6.8347  -6.6182  -6.3253  -6.2227  -6.0249  -5.8082  -5.6840  -5.4693
    -5.4020  -5.2145  -4.9502  -4.8929  -4.7995  -4.4961  -4.4473  -4.1933
    -3.8003  -3.6742  -3.4265  -3.4134  -3.0675  -2.7036  -2.6059  -2.2198
    -2.0298  -1.8739  -0.0849   0.1109   0.1715   0.4709   0.7537   0.7607
     0.9918   1.1618   1.2638   1.2765   1.5243   1.5754   2.0965   2.2525
     2.3653   2.4749   2.7883   2.8348   3.0234   3.0408   3.3430   3.3845
     3.4279   3.7272   3.8170   3.8242   3.9297   3.9919   4.2806   4.3360
     4.5114   4.5666   4.7834   4.8213   4.9250   4.9876   5.1933   5.2936
     5.3288   5.3630   5.4210   5.7527   5.9743   6.1615   6.2828   6.3081
     6.3442   6.4005   6.5034   6.6000   6.6122   6.6681   6.7667   6.9855
     7.0286   7.1436   7.2569   7.3531   7.3679   7.4225   7.4663   7.4912
     7.5427   7.5627   7.6408   7.7378   7.8167   7.8348   7.8759   7.9322
     7.9710   8.0722   8.1079   8.1281   8.2736   8.3312   8.3672   8.4302
     8.4916   8.5176   8.6168   8.6945   8.7316   8.7905   8.8817   8.9040
     9.0247   9.1138   9.1338   9.1533   9.2125   9.2504   9.2805   9.3511
     9.4453   9.4711   9.5771   9.5921   9.6357   9.6669   9.6761   9.7060
     9.7368   9.7681   9.8022   9.8423   9.8939   9.8965   9.9333   9.9573
     9.9906  10.0262  10.0573  10.1074  10.1429  10.1722  10.2212  10.2518
    10.2844  10.3074  10.3331  10.4351  10.5364  10.6839  10.7258  10.8269
    10.9019  10.9273  10.9389  11.0182  11.0915  11.1501  11.1764  11.2149
    11.2422  11.3969  11.4204  11.4426  11.4600  11.5025  11.5327  11.5763
    11.6192  11.7039  11.7248  11.7621  11.7842  11.8119  11.8354  11.8954
    11.9160  11.9466  11.9679  11.9820  12.0468  12.0973  12.1174  12.1548
    12.1788  12.2005  12.2154  12.2288  12.2493  12.2555  12.2848  12.3543
    12.3747  12.4199  12.4402  12.4548  12.4654  12.4882  12.5758  12.6226
    12.6407  12.7111  12.8033  12.8846  12.9292  12.9560  13.0014  13.0236
    13.0709  13.1031  13.1252  13.2112  13.3054  13.3311  13.3627  13.5103
    13.5308  13.5879  13.6409  13.7000  13.7204  13.7534  13.8269  13.8896
    13.9487  14.0670  14.0955  14.1219  14.1743  14.2333  14.2592  14.3898
    14.4003  14.4222  14.4668  14.4888  14.5182  14.5917  14.6172  14.6851
    14.6945  14.7256  14.7644  14.7921  14.7977  14.8361  14.8790  14.9058
    14.9633  15.0738  15.1110  15.1465  15.1773  15.2197  15.3406  15.3683
    15.4424  15.4601  15.4914  15.5140  15.5946  15.6145  15.6619  15.7160
    15.7266  15.7759  15.9327  15.9966  16.0402  16.1067  16.1317  16.1615
    16.2234  16.2946  16.3416  16.4076  16.4389  16.4652  16.5279  16.6129
    16.6731  16.7295  16.7614  16.7714  16.7960  16.8232  16.8563  16.9258
    16.9464  16.9668  16.9983  17.0563  17.1000  17.1115  17.1210  17.1928
    17.2098  17.2541  17.3081  17.3410  17.3701  17.3936  17.4309  17.4451
    17.4718  17.5336  17.5419  17.6096  17.6718  17.7197  17.7700  17.8044
    17.8232  17.8493  17.9012  17.9429  18.0071  18.0414  18.0732  18.0822
    18.1297  18.1504  18.1847  18.2497  18.3303  18.3659  18.4020  18.4387
    18.4831  18.5229  18.5319  18.6069  18.6244  18.6706  18.6958  18.7131
    18.7249  18.7269  18.8089  18.8844  18.9246  18.9342  19.0383  19.1054
    19.2035  19.2106  19.2833  19.3129  19.3516  19.4031  19.5166  19.6100
    19.6504  19.7032  19.7763  19.8495  19.9016  19.9359  20.0332  20.0493
    20.0606  20.0729  20.1017  20.1541  20.2299  20.2619  20.2904  20.2980
    20.3596  20.3944  20.4975  20.5581  20.5770  20.6266  20.7320  20.7572
    20.8266  20.8652  20.9175  20.9893  21.0409  21.0678  21.1122  21.1380
    21.1462  21.1703  21.2352  21.2657  21.2966  21.3706  21.3829  21.4504
    21.4652  21.4766  21.4845  21.4980  21.5362  21.5672  21.6030  21.6208
    21.6279  21.6407  21.7335  21.7579  21.9003  21.9097  21.9386  21.9808
    22.0308  22.0505  22.1086  22.1669  22.1959  22.1988  22.2327  22.2744
    22.2992  22.3522  22.3565  22.3705  22.4381  22.4637  22.4930  22.5332
    22.5573  22.5699  22.5870  22.6153  22.6500  22.6832  22.7109  22.7220
    22.7483  22.8242  22.8530  22.8834

          k = 0.0000 0.0000 0.0329 ( 42012 PWs)   bands (ev):

   -25.5131 -25.5128 -23.4305 -23.4256 -20.4172 -20.3402 -20.1339 -19.8256
   -19.4231 -18.9298 -18.3411 -17.6791 -16.9616 -16.3331 -16.3223 -16.1754
   -16.1063 -15.8264 -15.6109 -15.3593 -15.1754 -14.7864 -14.7210 -13.9090
   -13.7612 -13.4641 -13.1350 -13.0376 -13.0003 -12.9578 -12.7380 -12.6606
   -12.5024 -12.2500 -11.8665 -11.4780 -11.4235 -11.2267 -10.8450 -10.5963
   -10.5025 -10.3618  -9.9912  -9.8505  -9.6762  -9.4139  -9.1743  -8.9433
    -8.8871  -8.7142  -8.5706  -8.5164  -8.4054  -8.2530  -8.1426  -8.0441
    -7.8955  -7.8488  -7.7163  -7.5749  -7.4713  -7.3004  -7.1473  -6.9373
    -6.8041  -6.6089  -6.3079  -6.2247  -6.0665  -5.8126  -5.6700  -5.4760
    -5.4461  -5.2643  -4.9732  -4.8995  -4.8828  -4.5969  -4.5056  -4.1733
    -3.9489  -3.8233  -3.5736  -3.4123  -3.2205  -2.8238  -2.6656  -2.3793
    -2.1096  -2.0210   0.0477   0.1719   0.3189   0.6380   0.7459   0.9339
     1.1782   1.3156   1.3562   1.4585   1.5349   1.5699   2.1386   2.2887
     2.4073   2.4269   2.8262   2.8746   3.0646   3.0797   3.3239   3.3983
     3.4673   3.7688   3.8494   3.8543   3.9706   4.0329   4.2424   4.3667
     4.5519   4.6050   4.8232   4.8559   4.9580   5.0199   5.1753   5.3209
     5.3481   5.3987   5.4571   5.7469   6.0078   6.1576   6.2719   6.3288
     6.3592   6.4295   6.4889   6.5418   6.6125   6.6323   6.7528   6.9651
     7.0018   7.1467   7.2571   7.3399   7.3609   7.4055   7.4239   7.4772
     7.5581   7.6062   7.6328   7.6565   7.7991   7.8328   7.8658   7.9322
     7.9780   8.0094   8.0378   8.0480   8.1009   8.1842   8.2262   8.2708
     8.3284   8.3708   8.5527   8.6336   8.6700   8.7186   8.8039   8.8173
     8.9045   8.9682   9.0205   9.0743   9.1085   9.1601   9.2507   9.2790
     9.3372   9.3494   9.4241   9.4734   9.5580   9.5682   9.6198   9.6524
     9.6611   9.6775   9.7078   9.7678   9.7932   9.8334   9.8652   9.8692
     9.9243   9.9492   9.9986  10.0624  10.0985  10.1210  10.2011  10.2142
    10.2435  10.2707  10.3306  10.4408  10.4527  10.5444  10.6176  10.7203
    10.7576  10.7945  10.8111  10.8695  10.9631  10.9934  11.1175  11.1917
    11.2267  11.2360  11.3589  11.4336  11.4671  11.4968  11.5668  11.6241
    11.6412  11.6960  11.7229  11.7625  11.7949  11.8447  11.8744  11.9231
    11.9713  11.9833  12.0355  12.0622  12.0706  12.0946  12.1494  12.1804
    12.2298  12.2371  12.2539  12.2653  12.3056  12.3345  12.3412  12.4375
    12.4692  12.4907  12.5010  12.5060  12.5248  12.5314  12.6059  12.6679
    12.6881  12.7848  12.8174  12.8639  12.8991  12.9479  12.9582  13.0092
    13.1148  13.1874  13.2082  13.2493  13.2966  13.3461  13.4103  13.5087
    13.5850  13.6339  13.7037  13.7537  13.7619  13.7870  13.8732  13.8980
    13.9378  14.0861  14.1330  14.1680  14.1960  14.2531  14.2648  14.3741
    14.4322  14.4590  14.4796  14.5589  14.5891  14.6876  14.7072  14.7458
    14.7596  14.7897  14.8054  14.8338  14.8448  14.8649  14.9588  14.9935
    15.0506  15.1266  15.1576  15.2305  15.2630  15.3015  15.3663  15.4291
    15.4532  15.4794  15.4936  15.5245  15.6707  15.7074  15.7508  15.7982
    15.8334  15.8601  15.9267  15.9590  16.0119  16.0924  16.1343  16.1949
    16.2660  16.3149  16.3244  16.3695  16.4667  16.5025  16.5194  16.6072
    16.6692  16.7220  16.7542  16.7740  16.8320  16.8468  16.8853  16.9020
    16.9811  17.0213  17.0445  17.0577  17.0995  17.1586  17.1688  17.2377
    17.2708  17.3002  17.3164  17.3523  17.3557  17.3857  17.4051  17.4768
    17.4984  17.5313  17.5480  17.5875  17.6579  17.7014  17.7319  17.7690
    17.8421  17.8779  17.8860  17.9185  17.9468  17.9997  18.0759  18.1047
    18.1172  18.2290  18.2872  18.3248  18.3687  18.4247  18.4655  18.5136
    18.5381  18.5920  18.6343  18.6437  18.6979  18.7190  18.7396  18.7579
    18.7849  18.8246  18.8673  18.8984  18.9524  19.0063  19.0649  19.1506
    19.2102  19.2811  19.3467  19.4108  19.4228  19.4656  19.5071  19.6133
    19.6199  19.7228  19.7583  19.8720  19.8832  19.9884  20.0755  20.1171
    20.1556  20.1918  20.2116  20.2555  20.2968  20.3375  20.3789  20.4365
    20.4498  20.4776  20.5701  20.6024  20.6571  20.6947  20.7295  20.8113
    20.8491  20.8788  20.8963  20.9473  20.9771  21.0037  21.0991  21.1526
    21.1646  21.1934  21.2090  21.2892  21.3142  21.3208  21.3760  21.4250
    21.4722  21.5171  21.5309  21.5471  21.5542  21.5959  21.6637  21.6805
    21.7203  21.7438  21.7707  21.8432  21.9164  21.9435  21.9766  22.0357
    22.0671  22.0791  22.1456  22.1491  22.2210  22.2488  22.2640  22.2758
    22.2898  22.3156  22.3472  22.3868  22.4386  22.4574  22.5278  22.6165
    22.6207  22.6472  22.6570  22.6873  22.7183  22.7487  22.7495  22.7824
    22.7858  22.8453  22.8707  22.8998

          k = 0.0000 0.0000 0.0376 ( 42018 PWs)   bands (ev):

   -25.4921 -25.4918 -23.4663 -23.4615 -20.3818 -20.3049 -20.0988 -19.7907
   -19.3885 -18.8955 -18.3073 -17.6461 -16.9322 -16.5023 -16.4756 -16.2791
   -16.1942 -15.9764 -15.7214 -15.3986 -15.2999 -14.8418 -14.8199 -13.8701
   -13.7248 -13.5015 -13.1106 -13.0435 -12.7989 -12.7557 -12.5970 -12.4911
   -12.4609 -12.2456 -11.8902 -11.4172 -11.3640 -11.2639 -10.7790 -10.5188
   -10.5007 -10.2926  -9.9495  -9.8179  -9.6640  -9.4025  -9.1158  -8.9697
    -8.8432  -8.6803  -8.5726  -8.4493  -8.3680  -8.2203  -8.1029  -8.0373
    -7.9223  -7.8202  -7.6848  -7.5369  -7.4355  -7.2531  -7.1987  -6.9316
    -6.7641  -6.6125  -6.3095  -6.2166  -6.1033  -5.8251  -5.6572  -5.5019
    -5.4827  -5.3121  -5.0370  -4.9728  -4.8774  -4.7084  -4.5723  -4.1512
    -4.1063  -3.9812  -3.7327  -3.4250  -3.3620  -2.9818  -2.6969  -2.5430
    -2.1929  -2.1666   0.1784   0.2266   0.4781   0.7245   0.8202   1.1219
     1.3605   1.3774   1.4955   1.5622   1.6207   1.6698   2.1871   2.3106
     2.3924   2.4563   2.8673   2.9211   3.1112   3.1239   3.2794   3.4380
     3.5123   3.8168   3.8829   3.8911   4.0177   4.0801   4.2023   4.4011
     4.5983   4.6491   4.8690   4.8964   4.9886   5.0588   5.1503   5.3542
     5.3746   5.4404   5.5006   5.7428   6.0429   6.1419   6.2464   6.2978
     6.3805   6.4531   6.4739   6.4837   6.6167   6.6475   6.7485   6.9128
     6.9974   7.1516   7.2381   7.2980   7.3354   7.3947   7.4031   7.4360
     7.5368   7.5805   7.6206   7.6741   7.7258   7.7392   7.8151   7.8546
     7.9245   7.9585   7.9891   8.0292   8.0656   8.0796   8.1284   8.1549
     8.1722   8.2459   8.4060   8.5117   8.5977   8.6530   8.6745   8.7167
     8.8079   8.8663   8.9206   8.9446   9.0402   9.1105   9.1345   9.2219
     9.2260   9.2464   9.3011   9.3208   9.3599   9.3892   9.5439   9.5672
     9.5946   9.6312   9.6905   9.7126   9.7254   9.7281   9.7478   9.8209
     9.8579   9.9316   9.9531  10.0447  10.0589  10.1029  10.1430  10.1885
    10.2417  10.2921  10.3184  10.3349  10.3774  10.4293  10.4967  10.5669
    10.6275  10.6861  10.7325  10.7600  10.8641  10.8767  11.0051  11.0379
    11.1624  11.2486  11.3114  11.3760  11.5030  11.5175  11.5976  11.6334
    11.6669  11.6734  11.7073  11.7124  11.7978  11.8142  11.8399  11.9307
    11.9484  11.9653  11.9830  12.0198  12.0810  12.1054  12.1861  12.2032
    12.2163  12.2620  12.3326  12.3738  12.3983  12.4390  12.4586  12.4724
    12.5017  12.5056  12.5866  12.6057  12.6470  12.6834  12.7074  12.7146
    12.7413  12.8063  12.8285  12.8410  12.8922  12.9268  12.9443  13.0055
    13.1526  13.2226  13.2589  13.3151  13.3328  13.3640  13.4574  13.4692
    13.4897  13.6055  13.7369  13.7597  13.8194  13.8596  13.9168  14.0051
    14.0502  14.0762  14.1367  14.1552  14.1765  14.2430  14.3434  14.3768
    14.4435  14.4858  14.5337  14.5912  14.6615  14.6911  14.7593  14.8200
    14.8686  14.8985  14.9449  14.9809  14.9841  15.0235  15.0363  15.0763
    15.0930  15.1527  15.1970  15.2877  15.3236  15.3818  15.4169  15.4430
    15.4764  15.5147  15.5584  15.5826  15.7064  15.7288  15.8131  15.8486
    15.8754  15.9076  15.9481  16.0151  16.0410  16.0774  16.2426  16.2735
    16.3005  16.3333  16.3698  16.3775  16.4477  16.5280  16.5437  16.6052
    16.6415  16.6900  16.7073  16.7592  16.8214  16.8455  16.8690  16.8984
    16.9510  16.9943  17.0734  17.0986  17.1201  17.2312  17.2373  17.2558
    17.2986  17.3491  17.3626  17.3740  17.4091  17.4210  17.4421  17.4906
    17.5179  17.5335  17.5625  17.5796  17.6192  17.6767  17.7467  17.7591
    17.8093  17.8281  17.8837  17.8994  17.9775  18.0628  18.1115  18.1267
    18.2153  18.2580  18.3163  18.4285  18.4314  18.4957  18.5197  18.5538
    18.5993  18.6436  18.6908  18.7120  18.7558  18.7799  18.7972  18.8294
    18.8662  18.8898  18.9736  18.9994  19.0265  19.0661  19.1678  19.2208
    19.2413  19.3117  19.3596  19.4325  19.4824  19.5083  19.5622  19.6199
    19.7460  19.7537  19.8385  19.8893  19.9740  20.0061  20.0422  20.1164
    20.2239  20.2374  20.2985  20.3136  20.3541  20.4218  20.4458  20.4752
    20.5206  20.5510  20.5686  20.6048  20.6919  20.7057  20.7791  20.8117
    20.8349  20.8824  20.9151  20.9285  20.9856  21.1088  21.1338  21.1511
    21.1998  21.2179  21.2367  21.2608  21.3562  21.3781  21.3879  21.4672
    21.4994  21.5214  21.5761  21.5961  21.6100  21.6571  21.7098  21.7487
    21.7889  21.8088  21.8587  21.8955  21.9558  21.9848  21.9926  22.0485
    22.0893  22.1257  22.1584  22.1853  22.2282  22.2680  22.2751  22.2990
    22.3146  22.3533  22.3946  22.4308  22.4404  22.4719  22.5602  22.5844
    22.6694  22.6717  22.7061  22.7339  22.7717  22.7900  22.8157  22.8542
    22.8685  22.8811  22.9374  23.0134

          k = 0.0000 0.0000 0.0423 ( 42040 PWs)   bands (ev):

   -25.4684 -25.4682 -23.5056 -23.5010 -20.3417 -20.2651 -20.0591 -19.7513
   -19.3493 -18.8568 -18.2691 -17.6090 -16.9027 -16.6762 -16.6420 -16.4477
   -16.2465 -16.0695 -15.8625 -15.4376 -15.4065 -14.9494 -14.8690 -13.8433
   -13.7071 -13.5189 -13.1757 -13.0016 -12.6258 -12.5466 -12.5066 -12.3834
   -12.3050 -12.1822 -11.8964 -11.4463 -11.2846 -11.2123 -10.7978 -10.4432
   -10.4294 -10.2310  -9.9185  -9.7682  -9.6520  -9.3710  -9.0504  -9.0105
    -8.7887  -8.6433  -8.5556  -8.3804  -8.3287  -8.1825  -8.0805  -8.0560
    -7.8993  -7.7889  -7.6394  -7.4950  -7.3967  -7.2787  -7.1963  -6.9098
    -6.7222  -6.6326  -6.3312  -6.2005  -6.1289  -5.8474  -5.6618  -5.5556
    -5.4876  -5.3597  -5.1225  -5.0682  -4.8484  -4.8261  -4.6469  -4.2716
    -4.1459  -4.1248  -3.8971  -3.5601  -3.3855  -3.1473  -2.7309  -2.7055
    -2.3098  -2.2799   0.2835   0.3067   0.6388   0.7134   0.9977   1.3137
     1.3872   1.4812   1.5838   1.6810   1.7804   1.8935   2.2421   2.2740
     2.4179   2.5111   2.9076   2.9743   3.1558   3.1733   3.2399   3.4853
     3.5623   3.8711   3.9067   3.9367   4.0710   4.1336   4.1699   4.4374
     4.6506   4.6987   4.9207   4.9423   5.0017   5.1036   5.1409   5.3805
     5.4139   5.4868   5.5502   5.7427   6.0655   6.1024   6.1994   6.2203
     6.4000   6.4175   6.4760   6.5298   6.6280   6.6833   6.7474   6.8639
     6.9824   7.1506   7.1825   7.2418   7.2916   7.3384   7.3543   7.4402
     7.4945   7.5209   7.5394   7.5660   7.6354   7.6890   7.7210   7.7983
     7.8536   7.8882   7.9807   8.0060   8.0371   8.0518   8.0925   8.1039
     8.1295   8.1591   8.2500   8.3398   8.4588   8.4857   8.5257   8.6905
     8.7290   8.7854   8.8407   8.8850   8.9390   8.9685   8.9770   9.0812
     9.0886   9.1170   9.1564   9.1881   9.3254   9.3637   9.3815   9.4527
     9.4788   9.4994   9.5792   9.6183   9.7080   9.7408   9.7582   9.7823
     9.7971   9.8781   9.9001   9.9957  10.0303  10.0725  10.0851  10.1502
    10.1808  10.2013  10.2273  10.3313  10.3551  10.3694  10.4143  10.4562
    10.5229  10.5408  10.6530  10.7088  10.7797  10.8182  10.8881  10.9547
    11.0963  11.2036  11.2743  11.3542  11.4633  11.4962  11.5392  11.5860
    11.6247  11.6481  11.6634  11.7452  11.7657  11.8253  11.8452  11.8738
    11.9254  11.9445  11.9865  12.0406  12.1073  12.1341  12.1601  12.2247
    12.2320  12.2985  12.3106  12.3873  12.4067  12.4444  12.4868  12.5071
    12.5566  12.5712  12.6092  12.6400  12.6845  12.7216  12.7435  12.7910
    12.8256  12.8650  12.8928  12.9217  12.9679  12.9712  13.0043  13.0911
    13.1964  13.2364  13.2821  13.3164  13.3591  13.3678  13.4591  13.5028
    13.5229  13.6330  13.6675  13.7124  13.7989  13.8354  13.9290  13.9893
    14.0289  14.0559  14.1736  14.2364  14.3195  14.3488  14.3892  14.4097
    14.4728  14.5640  14.6466  14.7115  14.7259  14.7945  14.8196  14.8701
    14.8757  14.9615  14.9860  15.0119  15.0578  15.1276  15.1655  15.1786
    15.1908  15.2292  15.3158  15.3352  15.3542  15.3814  15.4825  15.5356
    15.5477  15.6407  15.6699  15.6949  15.7329  15.7416  15.8005  15.8165
    15.8835  15.9313  15.9870  16.0494  16.0868  16.1628  16.2942  16.3325
    16.3825  16.3843  16.3979  16.4401  16.4677  16.4848  16.4933  16.5764
    16.6082  16.7036  16.7525  16.7819  16.8336  16.8543  16.9012  16.9198
    16.9834  16.9922  17.0716  17.0973  17.1114  17.2133  17.2364  17.2746
    17.2929  17.3265  17.3326  17.3592  17.4175  17.4695  17.4982  17.5130
    17.5517  17.5743  17.5982  17.6127  17.6573  17.6784  17.7163  17.8095
    17.8360  17.9080  17.9737  18.0423  18.0724  18.1344  18.1519  18.1662
    18.2326  18.2866  18.3772  18.4247  18.4493  18.5099  18.5804  18.6438
    18.6762  18.7128  18.7418  18.7490  18.8051  18.8202  18.8572  18.8755
    18.9474  19.0129  19.0414  19.0784  19.1037  19.1563  19.2355  19.2555
    19.2923  19.4179  19.4392  19.5014  19.5690  19.5829  19.6550  19.7423
    19.7729  19.7996  19.9059  19.9381  19.9962  20.0639  20.1573  20.2119
    20.2212  20.2450  20.2865  20.3203  20.3368  20.3833  20.4227  20.4323
    20.4847  20.5914  20.6090  20.6898  20.7044  20.8079  20.8156  20.8341
    20.8653  20.8829  20.8981  20.9848  20.9947  21.0641  21.0884  21.1466
    21.1857  21.2667  21.3093  21.3980  21.4597  21.4955  21.5331  21.5480
    21.5805  21.6136  21.6307  21.6430  21.6632  21.7408  21.7685  21.8031
    21.8154  21.8459  21.8934  21.9381  21.9677  22.0091  22.0480  22.0848
    22.1076  22.1535  22.1819  22.2235  22.2759  22.2929  22.3300  22.3325
    22.3824  22.4036  22.4447  22.4648  22.4955  22.5009  22.5178  22.5539
    22.6492  22.7003  22.7174  22.7506  22.8164  22.8430  22.8680  22.8735
    22.9264  22.9438  22.9454  23.0303

          k = 0.0000 0.0000 0.0469 ( 42060 PWs)   bands (ev):

   -25.4424 -25.4423 -23.5482 -23.5437 -20.2968 -20.2205 -20.0147 -19.7072
   -19.3056 -18.8135 -18.2265 -17.5681 -16.9012 -16.8268 -16.8053 -16.6104
   -16.3774 -16.0775 -16.0119 -15.5788 -15.4103 -15.0617 -14.9166 -13.8396
   -13.6829 -13.5425 -13.2120 -12.9949 -12.5841 -12.4171 -12.3189 -12.2706
   -12.1048 -12.0422 -11.8874 -11.5009 -11.1935 -11.1255 -10.8636 -10.4066
   -10.3138 -10.1653  -9.8727  -9.7472  -9.6043  -9.3271  -9.0493  -8.9817
    -8.7323  -8.6061  -8.5168  -8.3154  -8.2948  -8.1516  -8.1119  -8.0061
    -7.8530  -7.7556  -7.5871  -7.4507  -7.3745  -7.3407  -7.1442  -6.8836
    -6.6991  -6.6525  -6.3590  -6.2144  -6.1181  -5.8815  -5.7085  -5.5887
    -5.4888  -5.4058  -5.2230  -5.1708  -4.9481  -4.8145  -4.7272  -4.4403
    -4.3130  -4.1020  -4.0610  -3.7259  -3.3819  -3.3144  -2.8721  -2.7666
    -2.4462  -2.3712   0.3433   0.4314   0.7035   0.7991   1.1796   1.3542
     1.4941   1.5468   1.7305   1.8141   2.0090   2.1280   2.2110   2.3037
     2.4729   2.5719   2.9358   3.0339   3.1616   3.2313   3.2532   3.5385
     3.6157   3.9057   3.9323   3.9902   4.1305   4.1613   4.1938   4.4727
     4.7081   4.7536   4.9747   4.9860   4.9944   5.1533   5.1665   5.3957
     5.4639   5.5359   5.6048   5.7486   5.9944   6.0393   6.1550   6.1927
     6.3617   6.4427   6.5030   6.5848   6.6497   6.7132   6.7463   6.8367
     6.9420   7.0754   7.1188   7.1774   7.1977   7.2480   7.3289   7.3423
     7.4108   7.4277   7.4746   7.5178   7.5522   7.6309   7.6632   7.7341
     7.7535   7.7987   7.9274   7.9765   8.0233   8.0530   8.0681   8.0829
     8.1268   8.1647   8.1779   8.1876   8.2754   8.3554   8.4145   8.5654
     8.6188   8.7021   8.7235   8.7546   8.8090   8.8386   8.8928   8.9390
     8.9618   8.9941   9.0767   9.1354   9.1566   9.2458   9.2804   9.3178
     9.3929   9.4785   9.4904   9.5263   9.6668   9.6936   9.7389   9.7591
     9.7938   9.8222   9.8331   9.8451   9.8982   9.9614  10.0671  10.1020
    10.1382  10.1748  10.1986  10.2361  10.3182  10.3340  10.3754  10.4038
    10.4605  10.4927  10.5573  10.6123  10.7262  10.7794  10.8855  10.9239
    11.0464  11.0861  11.2563  11.3023  11.3251  11.3799  11.4137  11.5061
    11.6302  11.6381  11.6574  11.7532  11.7900  11.8128  11.8450  11.9022
    11.9302  11.9571  11.9787  12.1283  12.1468  12.1528  12.1628  12.1884
    12.1995  12.2480  12.2695  12.3244  12.3785  12.4380  12.4855  12.5419
    12.5673  12.5806  12.5956  12.6277  12.6800  12.6869  12.7561  12.8039
    12.8639  12.8753  12.9674  13.0064  13.0811  13.1079  13.1777  13.2177
    13.2240  13.2718  13.3008  13.3469  13.4085  13.4384  13.4822  13.5098
    13.5493  13.5601  13.6533  13.6582  13.7539  13.7713  13.9266  14.0255
    14.0544  14.0811  14.2332  14.2798  14.3226  14.4239  14.4839  14.4989
    14.5756  14.6063  14.7421  14.7972  14.8106  14.8578  14.8925  14.9029
    14.9260  14.9482  14.9651  15.0608  15.1130  15.2024  15.2395  15.2911
    15.3258  15.3459  15.3535  15.4222  15.4877  15.5014  15.5749  15.5970
    15.6405  15.7009  15.7282  15.7463  15.7760  15.7891  15.8491  15.8920
    15.9365  15.9571  16.0549  16.0807  16.1258  16.1524  16.1692  16.3059
    16.3513  16.4077  16.4545  16.4757  16.4962  16.5358  16.5705  16.6004
    16.6525  16.7142  16.7709  16.7995  16.8417  16.8942  16.9350  16.9472
    17.0378  17.0431  17.0955  17.1104  17.1452  17.2013  17.2239  17.2348
    17.2615  17.2924  17.3535  17.3750  17.4284  17.4839  17.5171  17.5440
    17.5768  17.6116  17.6165  17.6822  17.7401  17.7640  17.8025  17.8268
    17.9053  18.0064  18.0756  18.1424  18.1751  18.1900  18.2439  18.2856
    18.3304  18.3330  18.3397  18.5284  18.5500  18.5902  18.6052  18.6619
    18.6993  18.7209  18.7482  18.7654  18.8115  18.8316  18.9091  18.9352
    19.0121  19.0830  19.1051  19.1254  19.1857  19.2552  19.3144  19.3348
    19.5051  19.5337  19.5458  19.6385  19.6700  19.6953  19.7075  19.7911
    19.8406  19.8859  19.9383  19.9573  20.0469  20.0723  20.1550  20.1647
    20.2012  20.2166  20.2671  20.3061  20.3521  20.4223  20.4406  20.4915
    20.5269  20.6742  20.6856  20.7026  20.7517  20.8106  20.8319  20.8408
    20.8677  20.8897  20.9694  20.9914  21.0156  21.0516  21.0682  21.1394
    21.2294  21.2840  21.3883  21.4861  21.5574  21.5720  21.5946  21.6317
    21.6822  21.7016  21.7215  21.7615  21.7930  21.8241  21.8386  21.8644
    21.9066  21.9213  21.9559  21.9758  21.9950  22.0169  22.0413  22.1124
    22.1534  22.2140  22.2469  22.2688  22.3052  22.3157  22.3598  22.3674
    22.4242  22.4275  22.4707  22.4750  22.5246  22.5477  22.5798  22.5948
    22.6670  22.7390  22.7620  22.8000  22.8472  22.8568  22.8678  22.8997
    22.9166  22.9468  22.9704  23.0032

          k = 0.0000 0.0000 0.0516 ( 42062 PWs)   bands (ev):

   -25.4142 -25.4141 -23.5935 -23.5893 -20.2474 -20.1713 -19.9658 -19.6586
   -19.2574 -18.7658 -18.1796 -17.5237 -17.0391 -16.9806 -16.8550 -16.7348
   -16.5314 -16.1702 -16.0533 -15.7179 -15.4287 -15.1579 -14.9739 -13.8500
   -13.6548 -13.5823 -13.2137 -13.0158 -12.5718 -12.4159 -12.0975 -12.0747
   -11.8949 -11.8833 -11.8637 -11.5333 -11.1009 -11.0384 -10.9318 -10.4333
   -10.1848 -10.0627  -9.8688  -9.6968  -9.5226  -9.3052  -9.0539  -8.9120
    -8.6831  -8.5726  -8.4571  -8.2951  -8.2463  -8.1386  -8.0779  -7.9512
    -7.7989  -7.7221  -7.5317  -7.4540  -7.3963  -7.3065  -7.0907  -6.8595
    -6.7474  -6.6181  -6.3872  -6.2582  -6.0797  -5.9293  -5.7856  -5.6184
    -5.5055  -5.4396  -5.3262  -5.2798  -5.0659  -4.8270  -4.7651  -4.6115
    -4.4826  -4.2356  -4.0674  -3.8942  -3.4838  -3.3768  -3.0313  -2.8196
    -2.5701  -2.4653   0.4057   0.5474   0.7027   0.9578   1.3073   1.3633
     1.5742   1.7357   1.7998   2.0334   2.1423   2.2457   2.3715   2.3729
     2.5384   2.6379   2.9291   3.1001   3.1641   3.2968   3.3096   3.5971
     3.6672   3.8779   3.9992   4.0507   4.1867   4.1961   4.2597   4.5016
     4.7695   4.8129   4.9532   5.0420   5.0468   5.2058   5.2157   5.4022
     5.5169   5.5803   5.6612   5.7571   5.8647   5.9495   6.1234   6.2139
     6.3369   6.4610   6.5272   6.6419   6.6815   6.7119   6.7374   6.8355
     6.8690   6.9232   7.0389   7.0778   7.1142   7.1649   7.1889   7.2785
     7.3481   7.3666   7.3980   7.4643   7.5082   7.5647   7.5809   7.6527
     7.6792   7.7664   7.8484   7.8704   7.9193   8.0101   8.0314   8.0622
     8.1100   8.1261   8.1803   8.2056   8.2402   8.2591   8.3768   8.4028
     8.4628   8.4833   8.6003   8.6165   8.6654   8.7375   8.7416   8.8587
     8.9227   8.9577   8.9837   9.0129   9.0645   9.0884   9.1581   9.1849
     9.3280   9.3615   9.5132   9.5220   9.5408   9.5743   9.6296   9.6595
     9.6865   9.7213   9.7738   9.8644   9.8748   9.9013   9.9373  10.0235
    10.1172  10.1371  10.1674  10.2028  10.2186  10.2907  10.3449  10.4250
    10.4449  10.4634  10.5238  10.5618  10.6550  10.8068  10.8538  10.9350
    10.9834  11.0296  11.1024  11.1607  11.2499  11.2731  11.3481  11.4041
    11.5751  11.6411  11.6944  11.7564  11.7874  11.8129  11.8655  11.9154
    11.9595  12.0033  12.0201  12.0622  12.1082  12.1413  12.1582  12.1714
    12.1994  12.2187  12.2583  12.2640  12.3459  12.3925  12.4437  12.4880
    12.5364  12.5593  12.6087  12.6441  12.6756  12.7286  12.7491  12.7911
    12.8719  12.9037  12.9851  13.1089  13.1267  13.1574  13.2025  13.2317
    13.3202  13.3320  13.3466  13.4085  13.4251  13.4645  13.4915  13.5314
    13.5584  13.5876  13.6407  13.6638  13.7810  13.8756  13.9547  14.0220
    14.0588  14.2128  14.2605  14.3220  14.3856  14.4479  14.5042  14.5393
    14.5848  14.6603  14.6864  14.7575  14.7986  14.8425  14.9245  14.9514
    15.0373  15.0724  15.1000  15.1711  15.2272  15.2646  15.3081  15.3949
    15.4417  15.4561  15.4900  15.5123  15.5438  15.5987  15.6437  15.6484
    15.7137  15.7475  15.7760  15.8056  15.8076  15.8792  15.9056  15.9249
    15.9449  15.9961  16.0636  16.0952  16.1545  16.2121  16.2231  16.2364
    16.3170  16.4188  16.4885  16.4941  16.5403  16.5605  16.6123  16.6696
    16.7059  16.7458  16.7790  16.8327  16.8405  16.8832  16.9337  16.9691
    17.0216  17.0702  17.1402  17.1689  17.1779  17.1903  17.2372  17.2872
    17.3135  17.3714  17.3910  17.4260  17.4793  17.5689  17.5752  17.6076
    17.6245  17.6601  17.6945  17.7636  17.8130  17.8275  17.8678  17.9020
    17.9944  18.0198  18.1204  18.1876  18.2135  18.2507  18.3336  18.3350
    18.3979  18.5061  18.5290  18.5482  18.6142  18.6502  18.6759  18.7267
    18.7442  18.7740  18.7819  18.7988  18.8299  18.8438  18.9100  18.9973
    19.0147  19.1183  19.1770  19.2063  19.2955  19.3518  19.4017  19.5419
    19.5758  19.5862  19.6418  19.6903  19.7694  19.8022  19.8276  19.8692
    19.8787  19.8918  19.9444  19.9754  20.0373  20.0590  20.0965  20.1352
    20.1924  20.2481  20.3009  20.3304  20.4494  20.4696  20.4891  20.5059
    20.6088  20.6564  20.7264  20.7491  20.7759  20.8118  20.8498  20.8876
    20.9300  20.9620  21.0123  21.0347  21.0901  21.1192  21.1539  21.1778
    21.2460  21.3889  21.4084  21.5432  21.5766  21.6245  21.6440  21.6958
    21.7184  21.7575  21.7631  21.8009  21.8222  21.8529  21.8683  21.9103
    21.9472  21.9582  22.0326  22.0457  22.0755  22.1070  22.1454  22.2198
    22.2448  22.2544  22.2805  22.3057  22.3500  22.3837  22.4297  22.4395
    22.4558  22.4777  22.5016  22.5483  22.5790  22.6117  22.6206  22.6848
    22.7298  22.7567  22.8128  22.8491  22.8777  22.8861  22.9092  22.9157
    22.9586  22.9715  22.9818  22.9960

          k = 0.0000 0.0000 0.0563 ( 42066 PWs)   bands (ev):

   -25.3839 -25.3839 -23.6412 -23.6371 -20.1932 -20.1175 -19.9122 -19.6053
   -19.2046 -18.7137 -18.1286 -17.4773 -17.2048 -17.1434 -16.9772 -16.7412
   -16.6851 -16.3212 -16.0433 -15.8392 -15.4857 -15.2163 -15.0429 -13.8587
   -13.6934 -13.5679 -13.2065 -13.0431 -12.5572 -12.4398 -11.9509 -11.8571
   -11.8263 -11.7165 -11.6743 -11.5047 -11.0693 -10.9636 -10.9275 -10.4890
   -10.0744  -9.9608  -9.8610  -9.6059  -9.4502  -9.2982  -9.0167  -8.8411
    -8.6453  -8.5460  -8.3816  -8.3036  -8.1846  -8.0937  -8.0263  -7.8930
    -7.7411  -7.6956  -7.5315  -7.4648  -7.3466  -7.2646  -7.0376  -6.8511
    -6.8083  -6.5744  -6.4182  -6.3128  -6.0379  -5.9921  -5.8715  -5.6646
    -5.5607  -5.5099  -5.3886  -5.3651  -5.1765  -4.9180  -4.7833  -4.7270
    -4.6523  -4.4038  -4.0642  -4.0358  -3.6491  -3.3830  -3.1798  -2.8959
    -2.6714  -2.5612   0.4706   0.6264   0.7400   1.1107   1.2597   1.5468
     1.6500   1.8611   1.9424   2.0792   2.2622   2.4457   2.4885   2.6115
     2.6242   2.7060   2.8842   3.1726   3.2036   3.3672   3.3785   3.6599
     3.6959   3.8544   4.0726   4.1168   4.2371   4.2673   4.3319   4.5155
     4.8290   4.8752   4.9398   5.0960   5.1116   5.2575   5.2759   5.4040
     5.5446   5.5986   5.6881   5.7578   5.7869   5.8925   6.0800   6.2458
     6.3130   6.4612   6.5464   6.6007   6.6858   6.7081   6.7161   6.7586
     6.8180   6.8752   6.9503   6.9678   7.0378   7.0691   7.1292   7.1780
     7.1991   7.3158   7.3552   7.4054   7.4346   7.5041   7.5371   7.5535
     7.5987   7.7050   7.7745   7.7831   7.8462   7.9209   7.9516   7.9874
     8.0946   8.1227   8.1486   8.1986   8.2218   8.2542   8.2669   8.3185
     8.3495   8.3968   8.4314   8.4484   8.5797   8.6330   8.6765   8.7291
     8.7748   8.8232   8.8542   8.9725   9.0167   9.0589   9.0844   9.1123
     9.1825   9.2912   9.3425   9.3719   9.4395   9.4801   9.5424   9.5774
     9.6106   9.6718   9.6757   9.7642   9.8926   9.9027   9.9340   9.9416
     9.9861  10.0977  10.1337  10.1605  10.2057  10.2795  10.3130  10.3802
    10.4361  10.5034  10.5361  10.5840  10.5968  10.7798  10.8178  10.8861
    10.9151  10.9541  11.0059  11.0773  11.1578  11.1957  11.2683  11.3991
    11.4885  11.5955  11.7321  11.7457  11.7967  11.8167  11.8456  11.8989
    11.9439  11.9753  11.9978  12.0481  12.0686  12.1088  12.1445  12.1619
    12.1798  12.2242  12.2498  12.2642  12.3427  12.3636  12.3856  12.4118
    12.4746  12.5424  12.6088  12.6820  12.6897  12.7378  12.7970  12.8426
    12.8601  12.9177  12.9684  13.0963  13.1121  13.1235  13.1808  13.2079
    13.2865  13.3096  13.3443  13.4169  13.4341  13.4929  13.5525  13.5871
    13.6648  13.6794  13.7096  13.8019  13.8747  13.9730  13.9924  14.0239
    14.0988  14.2706  14.3216  14.3539  14.4276  14.4653  14.4944  14.5317
    14.5605  14.6214  14.6653  14.7097  14.7900  14.9190  14.9454  15.0034
    15.1214  15.1704  15.2241  15.2633  15.3106  15.3416  15.3849  15.4718
    15.4917  15.5304  15.5452  15.5897  15.6620  15.6754  15.7100  15.7257
    15.7553  15.7855  15.8153  15.8578  15.8736  15.8852  15.8923  15.9046
    16.0029  16.0495  16.0708  16.0937  16.1787  16.2655  16.3025  16.3678
    16.4114  16.4575  16.4962  16.5245  16.5597  16.5971  16.6298  16.6861
    16.7480  16.7703  16.7875  16.8000  16.8398  16.9051  16.9468  16.9933
    17.0528  17.0905  17.1591  17.1723  17.2211  17.2729  17.2871  17.3930
    17.4195  17.4608  17.4903  17.5375  17.5956  17.6094  17.6466  17.6521
    17.7361  17.7518  17.7748  17.8321  17.8517  17.9201  17.9559  18.0253
    18.0702  18.1253  18.1750  18.2022  18.2454  18.3149  18.3406  18.4328
    18.4960  18.5087  18.5215  18.6062  18.6662  18.7088  18.7530  18.7670
    18.7902  18.8337  18.8674  18.9001  18.9398  18.9882  19.0406  19.0550
    19.1050  19.1748  19.1957  19.3037  19.3904  19.4392  19.4822  19.5504
    19.6000  19.6304  19.7035  19.7246  19.7363  19.7431  19.8114  19.8537
    19.9318  19.9849  19.9929  20.0291  20.0405  20.1118  20.1806  20.2296
    20.2537  20.3151  20.3669  20.3959  20.4337  20.4670  20.5407  20.5970
    20.6305  20.6832  20.6873  20.7145  20.8006  20.8182  20.8488  20.9743
    21.0156  21.0711  21.1279  21.1797  21.2646  21.2758  21.2810  21.3360
    21.3562  21.4539  21.4891  21.5441  21.5868  21.6185  21.6415  21.6814
    21.6917  21.7175  21.7464  21.8050  21.8415  21.8660  21.8793  21.9046
    21.9444  21.9881  21.9983  22.0678  22.1313  22.1916  22.2377  22.2801
    22.3335  22.3645  22.4079  22.4281  22.4810  22.4850  22.4877  22.5312
    22.5544  22.5733  22.5917  22.6184  22.6320  22.6822  22.7060  22.7468
    22.7512  22.7858  22.7975  22.8478  22.8592  22.8883  22.9385  22.9451
    22.9604  23.0371  23.0528  23.0706

          k = 0.0000 0.0000 0.0610 ( 42060 PWs)   bands (ev):

   -25.3518 -25.3517 -23.6907 -23.6869 -20.1344 -20.0590 -19.8540 -19.5476
   -19.1474 -18.6572 -18.0737 -17.4388 -17.3689 -17.2935 -17.1315 -16.8484
   -16.7008 -16.4651 -16.0951 -15.8923 -15.5831 -15.2364 -15.1231 -13.8613
   -13.7681 -13.5216 -13.2283 -13.0425 -12.5444 -12.4685 -11.8942 -11.8275
   -11.5959 -11.5386 -11.4573 -11.3895 -11.1203 -10.8853 -10.8535 -10.5409
   -10.0709  -9.8484  -9.7600  -9.5094  -9.4399  -9.2274  -8.9664  -8.7828
    -8.6070  -8.5235  -8.3054  -8.2846  -8.1226  -8.0311  -7.9693  -7.8345
    -7.7071  -7.6767  -7.5596  -7.4049  -7.2925  -7.2256  -6.9880  -6.9128
    -6.8113  -6.5406  -6.4614  -6.3590  -6.0765  -6.0261  -5.9275  -5.7409
    -5.6691  -5.6050  -5.4789  -5.3597  -5.2632  -5.0188  -4.9532  -4.8206
    -4.6821  -4.5707  -4.2290  -4.0086  -3.8094  -3.4310  -3.2844  -2.9991
    -2.7464  -2.6578   0.5374   0.6463   0.8384   1.1805   1.2926   1.7288
     1.7318   1.8868   2.0568   2.1516   2.4929   2.5260   2.6919   2.7304
     2.7533   2.8486   2.8816   3.2516   3.2670   3.4395   3.4563   3.6605
     3.7318   3.8840   4.1523   4.1860   4.3016   4.3433   4.4099   4.5078
     4.8697   4.9410   4.9689   5.1323   5.1843   5.3049   5.3412   5.3963
     5.4548   5.5865   5.6838   5.7968   5.8169   5.9056   6.0346   6.2200
     6.3054   6.4088   6.4509   6.5419   6.5684   6.6585   6.7070   6.7666
     6.8044   6.8612   6.8874   6.9511   6.9787   7.0144   7.0197   7.0477
     7.1565   7.2112   7.2518   7.2853   7.3608   7.4420   7.4663   7.5106
     7.5769   7.5956   7.6850   7.7400   7.7589   7.8541   7.9141   7.9459
     7.9769   8.0003   8.0259   8.1296   8.1573   8.2004   8.2064   8.2652
     8.2873   8.3615   8.3928   8.4425   8.4948   8.5401   8.5901   8.6234
     8.6361   8.6929   8.7231   8.9148   8.9460   9.0106   9.0473   9.0653
     9.1195   9.1283   9.1821   9.2767   9.3184   9.3518   9.3973   9.4687
     9.4848   9.6013   9.7163   9.7458   9.7622   9.8585   9.8755   9.9435
    10.0017  10.0667  10.0713  10.1370  10.2059  10.2682  10.3145  10.3469
    10.4031  10.4751  10.5630  10.5989  10.6222  10.6997  10.7298  10.8055
    10.8487  10.8543  10.9808  11.0568  11.1439  11.1508  11.2368  11.3484
    11.4586  11.5275  11.6354  11.6917  11.7369  11.7486  11.8475  11.8769
    11.9093  11.9269  12.0223  12.0555  12.0833  12.1192  12.1262  12.1370
    12.1552  12.1897  12.2066  12.2478  12.2942  12.3347  12.3893  12.4682
    12.5082  12.5319  12.5762  12.6505  12.7253  12.7925  12.8208  12.8472
    12.8946  12.9219  12.9257  12.9373  13.0170  13.0764  13.1496  13.1788
    13.2330  13.3450  13.3713  13.4202  13.4929  13.5376  13.6188  13.6273
    13.6718  13.7215  13.7840  13.9444  13.9913  14.0426  14.0591  14.1178
    14.1638  14.2428  14.2770  14.3314  14.3824  14.4787  14.4986  14.5534
    14.5884  14.6450  14.6948  14.7359  14.8650  14.9483  15.0030  15.0486
    15.1506  15.2057  15.2440  15.3025  15.3774  15.4251  15.4570  15.4860
    15.5189  15.5440  15.5939  15.6136  15.6339  15.6555  15.6786  15.6994
    15.8038  15.8438  15.8608  15.8779  15.8856  15.9777  16.0016  16.0602
    16.0839  16.1073  16.1322  16.2202  16.2597  16.2873  16.3469  16.3982
    16.4463  16.4756  16.5401  16.5676  16.6289  16.6622  16.6774  16.7318
    16.7422  16.7808  16.8129  16.8665  16.9111  16.9518  16.9906  17.0488
    17.0963  17.1684  17.2060  17.2253  17.2844  17.3138  17.3258  17.4158
    17.5135  17.5544  17.5834  17.6315  17.6577  17.6844  17.7788  17.7832
    17.7995  17.8329  17.8750  17.9307  17.9724  17.9910  18.0289  18.1568
    18.1737  18.1858  18.2356  18.2510  18.3194  18.3671  18.3950  18.4608
    18.5626  18.5956  18.6226  18.6711  18.6724  18.7233  18.7718  18.7784
    18.8608  18.8790  18.9179  18.9835  19.0374  19.1444  19.1643  19.1793
    19.2065  19.3019  19.3718  19.4089  19.4643  19.4722  19.5084  19.5266
    19.5505  19.5774  19.6900  19.7107  19.7458  19.7641  19.8134  19.8399
    19.9245  19.9973  20.0880  20.1119  20.1529  20.1660  20.2122  20.2798
    20.3257  20.3638  20.3839  20.4469  20.4829  20.5366  20.5594  20.6523
    20.6897  20.7128  20.7371  20.7793  20.8162  20.8706  20.9766  21.0752
    21.1300  21.1757  21.2129  21.3293  21.3597  21.4260  21.4296  21.4630
    21.4906  21.5136  21.5309  21.5586  21.5630  21.6628  21.6785  21.6992
    21.7086  21.7224  21.7477  21.7565  21.7801  21.8533  21.8811  21.9366
    21.9860  22.0347  22.0540  22.0948  22.1491  22.2289  22.2674  22.3363
    22.3600  22.3919  22.4405  22.4567  22.5198  22.5357  22.5716  22.6064
    22.6272  22.6477  22.6643  22.6732  22.7244  22.7379  22.7699  22.7766
    22.7889  22.8328  22.8670  22.8780  22.8989  22.9738  22.9760  23.0357
    23.0523  23.0675  23.1154  23.1777

          k = 0.0000 0.0000 0.0657 ( 42034 PWs)   bands (ev):

   -25.3182 -25.3180 -23.7415 -23.7379 -20.0709 -19.9959 -19.7912 -19.4852
   -19.0857 -18.5964 -18.0152 -17.5328 -17.4945 -17.3436 -17.2845 -16.9996
   -16.7011 -16.5652 -16.2129 -15.8751 -15.7004 -15.2414 -15.2112 -13.8786
   -13.8196 -13.4848 -13.2714 -13.0140 -12.5523 -12.4789 -11.8821 -11.8212
   -11.3947 -11.3429 -11.2485 -11.2168 -11.1485 -10.8449 -10.7803 -10.5521
   -10.1194  -9.6977  -9.6769  -9.4602  -9.3705  -9.1287  -8.9162  -8.7546
    -8.5460  -8.4938  -8.2659  -8.2022  -8.0603  -7.9624  -7.9079  -7.8019
    -7.7276  -7.6170  -7.5359  -7.3440  -7.2369  -7.1941  -7.0002  -6.9370
    -6.7993  -6.5417  -6.5262  -6.3633  -6.1792  -6.1048  -5.9000  -5.8728
    -5.7973  -5.6787  -5.5548  -5.4224  -5.2601  -5.1404  -5.1046  -4.9857
    -4.7345  -4.6341  -4.3919  -4.0153  -3.9300  -3.5515  -3.3154  -3.1192
    -2.8043  -2.7537   0.6060   0.6511   0.9546   1.1361   1.4390   1.8193
     1.8394   1.9131   2.1079   2.3605   2.6089   2.6971   2.7222   2.7831
     2.9009   2.9902   3.1438   3.3368   3.3435   3.4985   3.5416   3.6062
     3.8043   3.9504   4.2380   4.2504   4.3739   4.4177   4.4823   4.5022
     4.8919   5.0119   5.0262   5.1404   5.2488   5.3059   5.3397   5.3776
     5.4218   5.5707   5.7308   5.8504   5.8822   5.9466   5.9824   6.1270
     6.2060   6.3018   6.4089   6.4284   6.4803   6.6117   6.6755   6.7101
     6.8199   6.8614   6.8735   6.8979   6.9093   6.9464   6.9824   7.0365
     7.0708   7.1140   7.1539   7.2099   7.2415   7.3133   7.3840   7.4874
     7.5434   7.5796   7.6291   7.6608   7.6845   7.7673   7.7718   7.7978
     7.8556   7.9199   7.9580   8.0029   8.0679   8.1431   8.1620   8.2197
     8.2691   8.3149   8.3727   8.4065   8.4255   8.4642   8.4855   8.5383
     8.5926   8.6205   8.7136   8.7829   8.8457   8.8760   8.9327   8.9636
     9.0008   9.1353   9.1549   9.1775   9.2098   9.2425   9.3141   9.3696
     9.3760   9.4979   9.6033   9.7043   9.7730   9.8069   9.8430   9.9120
     9.9914  10.0764  10.0978  10.1312  10.1585  10.2114  10.2784  10.3686
    10.3736  10.4009  10.5306  10.5777  10.6093  10.6660  10.7055  10.7545
    10.8007  10.8488  10.9421  11.0337  11.0946  11.1998  11.2437  11.2809
    11.4322  11.4601  11.4718  11.5618  11.6061  11.6797  11.8203  11.8803
    11.9130  11.9422  11.9677  12.0112  12.0306  12.0549  12.1261  12.1380
[...]
     6.3648   6.3910   6.4900   6.5143   6.5499   6.5945   6.5977   6.6636
     6.6978   6.7451   6.7619   6.7674   6.8229   6.8600   6.9113   6.9404
     6.9506   6.9703   7.0674   7.0886   7.1846   7.2238   7.2681   7.3323
     7.3850   7.4190   7.4692   7.4763   7.5615   7.6255   7.6901   7.7495
     7.7580   7.8017   7.8467   7.8524   7.8859   7.9290   7.9850   8.1085
     8.1156   8.1774   8.2646   8.4609   8.5028   8.5448   8.6745   8.6945
     8.7320   8.8350   8.8561   8.9356   8.9907   9.0737   9.1134   9.1733
     9.2392   9.2650   9.3764   9.4147   9.4697   9.5263   9.5889   9.7913
     9.8439   9.8821   9.9243   9.9692  10.0187  10.0359  10.1002  10.1919
    10.2400  10.2733  10.3700  10.4709  10.4760  10.5071  10.5627  10.7195
    10.7745  10.8241  10.9136  10.9320  10.9710  10.9791  11.0482  11.0756
    11.1491  11.1772  11.2135  11.2953  11.3530  11.5067  11.5708  11.6104
    11.6153  11.6923  11.7594  11.7767  11.7867  11.8341  11.8837  11.9470
    12.0542  12.0770  12.0966  12.1497  12.2315  12.2381  12.3380  12.4270
    12.4535  12.4974  12.5448  12.5722  12.6660  12.6916  12.7490  12.7679
    12.8349  12.8850  12.9387  12.9848  13.0327  13.1004  13.1482  13.2530
    13.2969  13.3508  13.3710  13.4007  13.4462  13.5459  13.6153  13.7104
    13.7390  13.7625  13.8156  13.8665  13.9956  14.0197  14.0761  14.1237
    14.1793  14.2094  14.2190  14.2467  14.3669  14.4157  14.4404  14.5443
    14.5863  14.7644  14.7811  14.8527  14.8934  14.9134  14.9862  15.0200
    15.1393  15.1594  15.1716  15.2294  15.2407  15.2685  15.4193  15.4721
    15.5244  15.5903  15.6188  15.6681  15.7061  15.7712  15.8086  15.8778
    15.9047  16.0250  16.0872  16.1190  16.1718  16.2072  16.2144  16.3191
    16.3313  16.3703  16.4983  16.5625  16.6052  16.6283  16.6470  16.7118
    16.7601  16.8135  16.8249  16.9821  17.0393  17.0882  17.1220  17.1709
    17.2057  17.2319  17.3435  17.3675  17.3755  17.4044  17.4934  17.5151
    17.5576  17.6244  17.6885  17.7334  17.7381  17.7612  17.7969  17.8605
    17.8943  17.9147  17.9308  17.9953  18.0129  18.0364  18.0859  18.1670
    18.2652  18.3048  18.4394  18.4809  18.5624  18.5715  18.6661  18.7138
    18.7341  18.7855  18.8327  18.8726  18.8928  18.9596  19.0703  19.0940
    19.2214  19.2575  19.3003  19.3751  19.4123  19.4440  19.4802  19.5313
    19.5697  19.5961  19.7840  19.8206  19.8548  19.8652  19.8992  19.9408
    19.9508  20.0371  20.0487  20.0855  20.1255  20.1456  20.2468  20.2952
    20.4055  20.4584  20.4722  20.5529  20.6165  20.6234  20.6702  20.6966
    20.7297  20.7570  20.7624  20.7974  20.8213  20.8649  20.8992  20.9206
    20.9635  21.0980  21.1523  21.1850  21.2102  21.2215  21.2886  21.3034
    21.3348  21.3887  21.4176  21.4643  21.4880  21.5529  21.5686  21.6238
    21.6993  21.7249  21.7534  21.7711  21.7730  21.8242  21.8291  21.8517
    21.8748  21.9328  21.9577  21.9852  21.9947  21.9995  22.0335  22.0499
    22.0891  22.1417  22.1491  22.1809  22.2041  22.2664  22.3068  22.3491
    22.3714  22.4077  22.4716  22.5141  22.5255  22.5400  22.5694  22.5898
    22.5993  22.6580  22.6696  22.7324  22.7498  22.7855  22.8079  22.8422
    22.8726  22.9355  22.9491  22.9723  23.0120  23.0350  23.0653  23.0716
    23.0974  23.1437  23.1499  23.1756  23.1895  23.2487  23.2559  23.3108
    23.3804  23.3928  23.4104  23.4363

          k = 0.0000 0.0000 0.1080 ( 42028 PWs)   bands (ev):

   -25.0340 -25.0329 -24.1303 -24.1282 -19.2934 -19.2249 -19.0273 -18.8287
   -18.7827 -18.7039 -18.5672 -18.3257 -18.2589 -17.8837 -17.8310 -17.3998
   -17.2649 -16.8340 -16.6281 -16.2133 -15.9619 -15.6013 -15.4248 -14.1435
   -13.9534 -13.5723 -13.2971 -12.8607 -12.5985 -12.2843 -11.8810 -11.7583
   -11.4087 -11.2718 -11.1685 -10.7859 -10.3834  -9.9730  -9.6217  -9.2808
    -9.0969  -9.0545  -8.9777  -8.8037  -8.4798  -8.3719  -8.2021  -8.1039
    -8.0785  -7.9719  -7.9498  -7.9179  -7.7894  -7.7299  -7.5939  -7.5834
    -7.5056  -7.4599  -7.4176  -7.3702  -7.3337  -7.3098  -7.1424  -7.1362
    -7.0391  -7.0096  -6.9006  -6.7158  -6.6262  -6.5856  -6.5734  -6.5183
    -6.3941  -6.3622  -6.1526  -6.1014  -6.0661  -5.8704  -5.6584  -5.5653
    -5.2126  -5.1464  -4.7446  -4.6202  -4.2262  -4.0740  -3.7112  -3.5942
    -3.2089  -3.1685   0.7665   0.8526   1.1483   1.3661   1.7785   2.0465
     2.5124   2.7387   2.8680   3.0899   3.3335   3.4488   3.5358   3.6902
     3.8035   3.8637   3.9605   4.1164   4.1568   4.3220   4.3368   4.4031
     4.4914   4.5541   4.5846   4.6325   4.7855   4.8279   4.9304   4.9643
     5.0617   5.1155   5.1985   5.2500   5.2905   5.2959   5.3597   5.3748
     5.4719   5.5144   5.5331   5.5431   5.6936   5.7473   5.8778   5.9422
     5.9510   6.0498   6.0744   6.0989   6.1100   6.1790   6.1904   6.3247
     6.3650   6.4080   6.4668   6.4881   6.4986   6.5417   6.5631   6.6779
     6.6981   6.7080   6.7231   6.7531   6.7627   6.7991   6.8675   6.8780
     6.9698   6.9722   7.0204   7.0938   7.1390   7.1807   7.1918   7.2260
     7.3282   7.4002   7.4363   7.4792   7.5109   7.5254   7.6448   7.6663
     7.6909   7.7446   7.8315   7.9164   7.9380   7.9764   8.0318   8.1304
     8.1759   8.2082   8.3178   8.3783   8.4805   8.5511   8.5695   8.5861
     8.6170   8.7278   8.7472   8.9782   8.9975   9.0736   9.1150   9.2208
     9.2620   9.3418   9.4310   9.4461   9.5656   9.6206   9.6635   9.7649
     9.7816   9.8218   9.8564   9.9024   9.9273   9.9921  10.0931  10.1835
    10.2160  10.2466  10.2743  10.3228  10.4571  10.5144  10.5868  10.6610
    10.8258  10.8743  10.9140  10.9313  10.9496  11.0599  11.0928  11.1260
    11.2191  11.2602  11.3021  11.3170  11.3975  11.5085  11.5416  11.5812
    11.6347  11.6447  11.6687  11.7320  11.7554  11.8214  11.8438  11.9301
    11.9442  12.0315  12.0681  12.1144  12.1664  12.2645  12.3267  12.3867
    12.4152  12.4203  12.4816  12.5578  12.6059  12.6964  12.7934  12.8526
    12.9093  12.9412  13.0221  13.0602  13.1201  13.1352  13.1742  13.2275
    13.2338  13.3118  13.3733  13.4722  13.5125  13.6006  13.6095  13.6278
    13.6977  13.7217  13.7503  13.7748  13.9042  14.0006  14.0699  14.0763
    14.1055  14.1318  14.2492  14.2845  14.3795  14.3991  14.4285  14.5174
    14.6051  14.6974  14.7797  14.9009  14.9318  14.9586  15.0261  15.0700
    15.1148  15.1663  15.1864  15.2586  15.2708  15.2969  15.3766  15.4610
    15.5484  15.5608  15.5883  15.6707  15.7295  15.8005  15.8137  15.9145
    15.9547  16.0227  16.0927  16.1770  16.2252  16.2368  16.3211  16.3374
    16.3490  16.3859  16.4348  16.4772  16.5640  16.6266  16.6482  16.7235
    16.7586  16.8244  16.8462  16.8989  17.0289  17.0807  17.1524  17.1690
    17.2199  17.2410  17.2819  17.2962  17.4160  17.4219  17.5092  17.5212
    17.5561  17.5851  17.6903  17.7103  17.7285  17.7362  17.7708  17.8371
    17.8834  17.9039  17.9820  18.0051  18.0112  18.0558  18.1235  18.1536
    18.2638  18.3246  18.4004  18.5109  18.5539  18.6094  18.6566  18.6767
    18.7103  18.7521  18.7784  18.7846  18.8911  19.0060  19.0170  19.2416
    19.3044  19.3274  19.3415  19.4548  19.4838  19.5617  19.5746  19.6186
    19.7531  19.8247  19.8648  19.8842  19.9050  19.9126  20.0035  20.0344
    20.1028  20.1509  20.1959  20.2130  20.2880  20.3039  20.4115  20.4568
    20.5420  20.5536  20.5971  20.6480  20.7127  20.7433  20.7517  20.7603
    20.8375  20.8675  20.8878  20.8965  20.9214  20.9371  20.9859  21.0512
    21.1031  21.1288  21.1409  21.1898  21.2157  21.2224  21.2557  21.2719
    21.3376  21.3932  21.4402  21.4877  21.5257  21.5614  21.6081  21.6271
    21.6784  21.7246  21.7426  21.7686  21.7809  21.7997  21.8079  21.8485
    21.8814  21.9211  21.9245  22.0210  22.0724  22.1022  22.1255  22.1424
    22.1519  22.1767  22.2140  22.2376  22.2784  22.2840  22.3120  22.3196
    22.3352  22.3948  22.4296  22.4529  22.4772  22.5238  22.5269  22.6233
    22.6357  22.6754  22.7053  22.7140  22.7313  22.7723  22.7875  22.8090
    22.8334  22.8431  22.8490  22.8667  22.8858  22.9426  22.9647  22.9849
    23.0579  23.0942  23.1256  23.1560  23.1848  23.2199  23.2834  23.3379
    23.3514  23.3956  23.4488  23.4539

          k = 0.0000 0.0000 0.1127 ( 42080 PWs)   bands (ev):

   -25.0217 -25.0206 -24.1457 -24.1437 -19.1851 -19.1190 -18.9615 -18.9146
   -18.8805 -18.6853 -18.6151 -18.3788 -18.2227 -17.9865 -17.7436 -17.5063
   -17.1738 -16.9375 -16.5414 -16.3091 -15.8902 -15.6721 -15.4053 -14.1721
   -13.9130 -13.6300 -13.2484 -12.9053 -12.5503 -12.3032 -11.8409 -11.7674
   -11.4237 -11.3192 -11.1355 -10.8284 -10.3530  -9.9936  -9.5865  -9.2198
    -9.0205  -8.8405  -8.7988  -8.7180  -8.4863  -8.3535  -8.2885  -8.1998
    -8.1559  -8.1546  -7.8145  -7.8101  -7.7222  -7.6528  -7.5564  -7.5131
    -7.5005  -7.4899  -7.4791  -7.4480  -7.4385  -7.4334  -7.2391  -7.0292
    -6.9493  -6.9486  -6.8355  -6.7620  -6.7190  -6.6586  -6.6063  -6.4477
    -6.4194  -6.3844  -6.2281  -6.1576  -6.0740  -5.8764  -5.7198  -5.5123
    -5.3170  -5.0547  -4.8513  -4.5367  -4.3203  -4.0159  -3.7754  -3.5743
    -3.2322  -3.1701   0.7571   0.8865   1.1003   1.4480   1.6903   2.1650
     2.4004   2.8491   2.9908   3.1694   3.2241   3.4249   3.5591   3.7516
     3.8375   3.9827   4.0148   4.0966   4.1638   4.2753   4.2922   4.4173
     4.5054   4.5295   4.6932   4.7415   4.7825   4.8457   4.9058   4.9329
     5.0401   5.1125   5.1270   5.1839   5.2785   5.3893   5.4310   5.5066
     5.5381   5.5763   5.6256   5.6364   5.6605   5.7294   5.8198   5.8497
     5.8880   5.9797   6.0118   6.0622   6.1618   6.1765   6.2052   6.2709
     6.3589   6.4325   6.4571   6.4730   6.4932   6.5058   6.5200   6.5658
     6.6086   6.6473   6.6924   6.7602   6.7854   6.8273   6.8672   6.9066
     6.9116   6.9837   7.0155   7.1065   7.1319   7.1757   7.1824   7.2139
     7.2840   7.3562   7.3895   7.4082   7.4322   7.4605   7.5830   7.6248
     7.6647   7.7165   7.8524   7.9328   7.9907   8.0516   8.1236   8.1766
     8.2342   8.2478   8.3031   8.3892   8.4050   8.4489   8.4873   8.5252
     8.5737   8.6309   8.7420   8.8681   8.9854   9.0902   9.1967   9.2725
     9.3487   9.4140   9.4392   9.4868   9.5860   9.6742   9.7061   9.7210
     9.7789   9.7904   9.8231   9.8952   9.9144   9.9264   9.9823  10.0727
    10.1412  10.1615  10.3172  10.4048  10.4789  10.5223  10.6203  10.6610
    10.7272  10.7673  10.7998  11.0197  11.0294  11.1173  11.1556  11.2198
    11.2466  11.3437  11.3825  11.4028  11.4553  11.5000  11.5017  11.5173
    11.5265  11.5994  11.6584  11.7309  11.7535  11.7742  11.8103  11.9196
    11.9400  11.9887  12.0352  12.1060  12.1586  12.2184  12.2718  12.3181
    12.3477  12.3759  12.4530  12.5114  12.6741  12.7723  12.8385  12.9015
    12.9696  13.0309  13.0447  13.0850  13.1120  13.1297  13.1494  13.2499
    13.2641  13.3111  13.3797  13.4827  13.5069  13.5412  13.5810  13.6410
    13.6611  13.7023  13.7771  13.7958  13.8358  13.9241  13.9852  14.0039
    14.0839  14.1528  14.2540  14.2680  14.3721  14.4207  14.4575  14.5624
    14.6205  14.6477  14.7887  14.8951  14.9665  14.9843  15.0197  15.0970
    15.0993  15.1490  15.1971  15.2639  15.2830  15.3246  15.4137  15.4461
    15.4772  15.5642  15.6157  15.6874  15.7891  15.8247  15.8365  15.9068
    15.9694  16.0088  16.0712  16.1753  16.1898  16.2842  16.3552  16.3563
    16.4104  16.4386  16.4591  16.4944  16.5435  16.6044  16.6198  16.7150
    16.7648  16.8156  16.8262  16.8472  17.0274  17.0539  17.0858  17.1463
    17.1984  17.2695  17.2912  17.3586  17.4358  17.4445  17.4929  17.5081
    17.5648  17.5959  17.6164  17.6529  17.6790  17.7289  17.8051  17.8511
    17.8735  17.8796  17.9243  18.0283  18.0814  18.1000  18.1881  18.2130
    18.2611  18.3329  18.3511  18.4555  18.5095  18.5506  18.5634  18.6028
    18.6575  18.7613  18.7988  18.8653  18.9430  18.9942  19.0413  19.2477
    19.3134  19.3650  19.4011  19.5093  19.5501  19.6305  19.6515  19.7163
    19.7530  19.8191  19.8540  19.9173  19.9974  20.0769  20.1696  20.2101
    20.2553  20.2710  20.3441  20.3806  20.4110  20.4396  20.4633  20.5239
    20.6083  20.6277  20.6515  20.7281  20.7423  20.7647  20.8048  20.8951
    20.9433  20.9504  20.9534  20.9680  21.0052  21.0445  21.0672  21.0950
    21.1178  21.1398  21.1590  21.1883  21.2168  21.2309  21.2536  21.2846
    21.3246  21.3416  21.3429  21.4167  21.4892  21.5052  21.5303  21.6010
    21.6594  21.7311  21.7746  21.8132  21.8252  21.8381  21.8544  21.8739
    21.9053  21.9261  21.9413  21.9712  21.9813  22.0360  22.1225  22.1600
    22.1740  22.1902  22.2167  22.2539  22.2796  22.2922  22.3273  22.3486
    22.3803  22.4013  22.4339  22.4362  22.4548  22.5060  22.5589  22.5746
    22.5864  22.6254  22.6504  22.6788  22.7174  22.7185  22.7684  22.8057
    22.8356  22.8857  22.8960  22.9054  22.9292  22.9297  22.9758  23.0072
    23.0187  23.0511  23.1096  23.1390  23.1917  23.2347  23.2805  23.3355
    23.3515  23.3873  23.4043  23.4702

          k = 0.0000 0.0000-0.1174 ( 42048 PWs)   bands (ev):

   -25.0175 -25.0164 -24.1509 -24.1489 -19.0844 -19.0617 -19.0280 -18.9774
   -18.8353 -18.7675 -18.5470 -18.4535 -18.1540 -18.0603 -17.6773 -17.5769
   -17.1113 -17.0037 -16.4857 -16.3677 -15.8505 -15.7114 -15.3985 -14.1820
   -13.8944 -13.6543 -13.2283 -12.9245 -12.5292 -12.3149 -11.8132 -11.7824
   -11.4283 -11.3371 -11.1204 -10.8467 -10.3405 -10.0032  -9.5740  -9.2013
    -8.9923  -8.8023  -8.6300  -8.6158  -8.4751  -8.4610  -8.3224  -8.3199
    -8.1910  -8.1882  -7.7120  -7.6712  -7.6633  -7.6366  -7.6217  -7.5622
    -7.5506  -7.5180  -7.4889  -7.4709  -7.4643  -7.3990  -7.3197  -6.9325
    -6.9314  -6.8725  -6.8401  -6.8086  -6.7929  -6.6826  -6.6138  -6.4325
    -6.4292  -6.3247  -6.3184  -6.1309  -6.1250  -5.8242  -5.7926  -5.4287
    -5.4085  -4.9703  -4.9402  -4.4817  -4.3789  -3.9874  -3.8060  -3.5668
    -3.2407  -3.1705   0.7539   0.9021   1.0800   1.4951   1.6412   2.2722
     2.2949   2.9010   3.0778   3.1405   3.2023   3.3752   3.5922   3.7436
     3.9589   3.9708   4.0131   4.0953   4.1777   4.2334   4.2890   4.3300
     4.5729   4.6325   4.6554   4.7612   4.8179   4.8607   4.8835   4.8842
     4.9729   5.1302   5.1566   5.1769   5.3161   5.3302   5.4482   5.5526
     5.5735   5.6408   5.6411   5.6680   5.7184   5.7531   5.7687   5.8402
     5.8514   5.8976   5.9239   6.1002   6.1474   6.2117   6.2512   6.2930
     6.3578   6.3790   6.4093   6.4260   6.4392   6.4734   6.5200   6.5917
     6.6293   6.6568   6.6954   6.7378   6.7498   6.8707   6.8856   6.8888
     6.9015   6.9651   6.9798   7.1060   7.1609   7.2064   7.2416   7.2557
     7.2748   7.2807   7.2853   7.3932   7.4126   7.4626   7.4972   7.6360
     7.6431   7.7424   7.8628   7.9403   7.9792   8.1067   8.1939   8.2259
     8.2537   8.2596   8.3023   8.3050   8.3797   8.4334   8.4506   8.5154
     8.5262   8.6216   8.7632   8.8011   8.9641   9.1067   9.2222   9.3177
     9.4158   9.4189   9.4697   9.4963   9.5556   9.5723   9.7396   9.7720
     9.7921   9.8364   9.8528   9.8723   9.8754   9.9130   9.9733   9.9971
    10.0441  10.1241  10.3747  10.4219  10.5378  10.5627  10.6218  10.6263
    10.6851  10.7107  10.7496  11.0644  11.0750  11.0877  11.1640  11.3294
    11.3414  11.3520  11.3585  11.3999  11.4141  11.4157  11.4859  11.5600
    11.6238  11.6432  11.6438  11.6650  11.7135  11.7147  11.7819  11.8957
    11.9999  12.0127  12.0446  12.1040  12.1239  12.1568  12.2244  12.3129
    12.3507  12.3544  12.4165  12.5149  12.7039  12.8444  12.8695  12.9193
    12.9406  13.0231  13.0477  13.1021  13.1124  13.1365  13.1541  13.2624
    13.2733  13.3506  13.3792  13.4403  13.4807  13.5083  13.5776  13.6201
    13.7067  13.7249  13.7705  13.8189  13.8338  13.8836  13.9256  13.9627
    14.0763  14.1777  14.2500  14.2614  14.3632  14.4064  14.4783  14.6173
    14.6220  14.6361  14.7951  14.8734  14.9803  14.9815  14.9976  15.1053
    15.1187  15.1215  15.2425  15.2607  15.2911  15.3234  15.3609  15.4523
    15.5066  15.5628  15.6459  15.6667  15.8213  15.8236  15.9053  15.9157
    15.9485  15.9795  16.0065  16.1283  16.2360  16.3402  16.3446  16.3856
    16.4180  16.4378  16.4756  16.5081  16.5644  16.5896  16.6106  16.7290
    16.7359  16.8019  16.8238  16.8594  16.9445  17.0784  17.0871  17.0965
    17.2126  17.2690  17.3132  17.3980  17.4508  17.4685  17.4901  17.5141
    17.5192  17.5847  17.6106  17.6397  17.6504  17.7095  17.7976  17.8586
    17.8659  17.8942  17.9574  17.9619  18.1385  18.1469  18.2062  18.2218
    18.2734  18.3357  18.3727  18.4263  18.4704  18.4776  18.5270  18.5559
    18.6658  18.7557  18.8336  18.8626  18.9129  19.0273  19.1486  19.2026
    19.2960  19.3644  19.4006  19.4863  19.6180  19.6655  19.7041  19.7183
    19.7320  19.7864  19.9336  20.0356  20.0739  20.1071  20.1526  20.1969
    20.2780  20.2933  20.3415  20.4505  20.4551  20.5742  20.5822  20.6428
    20.6531  20.6765  20.6940  20.7415  20.7730  20.8097  20.8247  20.8608
    20.9101  20.9341  20.9475  20.9888  20.9921  21.0192  21.0295  21.0688
    21.0847  21.1211  21.1473  21.1971  21.2420  21.2843  21.3131  21.3291
    21.3525  21.3988  21.4408  21.4534  21.4738  21.5157  21.5193  21.5204
    21.5703  21.6186  21.6353  21.7731  21.8521  21.8571  21.8838  21.8899
    21.9202  21.9623  22.0109  22.0111  22.0318  22.0788  22.1139  22.1224
    22.1441  22.1766  22.1961  22.2234  22.2668  22.2945  22.3054  22.3195
    22.3644  22.3794  22.4124  22.4208  22.4451  22.4639  22.4715  22.5265
    22.6197  22.6576  22.6945  22.6962  22.7317  22.7536  22.7873  22.8099
    22.8334  22.8785  22.8875  22.9021  22.9371  22.9496  23.0060  23.0406
    23.0596  23.0901  23.1706  23.1942  23.2206  23.2595  23.2682  23.2767
    23.3139  23.4040  23.4285  23.4347

     the Fermi energy is    -1.0533 ev

     Writing output data file AGNR_OH_19.save/

     init_run     :      9.16s CPU      9.27s WALL (       1 calls)
     electrons    :   2295.08s CPU   2308.79s WALL (       1 calls)

     Called by init_run:
     wfcinit      :      0.00s CPU      0.00s WALL (       1 calls)
     potinit      :      0.41s CPU      0.44s WALL (       1 calls)
     hinit0       :      8.01s CPU      8.04s WALL (       1 calls)

     Called by electrons:
     c_bands      :   2295.06s CPU   2307.31s WALL (       1 calls)
     v_of_rho     :      0.32s CPU      0.33s WALL (       1 calls)
     newd         :      0.24s CPU      0.28s WALL (       1 calls)

     Called by c_bands:
     init_us_2    :      0.14s CPU      0.15s WALL (      26 calls)
     cegterg      :   2239.77s CPU   2250.79s WALL (      26 calls)

     Called by sum_band:

     Called by *egterg:
     h_psi        :    377.94s CPU    382.63s WALL (     539 calls)
     s_psi        :     32.97s CPU     32.99s WALL (     539 calls)
     g_psi        :      3.00s CPU      3.00s WALL (     487 calls)
     cdiaghg      :   1288.02s CPU   1288.97s WALL (     513 calls)

     Called by h_psi:
     h_psi:pot    :    376.63s CPU    380.88s WALL (     539 calls)
     h_psi:calbec :     34.44s CPU     34.87s WALL (     539 calls)
     vloc_psi     :    309.36s CPU    313.16s WALL (     539 calls)
     add_vuspsi   :     32.82s CPU     32.85s WALL (     539 calls)

     General routines
     calbec       :     34.44s CPU     34.87s WALL (     539 calls)
     fft          :      0.35s CPU      0.37s WALL (      14 calls)
     ffts         :      0.01s CPU      0.01s WALL (       1 calls)
     fftw         :    282.71s CPU    286.23s WALL (  329018 calls)
     interpolate  :      0.03s CPU      0.03s WALL (       1 calls)
     davcio       :      0.01s CPU      0.74s WALL (      52 calls)

     Parallel routines
     fft_scatt_xy :     41.79s CPU     42.35s WALL (  329033 calls)
     fft_scatt_yz :     98.63s CPU    100.06s WALL (  329033 calls)

     PWSCF        : 38m39.78s CPU    40m51.48s WALL


   This run was terminated on:  22:57:22  21Apr2021            

=------------------------------------------------------------------------------=
   JOB DONE.
=------------------------------------------------------------------------------=
