
     Program PWSCF v.6.3 starts on  2Jan2022 at 17:39:43 

     This program is part of the open-source Quantum ESPRESSO suite
     for quantum simulation of materials; please cite
         "P. Giannozzi et al., J. Phys.:Condens. Matter 21 395502 (2009);
         "P. Giannozzi et al., J. Phys.:Condens. Matter 29 465901 (2017);
          URL http://www.quantum-espresso.org", 
     in publications or presentations arising from this work. More details at
     http://www.quantum-espresso.org/quote

     Parallel version (MPI), running on    16 processors
     R & G space division:  proc/nbgrp/npool/nimage =      16
     Waiting for input...
     Reading input from standard input
     Message from routine read_cards :
     DEPRECATED: no units specified in CELL_PARAMETERS card

     Current dimensions of program PWSCF are:
     Max number of different atomic species (ntypx) = 10
     Max number of k-points (npk) =  40000
     Max angular momentum in pseudopotentials (lmaxx) =  3

     Atomic positions and unit cell read from directory:
     /home/zfwang/scratch/GNRDATASET/AGNR/AGNR_OH_20/AGNR_OH_20.save/


     Subspace diagonalization in iterative solution of the eigenvalue problem:
     a serial algorithm will be used


     Parallelization info
     --------------------
     sticks:   dense  smooth     PW     G-vecs:    dense   smooth      PW
     Min        3021    1006    283               113129    21771    3259
     Max        3023    1008    285               113130    21772    3260
     Sum       48345   16117   4551              1810065   348349   52151



     bravais-lattice index     =            0
     lattice parameter (alat)  =       1.8897  a.u.
     unit-cell volume          =   10194.0071 (a.u.)^3
     number of atoms/cell      =           48
     number of atomic types    =            3
     number of electrons       =       188.00
     number of Kohn-Sham states=          500
     kinetic-energy cutoff     =      40.0000  Ry
     charge density cutoff     =     480.0000  Ry
     Exchange-correlation      = PBE ( 1  4  3  4 0 0)

     celldm(1)=  18.897261  celldm(2)=   3.546000  celldm(3)=   0.426000
     celldm(4)=   0.000000  celldm(5)=   0.000000  celldm(6)=   0.000000

     crystal axes: (cart. coord. in units of alat)
               a(1) = (  10.000000   0.000000   0.000000 )  
               a(2) = (   0.000000  35.460000   0.000000 )  
               a(3) = (   0.000000   0.000000   4.260000 )  

     reciprocal axes: (cart. coord. in units 2 pi/alat)
               b(1) = (  0.100000  0.000000  0.000000 )  
               b(2) = (  0.000000  0.028201  0.000000 )  
               b(3) = (  0.000000  0.000000  0.234742 )  


     PseudoPot. # 1 for C  read from file:
     /home/zfwang/hp_home/MySoftware/qe-6.3/pseudo/C.pbe-n-rrkjus_psl.0.1.UPF
     MD5 check sum: fff530ed632a789b3b184014e67dd7f1
     Pseudo is Ultrasoft + core correction, Zval =  4.0
     Generated using "atomic" code by A. Dal Corso v.5.0.2 svn rev. 9415
     Using radial grid of 1073 points,  4 beta functions with: 
                l(1) =   0
                l(2) =   0
                l(3) =   1
                l(4) =   1
     Q(r) pseudized with 0 coefficients 


     PseudoPot. # 2 for O  read from file:
     /home/zfwang/hp_home/MySoftware/qe-6.3/pseudo/O.pbe-n-rrkjus_psl.0.1.UPF
     MD5 check sum: 73b3d1dec572cf22214b1d95c6304b69
     Pseudo is Ultrasoft + core correction, Zval =  6.0
     Generated using "atomic" code by A. Dal Corso v.6.3MaX
     Using radial grid of 1095 points,  4 beta functions with: 
                l(1) =   0
                l(2) =   0
                l(3) =   1
                l(4) =   1
     Q(r) pseudized with 0 coefficients 


     PseudoPot. # 3 for H  read from file:
     /home/zfwang/hp_home/MySoftware/qe-6.3/pseudo/H.pbe-rrkjus_psl.0.1.UPF
     MD5 check sum: e164a6907b691c6980f16942be34de84
     Pseudo is Ultrasoft, Zval =  1.0
     Generated using "atomic" code by A. Dal Corso v.5.0.2 svn rev. 9415
     Using radial grid of  929 points,  2 beta functions with: 
                l(1) =   0
                l(2) =   0
     Q(r) pseudized with 0 coefficients 


     atomic species   valence    mass     pseudopotential
        C              4.00    12.01070     C ( 1.00)
        O              6.00    18.99840     O ( 1.00)
        H              1.00     1.00794     H ( 1.00)

     No symmetry found



   Cartesian axes

     site n.     atom                  positions (alat units)
         1           C   tau(   1) = (   4.8001534   6.0671577   2.8023073  )
         2           C   tau(   2) = (   4.9407406   7.2477825   3.5495389  )
         3           C   tau(   3) = (   5.1430904   6.0853163   1.4678516  )
         4           C   tau(   4) = (   5.0073982   8.4815986   2.8372520  )
         5           C   tau(   5) = (   5.0154689   9.7176912   3.5498525  )
         6           C   tau(   6) = (   5.0429297   7.2517038   0.7086934  )
         7           C   tau(   7) = (   4.9960875   8.4846584   1.4221530  )
         8           C   tau(   8) = (   5.0096150  10.9475518   2.8412908  )
         9           C   tau(   9) = (   5.0032075  12.1809723   3.5495559  )
        10           C   tau(  10) = (   4.9935587   9.7187514   0.7089979  )
        11           C   tau(  11) = (   4.9985974  10.9482040   1.4172402  )
        12           C   tau(  12) = (   4.9988283  13.4160312   2.8396354  )
        13           C   tau(  13) = (   4.9979646  14.6475591   3.5472421  )
        14           C   tau(  14) = (   5.0005654  12.1815537   0.7089073  )
        15           C   tau(  15) = (   5.0005640  13.4164131   1.4185298  )
        16           C   tau(  16) = (   4.9992589  15.8808652   2.8369624  )
        17           C   tau(  17) = (   5.0000425  17.1151651   3.5443198  )
        18           C   tau(  18) = (   5.0000606  14.6478957   0.7097189  )
        19           C   tau(  19) = (   4.9997546  15.8815369   1.4173225  )
        20           C   tau(  20) = (   4.9997837  18.3463456   2.8341620  )
        21           C   tau(  21) = (   5.0000231  19.5802081   3.5428479  )
        22           C   tau(  22) = (   4.9999275  17.1148530   0.7059170  )
        23           C   tau(  23) = (   5.0000426  18.3468637   1.4124968  )
        24           C   tau(  24) = (   5.0014055  20.8138580   2.8348424  )
        25           C   tau(  25) = (   5.0015815  22.0447077   3.5443333  )
        26           C   tau(  26) = (   4.9995130  19.5805225   0.7026418  )
        27           C   tau(  27) = (   4.9989945  20.8134330   1.4123607  )
        28           C   tau(  28) = (   4.9979213  23.2795586   2.8348172  )
        29           C   tau(  29) = (   4.9922398  24.5128978   3.5429652  )
        30           C   tau(  30) = (   4.9995343  22.0451471   0.7052784  )
        31           C   tau(  31) = (   5.0009406  23.2794403   1.4157086  )
        32           C   tau(  32) = (   4.9889323  25.7420622   2.8340311  )
        33           C   tau(  33) = (   4.9984789  26.9779795   3.5460222  )
        34           C   tau(  34) = (   5.0043029  24.5120875   0.7069521  )
        35           C   tau(  35) = (   5.0113845  25.7414270   1.4148892  )
        36           C   tau(  36) = (   5.0588577  28.2112851   2.8325103  )
        37           C   tau(  37) = (   5.1882801  29.3926105   3.5793290  )
        38           C   tau(  38) = (   5.0087637  26.9748703   0.7009515  )
        39           C   tau(  39) = (   4.9542750  28.2077829   1.4136149  )
        40           C   tau(  40) = (   4.8432196  29.3729142   0.6532567  )
        41           O   tau(  41) = (   4.4055227   4.8175798   3.1856669  )
        42           O   tau(  42) = (   5.5308285   4.8315025   1.0130476  )
        43           O   tau(  43) = (   4.4504270  30.6259655   1.1066531  )
        44           O   tau(  44) = (   5.5786496  30.6428912   3.1933890  )
        45           H   tau(  45) = (   4.7915365   4.6058607   4.1025435  )
        46           H   tau(  46) = (   5.2698099   4.2540771   1.7847360  )
        47           H   tau(  47) = (   4.7092473  31.1998936   0.3311782  )
        48           H   tau(  48) = (   5.1936910  30.8529586   2.2755012  )

     number of k points=    26  Marzari-Vanderbilt smearing, width (Ry)=  0.0100
                       cart. coord. in units 2pi/alat
        k(    1) = (   0.0000000   0.0000000   0.0000000), wk =   0.0400000
        k(    2) = (   0.0000000   0.0000000   0.0046948), wk =   0.0800000
        k(    3) = (   0.0000000   0.0000000   0.0093897), wk =   0.0800000
        k(    4) = (   0.0000000   0.0000000   0.0140845), wk =   0.0800000
        k(    5) = (   0.0000000   0.0000000   0.0187793), wk =   0.0800000
        k(    6) = (   0.0000000   0.0000000   0.0234742), wk =   0.0800000
        k(    7) = (   0.0000000   0.0000000   0.0281690), wk =   0.0800000
        k(    8) = (   0.0000000   0.0000000   0.0328638), wk =   0.0800000
        k(    9) = (   0.0000000   0.0000000   0.0375587), wk =   0.0800000
        k(   10) = (   0.0000000   0.0000000   0.0422535), wk =   0.0800000
        k(   11) = (   0.0000000   0.0000000   0.0469484), wk =   0.0800000
        k(   12) = (   0.0000000   0.0000000   0.0516432), wk =   0.0800000
        k(   13) = (   0.0000000   0.0000000   0.0563380), wk =   0.0800000
        k(   14) = (   0.0000000   0.0000000   0.0610329), wk =   0.0800000
        k(   15) = (   0.0000000   0.0000000   0.0657277), wk =   0.0800000
        k(   16) = (   0.0000000   0.0000000   0.0704225), wk =   0.0800000
        k(   17) = (   0.0000000   0.0000000   0.0751174), wk =   0.0800000
        k(   18) = (   0.0000000   0.0000000   0.0798122), wk =   0.0800000
        k(   19) = (   0.0000000   0.0000000   0.0845070), wk =   0.0800000
        k(   20) = (   0.0000000   0.0000000   0.0892019), wk =   0.0800000
        k(   21) = (   0.0000000   0.0000000   0.0938967), wk =   0.0800000
        k(   22) = (   0.0000000   0.0000000   0.0985915), wk =   0.0800000
        k(   23) = (   0.0000000   0.0000000   0.1032864), wk =   0.0800000
        k(   24) = (   0.0000000   0.0000000   0.1079812), wk =   0.0800000
        k(   25) = (   0.0000000   0.0000000   0.1126761), wk =   0.0800000
        k(   26) = (   0.0000000   0.0000000  -0.1173709), wk =   0.0400000

     Dense  grid:  1810065 G-vectors     FFT dimensions: ( 135, 480,  60)

     Smooth grid:   348349 G-vectors     FFT dimensions: (  80, 270,  36)

     Estimated max dynamical RAM per process >     510.85 MB

     Estimated total dynamical RAM >       7.98 GB

     Check: negative/imaginary core charge=   -0.000005    0.000000

     The potential is recalculated from file :
     /home/zfwang/scratch/GNRDATASET/AGNR/AGNR_OH_20/AGNR_OH_20.save/charge-density.dat


     negative rho (up, down):  9.199E-04 0.000E+00
     Starting wfcs are  180 randomized atomic wfcs +  320 random wfcs

     Band Structure Calculation
     Davidson diagonalization with overlap

     ethr =  5.32E-09,  avg # of iterations = 18.8

     total cpu time spent up to now is     2547.8 secs

     End of band structure calculation

          k = 0.0000 0.0000 0.0000 ( 43429 PWs)   bands (ev):

   -25.5791 -25.5779 -23.3131 -23.3111 -20.5115 -20.4424 -20.2586 -19.9794
   -19.6126 -19.1641 -18.6357 -18.0231 -17.3543 -16.6454 -15.9431 -15.3570
   -15.2727 -15.2333 -15.0939 -14.9229 -14.8613 -14.5507 -14.5453 -14.2097
   -14.1987 -14.1581 -13.9665 -13.9252 -13.7401 -13.5859 -13.5665 -13.2579
   -12.8418 -12.5722 -12.2806 -11.8935 -11.7978 -11.6999 -11.3332 -11.1747
   -11.0466 -10.8344 -10.5077 -10.3123 -10.2632  -9.7641  -9.6462  -9.6227
    -9.0805  -9.0297  -8.9895  -8.8434  -8.7391  -8.5288  -8.4490  -8.3746
    -8.2981  -8.1288  -7.9985  -7.8779  -7.8537  -7.6260  -7.6089  -7.4858
    -7.2148  -7.1176  -7.0466  -6.6523  -6.5692  -6.3603  -6.1732  -5.9705
    -5.7260  -5.7080  -5.3230  -5.2966  -5.2745  -4.8753  -4.7281  -4.5809
    -4.4511  -4.2487  -4.1401  -3.8159  -3.2920  -3.1713  -3.0314  -2.9305
    -2.5841  -2.2548  -2.1427  -1.6179  -1.5295  -1.0086  -0.8781  -0.3825
    -0.2955  -0.0281   0.2401   0.4517   0.4710   0.6023   0.6912   1.1495
     1.3098   1.3963   2.0061   2.1123   2.2176   2.2486   2.6427   2.6841
     2.8785   2.9375   3.0748   3.2555   3.2872   3.6032   3.6062   3.6398
     3.8240   3.8785   3.9637   4.1717   4.3571   4.4160   4.6263   4.6329
     4.7516   4.7579   4.9395   5.1304   5.1368   5.1848   5.1861   5.4951
     5.7530   5.9443   5.9813   6.0645   6.0817   6.1688   6.2467   6.5132
     6.6764   6.7118   6.7460   6.8941   6.9412   6.9857   7.1733   7.2352
     7.2951   7.3476   7.3511   7.3633   7.4606   7.4997   7.5268   7.5677
     7.5941   7.6915   7.7216   7.9012   7.9777   8.1216   8.2283   8.2419
     8.3015   8.3043   8.3799   8.4673   8.6416   8.7575   8.7791   8.9332
     9.0183   9.0388   9.0612   9.0905   9.2396   9.3167   9.3804   9.4236
     9.5358   9.5378   9.5463   9.6595   9.6884   9.6978   9.7003   9.7957
     9.8049   9.8469   9.9043   9.9454   9.9693   9.9741  10.0093  10.0246
    10.0410  10.0688  10.0793  10.1529  10.1818  10.2243  10.2558  10.3178
    10.3322  10.3653  10.3709  10.4552  10.4839  10.5281  10.5508  10.5787
    10.6472  10.6588  10.7049  10.8321  10.8851  10.8865  10.9263  10.9829
    10.9918  11.0175  11.0399  11.1427  11.1864  11.2026  11.2319  11.2371
    11.2757  11.2818  11.3049  11.3542  11.3876  11.4044  11.4436  11.4632
    11.4792  11.5182  11.5347  11.5590  11.6465  11.6648  11.6736  11.6890
    11.7152  11.7355  11.7929  11.8070  11.8904  11.8935  11.8979  11.9145
    11.9442  11.9796  11.9881  12.0408  12.1064  12.1344  12.1635  12.2255
    12.2519  12.2525  12.2679  12.2777  12.3091  12.4395  12.4699  12.5260
    12.5488  12.5975  12.6046  12.6212  12.7180  12.7466  12.8273  12.8289
    12.9026  12.9338  12.9603  12.9940  12.9969  13.0481  13.0820  13.1175
    13.1602  13.1905  13.2187  13.2978  13.3133  13.3388  13.3991  13.4176
    13.5420  13.5715  13.6372  13.7071  13.8598  13.9219  14.0101  14.0543
    14.0815  14.1307  14.1663  14.2030  14.2187  14.2409  14.2953  14.3441
    14.3611  14.3843  14.4647  14.5488  14.5836  14.5847  14.6158  14.6305
    14.6929  14.7953  14.8663  14.9107  15.0115  15.0478  15.0539  15.0767
    15.1630  15.2252  15.3020  15.3457  15.3813  15.4715  15.4905  15.5278
    15.5382  15.5692  15.5708  15.7195  15.7489  15.7685  15.7731  15.9098
    15.9706  16.0003  16.0475  16.0720  16.0824  16.1235  16.1696  16.1832
    16.2542  16.3348  16.3404  16.3928  16.4026  16.4227  16.4456  16.4802
    16.5902  16.6341  16.6514  16.6914  16.7291  16.7672  16.8429  16.9100
    16.9340  16.9516  17.0156  17.0535  17.1013  17.1532  17.1731  17.1897
    17.1944  17.3515  17.3652  17.4447  17.4473  17.4765  17.4934  17.5880
    17.6046  17.6835  17.6850  17.7071  17.8125  17.8464  17.9461  17.9604
    17.9783  18.0007  18.0495  18.0545  18.0806  18.1149  18.1859  18.2130
    18.2464  18.3105  18.3358  18.3773  18.4046  18.4393  18.4456  18.4755
    18.4855  18.5720  18.5789  18.5887  18.6218  18.6475  18.6815  18.6985
    18.7084  18.7148  18.7830  18.8088  18.8411  18.8481  18.9384  18.9896
    18.9984  19.0069  19.1493  19.1817  19.2326  19.2886  19.3484  19.4099
    19.4429  19.4680  19.5462  19.5792  19.6508  19.6626  19.6651  19.6971
    19.7230  19.7419  19.7623  19.8344  19.8893  19.9980  20.0640  20.1035
    20.1510  20.1656  20.3126  20.4321  20.4413  20.4540  20.4870  20.5676
    20.5814  20.6348  20.7205  20.7728  20.8202  20.8738  20.8901  20.9706
    21.0704  21.1161  21.1514  21.2069  21.2491  21.3508  21.3678  21.3871
    21.3980  21.4400  21.4484  21.4551  21.5801  21.5967  21.6163  21.6368
    21.6662  21.6677  21.6931  21.7674  21.7762  21.7972  21.8367  21.8693
    21.8820  21.9771  21.9962  22.0106  22.0417  22.0779  22.1069  22.1207
    22.1381  22.1848  22.1866  22.2453

          k = 0.0000 0.0000 0.0047 ( 43437 PWs)   bands (ev):

   -25.5777 -25.5765 -23.3157 -23.3137 -20.5092 -20.4401 -20.2562 -19.9770
   -19.6103 -19.1618 -18.6334 -18.0208 -17.3521 -16.6434 -15.9420 -15.3823
   -15.3047 -15.2738 -15.1258 -14.9553 -14.8537 -14.6029 -14.5112 -14.2127
   -14.1663 -14.1484 -13.9486 -13.8979 -13.7573 -13.5541 -13.5020 -13.2634
   -12.8495 -12.5771 -12.2849 -11.8898 -11.7947 -11.7014 -11.3201 -11.1705
   -11.0543 -10.8205 -10.5053 -10.3209 -10.2517  -9.7577  -9.6540  -9.6164
    -9.0872  -9.0168  -8.9893  -8.8421  -8.7390  -8.5266  -8.4504  -8.3669
    -8.2951  -8.1308  -7.9981  -7.8835  -7.8466  -7.6243  -7.6060  -7.4817
    -7.2216  -7.1147  -7.0439  -6.6481  -6.5653  -6.3708  -6.1681  -5.9684
    -5.7279  -5.7083  -5.3444  -5.2790  -5.2730  -4.8855  -4.7283  -4.5792
    -4.4591  -4.2525  -4.1488  -3.8146  -3.3079  -3.1876  -3.0315  -2.9473
    -2.6022  -2.2587  -2.1625  -1.6484  -1.5402  -1.1168  -0.7709  -0.3550
    -0.2841  -0.0065   0.2603   0.4708   0.4719   0.6219   0.7107   1.1525
     1.3072   1.3998   2.0094   2.1125   2.2163   2.2519   2.6455   2.6872
     2.8816   2.9405   3.0713   3.2582   3.2903   3.6055   3.6088   3.6430
     3.8271   3.8816   3.9604   4.1740   4.3603   4.4191   4.6293   4.6351
     4.7541   4.7609   4.9362   5.1330   5.1395   5.1863   5.1898   5.4942
     5.7559   5.9452   5.9834   6.0666   6.0850   6.1682   6.2487   6.5122
     6.6754   6.7123   6.7427   6.8905   6.9397   6.9825   7.1753   7.2374
     7.2954   7.3480   7.3587   7.3662   7.4629   7.4981   7.5243   7.5626
     7.5936   7.6948   7.7229   7.8882   7.9716   8.1191   8.2154   8.2452
     8.3008   8.3060   8.3740   8.4599   8.6221   8.7600   8.7813   8.9423
     9.0035   9.0361   9.0653   9.0839   9.2212   9.2861   9.3729   9.4250
     9.5152   9.5405   9.5433   9.6512   9.6790   9.7039   9.7042   9.7375
     9.7745   9.7900   9.8243   9.8374   9.8817   9.9555   9.9709   9.9909
    10.0144  10.0444  10.1077  10.1394  10.1909  10.2374  10.3064  10.3340
    10.3621  10.3816  10.4225  10.4528  10.4874  10.5118  10.5727  10.6169
    10.6499  10.6704  10.7388  10.7672  10.8351  10.8956  10.9066  10.9402
    10.9940  11.0520  11.0994  11.1067  11.1318  11.1620  11.2049  11.2356
    11.2405  11.2594  11.2884  11.3263  11.3648  11.3916  11.4408  11.4811
    11.4974  11.5423  11.5671  11.6251  11.6400  11.6625  11.6877  11.7277
    11.7516  11.7729  11.8117  11.8464  11.8566  11.9047  11.9435  11.9618
    11.9675  11.9916  12.0397  12.0854  12.1202  12.1424  12.1627  12.1803
    12.2155  12.2376  12.2649  12.2931  12.2994  12.3446  12.3548  12.5073
    12.5210  12.5554  12.5784  12.6400  12.7636  12.8026  12.8165  12.8654
    12.9247  12.9559  12.9722  12.9879  13.0181  13.0373  13.0801  13.1214
    13.1704  13.2011  13.2380  13.2856  13.3415  13.4098  13.4203  13.4666
    13.5020  13.6014  13.6247  13.7007  13.8573  13.9575  14.0148  14.0380
    14.0844  14.1389  14.1534  14.1603  14.2170  14.2264  14.3116  14.3297
    14.3970  14.4051  14.4709  14.5108  14.5891  14.6093  14.6540  14.6908
    14.7268  14.7946  14.8333  14.9062  15.0132  15.0719  15.0799  15.1167
    15.1682  15.2077  15.2791  15.3274  15.3784  15.4155  15.4450  15.4875
    15.5115  15.5453  15.6152  15.6789  15.7293  15.7839  15.8175  15.8464
    15.9236  15.9437  16.0124  16.1015  16.1244  16.1487  16.2012  16.2485
    16.3490  16.3671  16.3771  16.4106  16.4184  16.4617  16.4700  16.4813
    16.5809  16.5863  16.6682  16.7074  16.7213  16.7436  16.8475  16.9127
    16.9276  16.9623  17.0572  17.0922  17.1039  17.1395  17.1485  17.2001
    17.2128  17.3349  17.3589  17.4133  17.4366  17.4865  17.5018  17.5500
    17.6242  17.6515  17.6950  17.7198  17.8145  17.8425  17.8798  17.9042
    17.9512  17.9965  18.0206  18.0635  18.1303  18.1597  18.1939  18.2206
    18.2992  18.3192  18.3320  18.3660  18.4036  18.4113  18.4694  18.4812
    18.5319  18.5436  18.5519  18.6019  18.6401  18.6687  18.6791  18.6849
    18.7115  18.7162  18.7725  18.8081  18.8280  18.8517  18.9451  18.9901
    18.9928  19.0332  19.1175  19.1608  19.1817  19.2390  19.3667  19.4002
    19.4315  19.4705  19.5252  19.5997  19.6154  19.6772  19.7018  19.7452
    19.7542  19.7879  19.8029  19.8457  19.8741  19.9882  20.1303  20.1800
    20.2079  20.2193  20.3388  20.4044  20.4415  20.4785  20.4884  20.5334
    20.5605  20.6327  20.7251  20.7431  20.8138  20.8581  20.9394  20.9875
    21.0707  21.1079  21.1601  21.2465  21.3050  21.3269  21.3456  21.3580
    21.3827  21.4120  21.4458  21.4726  21.5736  21.6000  21.6237  21.6373
    21.6492  21.6704  21.6903  21.7128  21.7423  21.8042  21.8373  21.8711
    21.8944  21.9737  21.9893  22.0126  22.0353  22.0423  22.0773  22.1166
    22.1723  22.2153  22.2339  22.2779

          k = 0.0000 0.0000 0.0094 ( 43439 PWs)   bands (ev):

   -25.5734 -25.5722 -23.3235 -23.3215 -20.5021 -20.4330 -20.2492 -19.9700
   -19.6033 -19.1549 -18.6266 -18.0141 -17.3455 -16.6372 -15.9393 -15.4714
   -15.4093 -15.3382 -15.1974 -15.0531 -14.8388 -14.6997 -14.4676 -14.2828
   -14.1048 -14.0438 -13.9416 -13.8233 -13.7088 -13.4563 -13.3893 -13.2766
   -12.8724 -12.5906 -12.2965 -11.8874 -11.7842 -11.6972 -11.2889 -11.1576
   -11.0697 -10.7820 -10.4994 -10.3431 -10.2189  -9.7438  -9.6687  -9.6021
    -9.0986  -8.9929  -8.9841  -8.8379  -8.7381  -8.5202  -8.4516  -8.3471
    -8.2855  -8.1376  -7.9966  -7.8949  -7.8293  -7.6191  -7.5974  -7.4695
    -7.2446  -7.1063  -7.0321  -6.6383  -6.5547  -6.3969  -6.1561  -5.9622
    -5.7351  -5.7086  -5.3757  -5.2702  -5.2565  -4.9138  -4.7307  -4.5742
    -4.4823  -4.2643  -4.1747  -3.8108  -3.3545  -3.2353  -3.0322  -2.9961
    -2.6550  -2.2741  -2.2157  -1.7301  -1.5740  -1.2720  -0.6189  -0.2812
    -0.2490   0.0559   0.3195   0.4715   0.5299   0.6797   0.7682   1.1610
     1.3000   1.4103   2.0191   2.1117   2.2140   2.2617   2.6535   2.6964
     2.8912   2.9495   3.0606   3.2664   3.2998   3.6127   3.6163   3.6524
     3.8365   3.8908   3.9506   4.1809   4.3697   4.4281   4.6382   4.6418
     4.7614   4.7702   4.9265   5.1411   5.1476   5.1918   5.1996   5.4916
     5.7644   5.9480   5.9895   6.0731   6.0950   6.1658   6.2553   6.5092
     6.6710   6.7132   6.7337   6.8795   6.9342   6.9745   7.1814   7.2445
     7.2957   7.3509   7.3661   7.3877   7.4691   7.4948   7.5189   7.5454
     7.5955   7.7013   7.7279   7.8512   7.9532   8.1141   8.1734   8.2510
     8.2989   8.3111   8.3608   8.4441   8.5645   8.7676   8.7871   8.9565
     8.9671   9.0200   9.0626   9.0705   9.1838   9.2050   9.3411   9.3900
     9.4234   9.4896   9.5372   9.5534   9.5657   9.6551   9.6813   9.7111
     9.7131   9.7235   9.7574   9.7727   9.8207   9.8247   9.9352   9.9688
     9.9881  10.0093  10.0388  10.0981  10.1552  10.2170  10.2606  10.2837
    10.3064  10.3411  10.3881  10.4655  10.5551  10.5618  10.6179  10.6755
    10.7067  10.7277  10.7507  10.8104  10.8210  10.8447  10.8654  10.8729
    10.9096  10.9541  11.0186  11.0696  11.0837  11.1082  11.1850  11.1914
    11.2447  11.3141  11.3590  11.3924  11.4046  11.4306  11.4475  11.4896
    11.5295  11.5694  11.5821  11.6311  11.6412  11.6683  11.7035  11.7336
    11.7752  11.7904  11.8347  11.8975  11.9249  11.9687  11.9917  12.0143
    12.0216  12.0421  12.0710  12.0793  12.1110  12.1421  12.1726  12.1934
    12.2147  12.2342  12.2441  12.2574  12.2744  12.3002  12.3161  12.4289
    12.5341  12.5768  12.6120  12.6329  12.6976  12.7339  12.8004  12.8333
    12.8830  12.9513  12.9746  13.0107  13.1120  13.1310  13.1519  13.1642
    13.2402  13.2582  13.2921  13.2986  13.3501  13.3853  13.4020  13.5485
    13.6000  13.6671  13.7008  13.7652  13.8640  13.9016  13.9290  13.9846
    14.0624  14.1327  14.1447  14.1610  14.2224  14.3020  14.3155  14.4196
    14.4310  14.4563  14.4827  14.5672  14.5875  14.6094  14.6834  14.7220
    14.7743  14.8121  14.8488  14.9264  14.9918  15.0818  15.1032  15.1440
    15.1633  15.2126  15.2531  15.3043  15.3307  15.3776  15.3883  15.4378
    15.4574  15.4981  15.5179  15.6889  15.7198  15.7575  15.8131  15.8386
    15.8669  15.9849  16.0398  16.1214  16.1326  16.2133  16.2371  16.2972
    16.3788  16.4070  16.4299  16.4377  16.4572  16.4947  16.5220  16.5660
    16.6194  16.6576  16.6619  16.7184  16.7481  16.7760  16.8125  16.8944
    16.9369  16.9937  17.0584  17.0688  17.0812  17.1896  17.2239  17.2265
    17.2462  17.3208  17.3734  17.4023  17.4091  17.4920  17.5217  17.5534
    17.5788  17.5885  17.6864  17.7201  17.7481  17.7662  17.8314  17.8952
    17.9038  17.9327  18.0357  18.1233  18.1589  18.1831  18.2134  18.2356
    18.2765  18.3040  18.3246  18.3774  18.3985  18.4404  18.4507  18.4756
    18.4866  18.5140  18.5423  18.6197  18.6579  18.6842  18.7071  18.7105
    18.7444  18.7555  18.8044  18.8057  18.8446  18.8919  18.9118  18.9575
    18.9868  19.0188  19.0506  19.1876  19.2059  19.2736  19.2921  19.3219
    19.4016  19.4391  19.5006  19.5781  19.6360  19.7176  19.7688  19.8042
    19.8169  19.8697  19.8817  19.9107  19.9567  20.0927  20.1946  20.2698
    20.2975  20.3287  20.3370  20.3603  20.4308  20.4745  20.5035  20.5650
    20.6080  20.6631  20.6813  20.7987  20.8348  20.8686  20.9821  21.0270
    21.0586  21.0940  21.1742  21.2032  21.2712  21.3038  21.3218  21.3916
    21.4050  21.4227  21.4637  21.4679  21.4798  21.5183  21.6076  21.6173
    21.6392  21.6551  21.6784  21.7332  21.7389  21.7983  21.8422  21.9074
    21.9463  21.9571  21.9766  21.9843  22.0332  22.0558  22.0783  22.1101
    22.1857  22.1972  22.2591  22.2696

          k = 0.0000 0.0000 0.0141 ( 43419 PWs)   bands (ev):

   -25.5661 -25.5649 -23.3363 -23.3344 -20.4902 -20.4212 -20.2375 -19.9584
   -19.5917 -19.1434 -18.6152 -18.0028 -17.3345 -16.6271 -15.9367 -15.6094
   -15.5522 -15.4443 -15.2509 -15.1868 -14.8746 -14.7902 -14.4697 -14.3465
   -14.0579 -13.9791 -13.8469 -13.6965 -13.5825 -13.3509 -13.2851 -13.2477
   -12.9096 -12.6094 -12.3124 -11.9050 -11.7617 -11.6695 -11.2693 -11.1411
   -11.0573 -10.7307 -10.4919 -10.3686 -10.1707  -9.7332  -9.6850  -9.5762
    -9.1091  -8.9920  -8.9490  -8.8289  -8.7346  -8.5103  -8.4477  -8.3209
    -8.2689  -8.1521  -7.9929  -7.9035  -7.8050  -7.6096  -7.5839  -7.4521
    -7.2829  -7.0915  -7.0089  -6.6303  -6.5415  -6.4259  -6.1426  -5.9525
    -5.7505  -5.7079  -5.4056  -5.2666  -5.2392  -4.9557  -4.7394  -4.5693
    -4.5165  -4.2847  -4.2176  -3.8045  -3.4293  -3.3115  -3.0771  -3.0304
    -2.7381  -2.3331  -2.2641  -1.8466  -1.6301  -1.4315  -0.4644  -0.2091
    -0.1595   0.1531   0.4134   0.4725   0.6233   0.7728   0.8612   1.1740
     1.2895   1.4277   2.0353   2.1052   2.2155   2.2780   2.6665   2.7118
     2.9071   2.9643   3.0434   3.2801   3.3156   3.6250   3.6282   3.6680
     3.8521   3.9050   3.9360   4.1922   4.3855   4.4432   4.6528   4.6533
     4.7722   4.7856   4.9116   5.1546   5.1611   5.2012   5.2153   5.4876
     5.7784   5.9525   5.9987   6.0841   6.1114   6.1611   6.2679   6.5041
     6.6600   6.7131   6.7218   6.8592   6.9238   6.9653   7.1914   7.2566
     7.2941   7.3541   7.3722   7.4264   7.4754   7.4946   7.5150   7.5206
     7.6017   7.7032   7.7389   7.7980   7.9204   8.0980   8.1130   8.2501
     8.2974   8.3165   8.3457   8.4309   8.4771   8.7764   8.7944   8.8919
     8.9331   9.0092   9.0145   9.0383   9.1186   9.1597   9.1798   9.1993
     9.3515   9.3592   9.4367   9.4642   9.5617   9.5704   9.6004   9.6731
     9.6893   9.7217   9.7384   9.7616   9.7698   9.7837   9.8345   9.9259
     9.9444   9.9674   9.9725  10.0335  10.0637  10.0992  10.1877  10.1979
    10.2379  10.3065  10.3976  10.4142  10.4644  10.5307  10.5695  10.5876
    10.6025  10.6163  10.6852  10.7428  10.7676  10.8233  10.8322  10.9595
    10.9884  11.0237  11.0332  11.0572  11.0986  11.1559  11.2467  11.2679
    11.2914  11.3542  11.4051  11.4199  11.4337  11.4515  11.4573  11.5043
    11.5101  11.5457  11.5862  11.5907  11.6432  11.6938  11.7186  11.7670
    11.7889  11.8319  11.8438  11.8562  11.8930  11.9322  11.9644  11.9753
    12.0020  12.0347  12.0462  12.0982  12.1360  12.1763  12.2221  12.2573
    12.2926  12.3057  12.3218  12.3463  12.3617  12.3747  12.3876  12.4124
    12.5067  12.5606  12.5703  12.6544  12.6625  12.7227  12.7573  12.8222
    12.9166  12.9635  12.9687  13.0322  13.0741  13.0827  13.1146  13.2309
    13.2350  13.2699  13.3458  13.3872  13.4325  13.5376  13.5643  13.5779
    13.6414  13.7287  13.7764  13.7919  13.8572  13.8895  13.9529  13.9693
    14.0182  14.0985  14.1198  14.2394  14.3008  14.3441  14.3840  14.4244
    14.4674  14.5207  14.5546  14.5719  14.6098  14.6711  14.7221  14.7504
    14.7759  14.8316  14.9036  14.9182  14.9797  15.0458  15.0733  15.1104
    15.1366  15.1734  15.2158  15.2600  15.2874  15.3570  15.3713  15.4188
    15.4544  15.4963  15.5650  15.6855  15.7158  15.7208  15.8086  15.8961
    15.9465  15.9938  16.0175  16.1255  16.1761  16.2296  16.2589  16.2924
    16.3352  16.4013  16.4472  16.4843  16.4959  16.5228  16.5668  16.5993
    16.6623  16.6986  16.7356  16.7607  16.7889  16.8154  16.8850  16.9091
    16.9359  17.0470  17.0863  17.0956  17.1238  17.2078  17.2320  17.2681
    17.2932  17.3091  17.3563  17.4349  17.4626  17.5129  17.5335  17.5421
    17.5662  17.6026  17.6116  17.6728  17.6918  17.7464  17.7927  17.8532
    17.9065  17.9379  18.0473  18.0570  18.0922  18.1620  18.1674  18.2353
    18.2446  18.2757  18.2839  18.3076  18.3542  18.4189  18.4709  18.4766
    18.4955  18.5073  18.5514  18.6480  18.6697  18.7047  18.7106  18.7182
    18.7400  18.7963  18.8164  18.8561  18.8848  18.9429  18.9891  19.0017
    19.0276  19.0448  19.0693  19.1174  19.1714  19.3089  19.3384  19.3434
    19.3523  19.4900  19.5347  19.5795  19.6005  19.7700  19.8091  19.8424
    19.8754  19.9050  19.9606  19.9959  20.0587  20.1925  20.2027  20.2491
    20.3098  20.3573  20.4051  20.4626  20.5157  20.5663  20.5923  20.6263
    20.6347  20.7416  20.7477  20.8469  20.8677  20.9327  20.9638  21.0491
    21.0630  21.0985  21.1526  21.1823  21.2171  21.2673  21.2945  21.3145
    21.3612  21.4156  21.4327  21.4600  21.4898  21.5421  21.5982  21.6316
    21.6550  21.6645  21.7365  21.7470  21.7643  21.7849  21.8353  21.8529
    21.9120  21.9404  21.9674  21.9893  22.0065  22.0496  22.1041  22.1268
    22.1532  22.1792  22.2532  22.2709

          k = 0.0000 0.0000 0.0188 ( 43451 PWs)   bands (ev):

   -25.5561 -25.5549 -23.3541 -23.3523 -20.4737 -20.4048 -20.2211 -19.9421
   -19.5755 -19.1273 -18.5992 -17.9871 -17.3191 -16.6132 -15.9411 -15.7707
   -15.7026 -15.5926 -15.3467 -15.2787 -14.9839 -14.8492 -14.5300 -14.4020
   -14.0351 -13.9148 -13.6641 -13.5401 -13.4279 -13.3468 -13.1564 -13.1188
   -12.9579 -12.6301 -12.3291 -11.9456 -11.7228 -11.6173 -11.2965 -11.1149
   -10.9861 -10.6901 -10.4864 -10.3719 -10.1197  -9.7310  -9.6973  -9.5385
    -9.1191  -8.9931  -8.9084  -8.8131  -8.7267  -8.4972  -8.4349  -8.2935
    -8.2482  -8.1723  -7.9861  -7.9011  -7.7760  -7.5952  -7.5687  -7.4397
    -7.3200  -7.0702  -6.9797  -6.6353  -6.5308  -6.4411  -6.1315  -5.9400
    -5.7760  -5.7068  -5.4314  -5.2671  -5.2247  -5.0071  -4.7572  -4.5899
    -4.5356  -4.3145  -4.2768  -3.7958  -3.5285  -3.4122  -3.1801  -3.0327
    -2.8456  -2.4453  -2.2907  -1.9852  -1.7040  -1.5920  -0.3108  -0.1449
    -0.0260   0.2776   0.4742   0.5368   0.7472   0.8971   0.9857   1.1875
     1.2799   1.4520   2.0580   2.0880   2.2262   2.3008   2.6834   2.7336
     2.9291   2.9837   3.0218   3.2992   3.3375   3.6411   3.6444   3.6899
     3.8737   3.9089   3.9340   4.2076   4.4074   4.4643   4.6693   4.6736
     4.7829   4.8072   4.8959   5.1733   5.1804   5.2133   5.2371   5.4830
     5.7977   5.9586   6.0096   6.0994   6.1332   6.1563   6.2867   6.4965
     6.6381   6.7056   6.7115   6.8276   6.9099   6.9586   7.2050   7.2732
     7.2880   7.3563   7.3795   7.4591   7.4750   7.5020   7.5075   7.5259
     7.6105   7.6843   7.7519   7.7570   7.8661   8.0162   8.1039   8.2287
     8.2756   8.3039   8.3413   8.3977   8.4276   8.7381   8.7817   8.8094
     8.8488   8.8753   8.8886   8.9563   9.0105   9.0411   9.1188   9.1683
     9.1957   9.2780   9.3211   9.3500   9.5139   9.5235   9.5850   9.5900
     9.6086   9.6591   9.7444   9.7546   9.7706   9.7774   9.7902   9.8090
     9.8612   9.8727   9.8868   9.9271  10.0388  10.0645  10.1264  10.1672
    10.1889  10.2519  10.2858  10.3232  10.3503  10.3686  10.3798  10.4001
    10.4634  10.5172  10.6002  10.6628  10.7177  10.7297  10.8256  10.9780
    10.9942  11.0932  11.1234  11.1463  11.2266  11.2505  11.2756  11.3291
    11.3641  11.3764  11.3948  11.4093  11.4262  11.4521  11.4561  11.4692
    11.5259  11.5379  11.5679  11.6029  11.6233  11.6556  11.6821  11.7316
    11.7879  11.8117  11.8705  11.8844  11.9032  11.9408  11.9989  12.0112
    12.0261  12.0707  12.0898  12.1340  12.1549  12.1734  12.2600  12.2849
    12.3105  12.3450  12.3535  12.3644  12.3897  12.4532  12.4753  12.5149
    12.5744  12.6010  12.6265  12.6287  12.7101  12.7629  12.7707  12.8148
    12.9375  12.9546  12.9812  13.0132  13.0518  13.1049  13.1310  13.2149
    13.2714  13.2915  13.3776  13.4212  13.4797  13.5379  13.6211  13.6579
    13.6876  13.7362  13.8125  13.8717  13.8981  13.9338  14.0040  14.0734
    14.0955  14.1789  14.1988  14.2372  14.3305  14.3450  14.3988  14.4497
    14.5026  14.5618  14.5786  14.6181  14.6539  14.6736  14.7336  14.7590
    14.8513  14.8696  14.9188  14.9302  14.9701  14.9851  15.0454  15.0630
    15.1176  15.1460  15.1724  15.2374  15.2847  15.3713  15.4130  15.4470
    15.4701  15.5498  15.6386  15.6910  15.7137  15.8002  15.8397  15.8651
    16.0036  16.0140  16.0305  16.1219  16.1529  16.2096  16.2211  16.3531
    16.3759  16.3904  16.4501  16.4647  16.4812  16.5167  16.6044  16.6355
    16.6875  16.7262  16.7629  16.7934  16.8367  16.9296  16.9493  16.9832
    16.9990  17.0294  17.0558  17.1300  17.1671  17.1966  17.2354  17.3288
    17.3749  17.4383  17.4524  17.4635  17.4732  17.4994  17.5099  17.5341
    17.5396  17.5939  17.6306  17.6420  17.6648  17.7636  17.8050  17.8692
    17.9119  17.9466  17.9583  18.0067  18.0729  18.0863  18.1194  18.1264
    18.1378  18.1885  18.2189  18.2634  18.3426  18.4269  18.4636  18.4906
    18.5030  18.5187  18.5909  18.5961  18.6705  18.7077  18.7197  18.7437
    18.7660  18.8025  18.8499  18.8814  18.9879  18.9966  19.0065  19.0304
    19.0545  19.0846  19.1306  19.2265  19.2486  19.3058  19.3332  19.4582
    19.4835  19.5194  19.5884  19.6196  19.6963  19.7415  19.7893  19.8393
    19.8473  19.9652  20.0156  20.0334  20.1219  20.1767  20.2211  20.2848
    20.3934  20.4610  20.5438  20.5764  20.6221  20.6542  20.6782  20.6953
    20.7189  20.7407  20.7975  20.8719  20.8890  20.9364  20.9814  21.0103
    21.0653  21.1304  21.1598  21.2193  21.2422  21.2515  21.2964  21.3460
    21.3738  21.3879  21.4262  21.4974  21.5119  21.5417  21.5988  21.6203
    21.6494  21.6714  21.7113  21.7369  21.7818  21.7981  21.8386  21.8574
    21.8673  21.9105  21.9170  21.9467  21.9925  22.0258  22.0839  22.1055
    22.1641  22.1939  22.2250  22.3279

          k = 0.0000 0.0000 0.0235 ( 43473 PWs)   bands (ev):

   -25.5432 -25.5420 -23.3767 -23.3749 -20.4524 -20.3836 -20.2000 -19.9211
   -19.5547 -19.1066 -18.5787 -17.9669 -17.2995 -16.5957 -15.9855 -15.9425
   -15.8214 -15.7574 -15.5031 -15.3387 -15.0833 -14.9391 -14.5888 -14.4913
   -13.9862 -13.8533 -13.4630 -13.4089 -13.3231 -13.2576 -13.0481 -12.9875
   -12.9609 -12.6471 -12.3444 -11.9948 -11.6700 -11.5522 -11.3549 -11.0699
   -10.8796 -10.6843 -10.4837 -10.3277 -10.0809  -9.7377  -9.6929  -9.4953
    -9.1321  -8.9889  -8.8689  -8.7890  -8.7112  -8.4812  -8.4128  -8.2761
    -8.2380  -8.1724  -7.9744  -7.8848  -7.7437  -7.5758  -7.5651  -7.4475
    -7.3240  -7.0426  -6.9536  -6.6611  -6.5185  -6.4367  -6.1253  -5.9262
    -5.8094  -5.7061  -5.4524  -5.2773  -5.2094  -5.0647  -4.7860  -4.6495
    -4.5248  -4.3574  -4.3480  -3.7850  -3.6479  -3.5330  -3.3034  -3.0416
    -2.9661  -2.5808  -2.3191  -2.1370  -1.7916  -1.7522  -0.1588  -0.0726
     0.1229   0.4215   0.4782   0.6838   0.8967   1.0480   1.1376   1.1915
     1.2819   1.4830   2.0589   2.0872   2.2477   2.3300   2.7020   2.7616
     2.9563   2.9876   3.0192   3.3237   3.3654   3.6547   3.6680   3.7181
     3.8867   3.9052   3.9598   4.2263   4.4356   4.4915   4.6904   4.6992
     4.7846   4.8350   4.8898   5.1961   5.2056   5.2269   5.2648   5.4793
     5.8219   5.9651   6.0196   6.1176   6.1497   6.1672   6.3104   6.4861
     6.6041   6.6812   6.7026   6.7876   6.8974   6.9567   7.2206   7.2697
     7.2978   7.3576   7.3870   7.4371   7.4732   7.5158   7.5382   7.5692
     7.6155   7.6404   7.7358   7.7752   7.7900   7.9407   8.0718   8.1658
     8.2079   8.2950   8.3317   8.3762   8.4317   8.5708   8.6107   8.6387
     8.7171   8.7920   8.8302   8.8753   8.9017   8.9678   8.9971   9.1199
     9.1499   9.1816   9.2328   9.3233   9.3868   9.4258   9.4581   9.5287
     9.5677   9.5884   9.6255   9.6270   9.7260   9.7669   9.8124   9.8227
     9.8398   9.8489   9.8659   9.9159   9.9911  10.0015  10.0304  10.0601
    10.0975  10.1217  10.1274  10.1452  10.1513  10.2022  10.3054  10.3168
    10.3593  10.4209  10.5631  10.5951  10.6712  10.7349  10.7688  10.9093
    10.9832  11.0272  11.0667  11.1247  11.1589  11.1893  11.2419  11.2873
    11.3016  11.3612  11.3746  11.4096  11.4509  11.4836  11.5110  11.5192
    11.5440  11.5601  11.6031  11.6619  11.6807  11.7034  11.7329  11.7996
    11.8098  11.8247  11.8622  11.8721  11.9678  11.9793  12.0250  12.0510
    12.0591  12.1105  12.1622  12.1775  12.1933  12.2107  12.2581  12.2906
    12.3224  12.3563  12.3902  12.4062  12.4339  12.4847  12.4986  12.5509
    12.5796  12.5991  12.6712  12.7246  12.7391  12.8083  12.8603  12.9228
    12.9363  12.9670  13.0259  13.0373  13.0857  13.1331  13.1743  13.2091
    13.2851  13.3430  13.3757  13.4607  13.5120  13.5326  13.6012  13.6552
    13.6715  13.7282  13.8363  13.9175  14.0141  14.0852  14.0921  14.1550
    14.1881  14.2099  14.2750  14.3183  14.3220  14.4201  14.4500  14.4636
    14.5422  14.5814  14.5973  14.6221  14.6640  14.6650  14.7407  14.7679
    14.8044  14.8188  14.9285  14.9577  15.0107  15.0275  15.0924  15.1287
    15.1514  15.1801  15.1907  15.3003  15.3501  15.3896  15.4575  15.4751
    15.5429  15.5880  15.6196  15.6914  15.7029  15.7876  15.8483  15.9163
    15.9654  15.9858  16.0861  16.1372  16.1713  16.2262  16.2394  16.3030
    16.3753  16.4565  16.4945  16.5052  16.5254  16.5546  16.6206  16.6984
    16.7105  16.7407  16.7701  16.8064  16.8490  16.9341  16.9508  16.9993
    17.0489  17.0734  17.0905  17.1514  17.1787  17.2384  17.2527  17.3364
    17.3644  17.3787  17.4083  17.4674  17.4846  17.5332  17.5472  17.5851
    17.6399  17.6508  17.6994  17.7335  17.7729  17.7892  17.8024  17.8492
    17.8506  17.8835  17.9212  17.9466  17.9961  18.0100  18.0477  18.0760
    18.1279  18.1834  18.2379  18.2478  18.2980  18.4070  18.4872  18.5005
    18.5224  18.5600  18.5759  18.6084  18.6767  18.7123  18.7312  18.7385
    18.7755  18.7858  18.8357  18.9059  19.0003  19.0046  19.0350  19.1070
    19.1361  19.1556  19.2499  19.2780  19.3727  19.3963  19.4463  19.5050
    19.5478  19.5639  19.6175  19.6507  19.7170  19.7989  19.8284  19.8562
    19.9379  20.0153  20.0692  20.1365  20.1662  20.1854  20.3063  20.3414
    20.3745  20.4954  20.5954  20.6106  20.6656  20.6831  20.6919  20.7493
    20.7854  20.8019  20.8414  20.8908  20.9380  20.9800  21.0106  21.0618
    21.0889  21.1625  21.2216  21.2356  21.2772  21.3047  21.3536  21.3692
    21.3956  21.4422  21.4592  21.5233  21.5335  21.5480  21.5980  21.6324
    21.6401  21.6556  21.6820  21.7158  21.7457  21.8173  21.8385  21.8540
    21.8822  21.8870  21.8985  21.9399  21.9724  21.9872  22.0757  22.1800
    22.2039  22.2104  22.2477  22.3100

          k = 0.0000 0.0000 0.0282 ( 43478 PWs)   bands (ev):

   -25.5276 -25.5264 -23.4039 -23.4021 -20.4265 -20.3577 -20.1742 -19.8955
   -19.5292 -19.0814 -18.5537 -17.9422 -17.2756 -16.5755 -16.1203 -16.1124
   -15.9287 -15.8686 -15.6530 -15.4458 -15.1384 -15.0603 -14.6443 -14.5952
   -13.9271 -13.8085 -13.4055 -13.2517 -13.1780 -13.0952 -13.0637 -12.8745
   -12.8004 -12.6437 -12.3584 -12.0380 -11.6166 -11.4845 -11.4095 -11.0219
   -10.7656 -10.6903 -10.4797 -10.2529 -10.0557  -9.7548  -9.6641  -9.4489
    -9.1526  -8.9717  -8.8349  -8.7583  -8.6828  -8.4651  -8.3840  -8.2954
    -8.2151  -8.1390  -7.9568  -7.8566  -7.7090  -7.6009  -7.5512  -7.4443
    -7.2958  -7.0092  -6.9434  -6.6940  -6.5009  -6.4230  -6.1264  -5.9181
    -5.8411  -5.7073  -5.4708  -5.3016  -5.1907  -5.1251  -4.8272  -4.7246
    -4.5065  -4.4427  -4.4005  -3.7863  -3.7696  -3.6695  -3.4422  -3.1301
    -3.0224  -2.7302  -2.3540  -2.2960  -1.9114  -1.8887  -0.0088   0.0063
     0.2805   0.4796   0.5847   0.8493   1.0670   1.1764   1.2222   1.3047
     1.3127   1.5204   2.0202   2.1228   2.2787   2.3656   2.7173   2.7961
     2.9591   2.9963   3.0498   3.3533   3.3991   3.6596   3.6983   3.7526
     3.8741   3.9382   3.9940   4.2471   4.4698   4.5246   4.7160   4.7257
     4.7724   4.8690   4.9042   5.2183   5.2368   5.2434   5.2985   5.4795
     5.8499   5.9692   6.0263   6.1341   6.1633   6.1996   6.3351   6.4738
     6.5562   6.6383   6.6808   6.7540   6.8908   6.9605   7.2242   7.2560
     7.3190   7.3570   7.3939   7.4124   7.4609   7.5293   7.5642   7.5917
     7.6338   7.6409   7.6795   7.7508   7.8053   7.8729   7.9617   8.1107
     8.1555   8.2516   8.2625   8.3121   8.3827   8.4224   8.4497   8.4889
     8.5681   8.6696   8.7244   8.7873   8.8189   8.9140   8.9500   9.0025
     9.0483   9.1275   9.1560   9.2277   9.3081   9.3157   9.3755   9.4120
     9.4373   9.4675   9.5990   9.6460   9.6566   9.7423   9.7742   9.7787
     9.8022   9.8277   9.8489   9.8629   9.8823   9.9082   9.9253   9.9315
     9.9484   9.9783  10.0089  10.0430  10.0724  10.1326  10.1865  10.2499
    10.2879  10.3397  10.5142  10.5989  10.6369  10.6866  10.7794  10.7925
    10.8537  10.9097  10.9270  10.9738  11.0296  11.0867  11.1402  11.1536
    11.2623  11.3611  11.3973  11.4189  11.4389  11.4769  11.4934  11.5552
    11.5766  11.5948  11.6273  11.6831  11.7013  11.7606  11.7772  11.8319
    11.8740  11.8892  11.9466  11.9698  12.0346  12.0366  12.0767  12.0905
    12.1053  12.1291  12.1538  12.2088  12.2123  12.2392  12.3220  12.3349
    12.3568  12.3945  12.4444  12.4512  12.4873  12.4917  12.5333  12.5772
    12.6218  12.6786  12.7093  12.7517  12.7869  12.8116  12.8656  12.9005
    12.9779  13.0593  13.0770  13.0797  13.1280  13.1671  13.1952  13.2233
    13.3108  13.3616  13.4292  13.4533  13.5570  13.5828  13.6463  13.6964
    13.7353  13.7792  13.8334  13.9092  13.9858  14.0064  14.1380  14.1799
    14.2652  14.2966  14.3692  14.3923  14.4397  14.4534  14.4582  14.5282
    14.5786  14.5892  14.6093  14.6434  14.7107  14.7230  14.7364  14.7965
    14.8642  14.9232  14.9500  15.0032  15.0473  15.0571  15.1064  15.1954
    15.2137  15.2611  15.3024  15.3726  15.4180  15.4559  15.4928  15.5255
    15.5414  15.5626  15.6005  15.6554  15.7622  15.8195  15.8354  15.8732
    15.9592  16.0157  16.0901  16.1396  16.1929  16.2375  16.2794  16.3565
    16.4467  16.5227  16.5403  16.5538  16.5742  16.5815  16.6519  16.6777
    16.7294  16.8183  16.8384  16.8551  16.8646  16.9012  16.9750  17.0147
    17.0366  17.0627  17.0844  17.1398  17.1789  17.2113  17.2437  17.2560
    17.3177  17.3346  17.4194  17.4799  17.5134  17.5704  17.5775  17.6339
    17.6458  17.6830  17.7181  17.7351  17.7573  17.7723  17.8109  17.8360
    17.8493  17.8895  17.9356  17.9957  18.0275  18.0476  18.0709  18.1123
    18.1498  18.2010  18.2732  18.3229  18.3479  18.3851  18.4447  18.5098
    18.5394  18.5710  18.5806  18.6616  18.7019  18.7193  18.7296  18.7524
    18.7652  18.8152  18.8934  18.9881  19.0173  19.0183  19.0636  19.1050
    19.1212  19.1865  19.2875  19.3308  19.4013  19.4270  19.5773  19.5848
    19.6108  19.6362  19.6902  19.7705  19.8084  19.8271  19.9630  19.9701
    20.0143  20.0800  20.1350  20.2303  20.2377  20.2896  20.3356  20.3596
    20.3948  20.4682  20.5324  20.5657  20.6285  20.6744  20.6986  20.7294
    20.8417  20.8896  20.9472  20.9594  20.9790  21.0265  21.0922  21.1140
    21.1748  21.1966  21.2145  21.2461  21.3049  21.3237  21.3676  21.4305
    21.4448  21.4935  21.5202  21.5246  21.5392  21.5519  21.5733  21.6045
    21.6580  21.6720  21.6890  21.7405  21.7862  21.8194  21.8352  21.9125
    21.9318  21.9517  21.9654  21.9879  22.0049  22.0211  22.0576  22.1206
    22.2314  22.2554  22.2844  22.3104

          k = 0.0000 0.0000 0.0329 ( 43498 PWs)   bands (ev):

   -25.5092 -25.5081 -23.4353 -23.4336 -20.3958 -20.3272 -20.1438 -19.8652
   -19.4991 -19.0515 -18.5242 -17.9132 -17.2476 -16.5552 -16.2952 -16.2769
   -16.1004 -15.9320 -15.7529 -15.5863 -15.1995 -15.1634 -14.7369 -14.6695
   -13.8762 -13.7731 -13.4198 -13.1815 -13.0417 -12.9562 -12.9195 -12.7899
   -12.6218 -12.5796 -12.3723 -12.0630 -11.6075 -11.4260 -11.3989 -11.0053
   -10.7052 -10.6039 -10.4834 -10.1838 -10.0174  -9.7813  -9.6187  -9.4005
    -9.1770  -8.9399  -8.8093  -8.7264  -8.6372  -8.4582  -8.3554  -8.3081
    -8.1784  -8.0943  -7.9343  -7.8196  -7.6759  -7.6649  -7.5220  -7.4150
    -7.2557  -6.9711  -6.9642  -6.7113  -6.4847  -6.4060  -6.1368  -5.9359
    -5.8469  -5.7115  -5.4903  -5.3413  -5.1865  -5.1675  -4.8820  -4.8099
    -4.5451  -4.4883  -4.4541  -3.9322  -3.8187  -3.7572  -3.5918  -3.2794
    -3.0299  -2.8885  -2.4623  -2.3937  -2.0667  -1.9939   0.0896   0.1389
     0.4431   0.4869   0.7553   1.0288   1.1508   1.2540   1.3425   1.4140
     1.5070   1.5641   1.9743   2.1649   2.3178   2.4075   2.7196   2.8369
     2.9459   3.0365   3.0889   3.3874   3.4377   3.6474   3.7351   3.7935
     3.8768   3.9789   4.0348   4.2674   4.5101   4.5636   4.7205   4.7477
     4.7835   4.9092   4.9355   5.2278   5.2685   5.2758   5.3382   5.4875
     5.8785   5.9670   6.0315   6.1492   6.1886   6.2376   6.3500   6.4667
     6.4919   6.5734   6.6517   6.7367   6.8901   6.9692   7.1918   7.2656
     7.3222   7.3575   7.3878   7.4069   7.4462   7.5272   7.5604   7.5794
     7.6029   7.6448   7.7407   7.7554   7.7988   7.8120   7.8556   8.0131
     8.0720   8.0874   8.1136   8.1682   8.2970   8.3246   8.3972   8.4088
     8.5057   8.5610   8.5848   8.6518   8.7161   8.8574   8.8662   8.9016
     8.9770   9.0001   9.0837   9.1259   9.1587   9.2038   9.3229   9.3455
     9.4203   9.4397   9.4665   9.5051   9.5819   9.6163   9.6324   9.6632
     9.6993   9.7067   9.7889   9.8178   9.8224   9.8368   9.8584   9.8997
     9.9229   9.9393   9.9588   9.9741  10.0147  10.0839  10.1133  10.1808
    10.2347  10.3272  10.4305  10.5464  10.5616  10.6353  10.6428  10.6890
    10.6942  10.7476  10.8436  10.9125  10.9225  10.9573  11.0088  11.1721
    11.2048  11.2314  11.2895  11.4332  11.4671  11.4992  11.5247  11.5527
    11.5904  11.6205  11.6300  11.6720  11.7066  11.7452  11.7805  11.8100
    11.8278  11.8698  11.9661  11.9945  12.0120  12.0659  12.0976  12.1644
    12.1875  12.2082  12.2562  12.2715  12.3177  12.3586  12.3740  12.3884
    12.4432  12.4742  12.5073  12.5294  12.5316  12.5654  12.5785  12.6300
    12.6752  12.6926  12.7567  12.7630  12.8012  12.8244  12.8335  12.9487
    12.9758  13.0388  13.0935  13.1177  13.1354  13.1947  13.2165  13.2899
    13.3126  13.4081  13.4422  13.4662  13.6142  13.6500  13.6783  13.7444
    13.8107  13.8454  13.8971  13.9069  13.9961  14.0425  14.0939  14.1209
    14.2504  14.2929  14.3403  14.3676  14.4081  14.5016  14.5775  14.6040
    14.6513  14.7337  14.7412  14.7889  14.8072  14.8195  14.8637  14.8773
    14.8857  14.9622  15.0165  15.0726  15.1079  15.1505  15.1810  15.2259
    15.2456  15.3102  15.3573  15.3995  15.4152  15.4392  15.4661  15.5107
    15.5682  15.5932  15.6764  15.7349  15.7917  15.8322  15.9030  15.9327
    16.0073  16.0331  16.1257  16.1588  16.2078  16.2742  16.3336  16.4273
    16.4614  16.5290  16.5584  16.5625  16.6139  16.6518  16.6722  16.7308
    16.7521  16.8070  16.8474  16.8623  16.9065  16.9278  16.9586  16.9938
    17.0375  17.0765  17.1129  17.1159  17.1574  17.2030  17.2251  17.2654
    17.2976  17.3757  17.4226  17.4607  17.4832  17.5055  17.5387  17.5771
    17.6079  17.6189  17.6966  17.7443  17.7702  17.7912  17.8131  17.8415
    17.9008  17.9555  17.9937  18.0068  18.0636  18.0774  18.1393  18.2477
    18.2637  18.3006  18.3891  18.4251  18.4331  18.4693  18.5048  18.5439
    18.5745  18.5943  18.6131  18.6354  18.6719  18.6895  18.7419  18.7656
    18.8117  18.8997  18.9285  18.9987  19.0189  19.0495  19.0614  19.0895
    19.1929  19.2600  19.2908  19.3443  19.3504  19.4666  19.6356  19.7084
    19.7598  19.7948  19.8276  19.8692  19.9209  19.9318  19.9677  20.0070
    20.0797  20.1113  20.1516  20.2211  20.3253  20.3442  20.3859  20.4125
    20.4862  20.5323  20.5719  20.5962  20.6465  20.6495  20.7402  20.7474
    20.8694  20.8868  20.8990  20.9601  20.9737  21.0757  21.1027  21.1505
    21.2028  21.2210  21.2376  21.3016  21.3216  21.3450  21.4019  21.4174
    21.4580  21.4783  21.5194  21.5525  21.5960  21.6261  21.6567  21.6835
    21.6952  21.7259  21.7367  21.7915  21.8135  21.8250  21.8433  21.9052
    21.9436  22.0083  22.0247  22.0619  22.0825  22.1150  22.1433  22.1842
    22.2017  22.2550  22.2653  22.3372

          k = 0.0000 0.0000 0.0376 ( 43530 PWs)   bands (ev):

   -25.4883 -25.4872 -23.4706 -23.4690 -20.3604 -20.2920 -20.1087 -19.8303
   -19.4645 -19.0172 -18.4902 -17.8798 -17.2157 -16.5531 -16.4579 -16.4435
   -16.2677 -16.0658 -15.7759 -15.7387 -15.3411 -15.1896 -14.8458 -14.7311
   -13.8465 -13.7293 -13.4585 -13.1993 -12.9651 -12.8052 -12.7136 -12.6759
   -12.4715 -12.4369 -12.3703 -12.0613 -11.6542 -11.3585 -11.3273 -11.0392
   -10.6288 -10.5110 -10.4676 -10.1344  -9.9553  -9.8021  -9.5694  -9.3630
    -9.1840  -8.8981  -8.7958  -8.6946  -8.5792  -8.4615  -8.3285  -8.2846
    -8.1365  -8.0464  -7.9093  -7.7818  -7.7380  -7.6320  -7.4882  -7.3733
    -7.2116  -7.0185  -6.9285  -6.7069  -6.4810  -6.3833  -6.1566  -5.9752
    -5.8293  -5.7194  -5.5155  -5.3934  -5.2458  -5.1431  -4.9519  -4.9025
    -4.6578  -4.5307  -4.4527  -4.0896  -3.9761  -3.7650  -3.7265  -3.4393
    -3.0561  -3.0323  -2.6267  -2.4480  -2.2147  -2.1041   0.1760   0.2830
     0.4973   0.6086   0.9339   1.1168   1.2201   1.3922   1.4532   1.6128
     1.6206   1.7180   1.9238   2.2135   2.3644   2.4551   2.6985   2.8841
     2.9542   3.0841   3.1343   3.4236   3.4789   3.6191   3.7780   3.8408
     3.9002   4.0259   4.0821   4.2831   4.5559   4.6085   4.6925   4.7809
     4.8238   4.9557   4.9776   5.2231   5.3033   5.3196   5.3835   5.5069
     5.8956   5.9637   6.0374   6.1603   6.2177   6.2751   6.3361   6.4216
     6.4767   6.5036   6.6320   6.7247   6.8914   6.9786   7.1479   7.2686
     7.2983   7.3382   7.3796   7.4138   7.4552   7.4584   7.5357   7.5627
     7.5920   7.6693   7.7004   7.7104   7.7426   7.8287   7.8493   7.8673
     7.9030   7.9408   8.0002   8.1162   8.1269   8.1995   8.3292   8.3657
     8.4347   8.4541   8.5255   8.5592   8.6068   8.7097   8.7200   8.7930
     8.8732   8.9502   9.0243   9.0496   9.0719   9.0811   9.2417   9.2717
     9.3051   9.3227   9.3369   9.3569   9.4279   9.4809   9.5167   9.5381
     9.6328   9.6850   9.6875   9.7343   9.7533   9.7610   9.8116   9.8190
     9.9006   9.9411   9.9576   9.9629  10.0216  10.0520  10.0666  10.1833
    10.1899  10.3074  10.3284  10.3649  10.4092  10.4588  10.5185  10.5309
    10.6457  10.7067  10.7546  10.8244  10.8608  10.9001  10.9699  10.9784
    11.1884  11.2129  11.2713  11.4171  11.4773  11.4962  11.5076  11.5410
    11.5664  11.5768  11.6039  11.6180  11.6865  11.6999  11.7300  11.7511
    11.7860  11.8588  11.9652  11.9896  12.0283  12.0755  12.1436  12.2262
    12.2434  12.2622  12.2976  12.3561  12.3774  12.4015  12.4328  12.4567
    12.4864  12.5137  12.5504  12.6190  12.6280  12.6504  12.6567  12.7185
    12.7417  12.7481  12.7679  12.7912  12.8198  12.8361  12.8942  12.9305
    13.0122  13.0774  13.1018  13.1367  13.1574  13.2223  13.2731  13.3239
    13.3594  13.3799  13.4149  13.5296  13.5599  13.6498  13.6875  13.7146
    13.7943  13.9272  13.9532  13.9681  14.0265  14.0711  14.1759  14.1825
    14.2122  14.2713  14.3534  14.4240  14.4511  14.5646  14.6390  14.6895
    14.7560  14.7704  14.7965  14.8885  14.8935  14.9186  14.9618  15.0193
    15.0206  15.0445  15.1074  15.1250  15.1337  15.1742  15.2366  15.2907
    15.3153  15.3400  15.3580  15.3939  15.4525  15.4725  15.5430  15.5632
    15.5777  15.6284  15.7101  15.8036  15.8352  15.8635  15.8742  16.0413
    16.1504  16.1565  16.1738  16.2227  16.2734  16.2969  16.3381  16.4666
    16.5133  16.5484  16.5633  16.5946  16.6440  16.6505  16.6801  16.6898
    16.7028  16.7399  16.7956  16.8657  16.8881  16.8987  16.9748  16.9879
    17.0562  17.0704  17.1218  17.1754  17.2110  17.2863  17.2890  17.3074
    17.3574  17.3595  17.3735  17.4045  17.4337  17.5185  17.5256  17.5550
    17.5697  17.6072  17.6906  17.6988  17.7773  17.8211  17.8391  17.8852
    17.9147  17.9867  18.0387  18.0587  18.1106  18.1525  18.2257  18.2810
    18.3617  18.4257  18.5072  18.5108  18.5228  18.5426  18.5760  18.5860
    18.6027  18.6397  18.6647  18.6902  18.7226  18.7696  18.7771  18.8078
    18.8526  18.9021  18.9510  18.9906  19.0460  19.0663  19.1046  19.1632
    19.1807  19.1996  19.3780  19.4357  19.5798  19.5963  19.6476  19.7414
    19.8158  19.8757  19.9136  19.9320  19.9645  19.9891  20.0061  20.0168
    20.0495  20.1819  20.2008  20.3015  20.3181  20.3852  20.4248  20.4650
    20.5327  20.5980  20.6073  20.6675  20.6974  20.7475  20.7670  20.8423
    20.8734  20.8820  20.9380  20.9903  21.0120  21.0295  21.0603  21.0964
    21.2219  21.2285  21.2490  21.2950  21.3688  21.3888  21.4228  21.4451
    21.4716  21.4939  21.5905  21.6071  21.6367  21.6640  21.6823  21.7053
    21.7533  21.7790  21.8306  21.8448  21.8691  21.8951  21.9158  21.9539
    21.9723  21.9771  22.0206  22.1046  22.1065  22.1294  22.1821  22.2169
    22.2601  22.2885  22.3603  22.4098

          k = 0.0000 0.0000 0.0423 ( 43518 PWs)   bands (ev):

   -25.4649 -25.4638 -23.5095 -23.5079 -20.3203 -20.2520 -20.0689 -19.7907
   -19.4252 -18.9783 -18.4518 -17.8421 -17.1803 -16.6720 -16.6215 -16.5171
   -16.4017 -16.2241 -15.8980 -15.7734 -15.4780 -15.2357 -14.9358 -14.8028
   -13.8325 -13.6751 -13.5246 -13.1885 -13.0062 -12.6599 -12.5147 -12.4892
   -12.4422 -12.2820 -12.2254 -12.0302 -11.7080 -11.2918 -11.2358 -11.0904
   -10.5852 -10.4861 -10.3414 -10.0922  -9.9175  -9.7741  -9.5288  -9.3439
    -9.1559  -8.8511  -8.7967  -8.6614  -8.5251  -8.4436  -8.2921  -8.2441
    -8.0942  -7.9999  -7.8910  -7.8112  -7.7163  -7.5907  -7.4501  -7.3253
    -7.1667  -7.0931  -6.8832  -6.6913  -6.4978  -6.3536  -6.1826  -6.0192
    -5.8103  -5.7277  -5.5538  -5.4491  -5.3061  -5.1241  -5.0337  -4.9980
    -4.7769  -4.6047  -4.4245  -4.2537  -4.1397  -3.9185  -3.7196  -3.6043
    -3.2203  -3.0454  -2.7888  -2.5230  -2.3451  -2.2179   0.2645   0.4177
     0.5178   0.7750   1.0819   1.1179   1.4069   1.4606   1.6397   1.6860
     1.8397   1.8737   1.9420   2.2685   2.4180   2.5067   2.6557   2.9377
     2.9859   3.1383   3.1858   3.4491   3.5153   3.5998   3.8266   3.8945
     3.9401   4.0792   4.1356   4.2872   4.6058   4.6592   4.6718   4.8151
     4.8729   5.0083   5.0276   5.2090   5.3414   5.3692   5.4344   5.5384
     5.8798   5.9698   6.0401   6.1484   6.2395   6.2677   6.3274   6.3818
     6.4428   6.5212   6.6231   6.7105   6.8873   6.9815   7.1020   7.2410
     7.2553   7.2945   7.3661   7.3976   7.4029   7.4633   7.4808   7.5101
     7.5169   7.5547   7.6771   7.6982   7.7074   7.7269   7.7343   7.8076
     7.8785   7.9178   7.9741   7.9996   8.0432   8.1010   8.1950   8.2212
     8.3442   8.3905   8.4414   8.4575   8.5457   8.5836   8.6589   8.7097
     8.7478   8.8204   8.8814   8.9931   9.0035   9.0411   9.0775   9.1034
     9.1322   9.1631   9.2003   9.3138   9.3233   9.3798   9.4128   9.4453
     9.5429   9.5907   9.6216   9.6529   9.6933   9.7492   9.7581   9.7915
     9.8118   9.9269   9.9488   9.9524  10.0022  10.0462  10.0975  10.1276
    10.1355  10.1724  10.1920  10.2379  10.3013  10.3676  10.4216  10.4513
    10.5140  10.5880  10.6852  10.7664  10.7985  10.8205  10.9337  10.9854
    11.1146  11.2250  11.2688  11.3510  11.3823  11.4169  11.4450  11.4498
    11.5039  11.5371  11.5750  11.6219  11.6281  11.6909  11.7336  11.7786
    11.7965  11.8953  11.9466  11.9739  12.0899  12.1016  12.1348  12.2143
    12.2661  12.2923  12.3007  12.3272  12.3800  12.4358  12.4404  12.4865
    12.5026  12.5314  12.5523  12.5929  12.6170  12.6511  12.7008  12.7247
    12.7907  12.8102  12.8859  12.9131  12.9232  12.9822  13.0025  13.0158
    13.0407  13.1474  13.1563  13.1906  13.2050  13.2605  13.2840  13.3227
    13.3471  13.4076  13.4458  13.5111  13.5799  13.5901  13.6424  13.7051
    13.7306  13.8880  13.9072  13.9971  14.0523  14.1120  14.2354  14.2969
    14.3458  14.3959  14.4364  14.4632  14.5533  14.6804  14.6951  14.7278
    14.7663  14.8147  14.8537  14.8900  14.9077  14.9636  14.9738  15.0091
    15.1377  15.1632  15.2147  15.2374  15.2499  15.2758  15.3245  15.3401
    15.3698  15.3930  15.4439  15.4727  15.5073  15.5745  15.6059  15.6417
    15.6580  15.7006  15.7387  15.7834  15.8119  15.8956  15.9782  16.1268
    16.1498  16.2257  16.2524  16.2972  16.3310  16.3904  16.4020  16.4263
    16.4916  16.5230  16.5564  16.5854  16.6011  16.6405  16.6830  16.7238
    16.7400  16.7521  16.8123  16.8357  16.8838  16.8950  16.9249  16.9945
    17.0668  17.0899  17.1486  17.2324  17.2547  17.2682  17.2815  17.2953
    17.3252  17.4053  17.4223  17.4578  17.4705  17.4981  17.5222  17.5419
    17.6153  17.6511  17.7028  17.8140  17.8552  17.8590  17.8854  17.9155
    17.9589  17.9838  18.0717  18.1334  18.1581  18.2143  18.2954  18.3443
    18.4053  18.4435  18.4917  18.5436  18.5816  18.6115  18.6196  18.6256
    18.6527  18.6772  18.7000  18.7278  18.7717  18.8202  18.8571  18.8734
    18.9596  19.0479  19.0828  19.1057  19.1186  19.1483  19.1684  19.1737
    19.2240  19.3486  19.3643  19.5427  19.5945  19.6788  19.7689  19.8181
    19.8542  19.8714  19.8926  19.9212  19.9793  20.0212  20.0771  20.0915
    20.1351  20.2279  20.2609  20.3386  20.3840  20.3937  20.4324  20.4880
    20.5446  20.6025  20.6213  20.6357  20.7003  20.8117  20.8189  20.8880
    20.9193  20.9263  20.9645  20.9673  21.0930  21.1254  21.1551  21.1822
    21.2228  21.2410  21.3161  21.3409  21.3461  21.4358  21.4484  21.4998
    21.5240  21.5442  21.5844  21.6489  21.6746  21.6852  21.7061  21.7141
    21.7794  21.7898  21.8154  21.8216  21.8911  21.9052  21.9401  22.0174
    22.0448  22.1017  22.1425  22.1792  22.1900  22.2002  22.2274  22.2674
    22.2957  22.3384  22.4035  22.4101

          k = 0.0000 0.0000 0.0469 ( 43552 PWs)   bands (ev):

   -25.4392 -25.4381 -23.5516 -23.5501 -20.2755 -20.2075 -20.0245 -19.7466
   -19.3814 -18.9349 -18.4089 -17.8002 -17.1426 -16.8410 -16.7904 -16.6444
   -16.4234 -16.3825 -16.0533 -15.7950 -15.5845 -15.3175 -14.9924 -14.8869
   -13.8221 -13.6300 -13.5911 -13.1704 -13.0638 -12.5845 -12.4805 -12.2898
   -12.2728 -12.1029 -12.0444 -11.9687 -11.7422 -11.2663 -11.1380 -11.0996
   -10.6457 -10.3686 -10.2196 -10.0764  -9.8748  -9.7153  -9.5051  -9.3032
    -9.1228  -8.8158  -8.7849  -8.6248  -8.4850  -8.3853  -8.2467  -8.1971
    -8.0684  -7.9641  -7.8921  -7.8103  -7.6612  -7.5482  -7.4078  -7.2736
    -7.1768  -7.1227  -6.8369  -6.6749  -6.5343  -6.3236  -6.2085  -6.0648
    -5.8127  -5.7243  -5.6120  -5.4977  -5.3686  -5.1729  -5.1169  -5.0464
    -4.8967  -4.6871  -4.4222  -4.3928  -4.3069  -4.0853  -3.7738  -3.7008
    -3.3876  -3.0744  -2.9337  -2.6313  -2.4452  -2.3336   0.3544   0.4969
     0.5950   0.9382   1.0487   1.3050   1.5027   1.6336   1.6883   1.8409
     1.8906   2.0689   2.1769   2.3300   2.4784   2.5451   2.6161   2.9976
     3.0341   3.1989   3.2430   3.4249   3.5527   3.6281   3.8795   3.9546
     3.9916   4.1384   4.1954   4.2733   4.6481   4.6816   4.7156   4.8449
     4.9280   5.0670   5.0843   5.1927   5.3796   5.4236   5.4903   5.5805
     5.8314   5.9445   6.0379   6.1067   6.2192   6.2447   6.3426   6.4042
     6.4410   6.5649   6.6209   6.6928   6.8643   6.9722   7.0421   7.1678
     7.1841   7.2372   7.2845   7.3028   7.3490   7.3780   7.4115   7.4156
     7.4995   7.5335   7.5887   7.6117   7.6369   7.7252   7.7412   7.7646
     7.7845   7.9075   7.9376   7.9424   7.9939   8.0251   8.0999   8.1189
     8.2261   8.2889   8.3347   8.3432   8.4300   8.5407   8.6329   8.6598
     8.6943   8.7118   8.7527   8.7781   8.8709   8.8796   8.9074   8.9243
     9.0262   9.1254   9.1695   9.1902   9.2425   9.2520   9.2825   9.3993
     9.5085   9.5121   9.5379   9.5531   9.6254   9.6520   9.6920   9.7839
     9.8064   9.8442   9.8860   9.9053   9.9313   9.9543   9.9959  10.0520
    10.1120  10.1458  10.1693  10.2055  10.2098  10.3125  10.3341  10.3962
    10.4530  10.4922  10.5479  10.6747  10.7605  10.8441  10.9298  10.9755
    11.0474  11.1461  11.1617  11.2573  11.2983  11.3228  11.3438  11.4113
    11.4709  11.4930  11.5726  11.6579  11.6669  11.6948  11.7480  11.7783
    11.8485  11.9151  11.9334  11.9552  12.0807  12.1045  12.1616  12.1897
    12.2099  12.2544  12.2640  12.2769  12.3680  12.3803  12.4349  12.4675
    12.5041  12.5192  12.5605  12.5888  12.6211  12.6701  12.6770  12.7794
    12.8424  12.8570  12.8901  12.9081  13.0018  13.0610  13.0845  13.1478
    13.1862  13.2041  13.2217  13.2703  13.2945  13.3093  13.3190  13.3397
    13.3828  13.4125  13.4588  13.5231  13.5691  13.5795  13.6428  13.6911
    13.7582  13.8710  13.8859  14.0173  14.0273  14.1462  14.2901  14.3319
    14.3895  14.4896  14.5391  14.5618  14.6022  14.6432  14.7314  14.7690
    14.8141  14.8687  14.8987  14.9042  14.9852  15.0011  15.0715  15.1287
    15.1973  15.2530  15.2986  15.3146  15.3505  15.3691  15.4019  15.4237
    15.4728  15.4916  15.5085  15.5574  15.6004  15.6287  15.6481  15.7140
    15.7443  15.7872  15.8116  15.8738  15.9014  15.9253  16.0725  16.0955
    16.1356  16.1952  16.2124  16.3037  16.3393  16.3642  16.4084  16.4800
    16.4893  16.5269  16.5558  16.5851  16.6087  16.6201  16.7222  16.7551
    16.7679  16.7844  16.8436  16.8575  16.9345  16.9574  16.9742  17.0196
    17.0775  17.1461  17.1832  17.2242  17.2619  17.2792  17.3003  17.3254
    17.3595  17.3709  17.4359  17.4881  17.4998  17.5236  17.5534  17.5979
    17.6557  17.7321  17.7645  17.8534  17.8792  17.9546  17.9856  18.0271
    18.0517  18.1004  18.1451  18.1460  18.2254  18.2598  18.2981  18.3808
    18.4016  18.4584  18.4809  18.5380  18.6271  18.6372  18.6518  18.6823
    18.6902  18.7443  18.7710  18.8082  18.8169  18.8643  18.9093  19.0114
    19.0998  19.1395  19.1477  19.1918  19.1992  19.2211  19.2641  19.2915
    19.3838  19.4353  19.5459  19.5967  19.6208  19.7099  19.7677  19.8012
    19.8349  19.8457  19.9428  19.9722  20.0063  20.0988  20.1558  20.1772
    20.2448  20.2597  20.3416  20.3771  20.4016  20.4395  20.4593  20.4934
    20.5210  20.5655  20.5994  20.6872  20.7149  20.7368  20.7717  20.8551
    20.9242  21.0204  21.0354  21.1001  21.1350  21.1965  21.2405  21.2547
    21.2679  21.3475  21.3810  21.3956  21.4480  21.4872  21.5234  21.5294
    21.5461  21.6026  21.6239  21.6317  21.6637  21.6876  21.6918  21.7377
    21.7628  21.7926  21.8358  21.9465  21.9662  21.9792  21.9936  22.1060
    22.1449  22.1647  22.1867  22.2402  22.2614  22.2873  22.3073  22.3211
    22.3503  22.3879  22.4283  22.4664

          k = 0.0000 0.0000 0.0516 ( 43556 PWs)   bands (ev):

   -25.4112 -25.4101 -23.5965 -23.5951 -20.2260 -20.1582 -19.9755 -19.6979
   -19.3330 -18.8870 -18.3616 -17.7542 -17.1094 -17.0113 -16.9505 -16.8053
   -16.5517 -16.4001 -16.1969 -15.8820 -15.6208 -15.4290 -15.0231 -14.9818
   -13.8147 -13.6814 -13.5606 -13.1927 -13.0813 -12.5475 -12.5204 -12.0842
   -12.0535 -11.9620 -11.8929 -11.8416 -11.7119 -11.2997 -11.0533 -11.0262
   -10.7210 -10.2830 -10.1130 -10.0465  -9.8005  -9.6798  -9.4647  -9.2246
    -9.1234  -8.7977  -8.7331  -8.5820  -8.4420  -8.3124  -8.1950  -8.1445
    -8.0911  -7.9280  -7.8617  -7.7762  -7.6009  -7.5077  -7.3620  -7.2620
    -7.2182  -7.0813  -6.7924  -6.6692  -6.5785  -6.3093  -6.2268  -6.1065
    -5.8468  -5.7246  -5.6709  -5.5373  -5.4334  -5.2915  -5.2248  -5.0410
    -4.9926  -4.7760  -4.5932  -4.4773  -4.3570  -4.2540  -3.9421  -3.6878
    -3.5495  -3.1724  -3.0106  -2.7651  -2.5218  -2.4499   0.4450   0.5239
     0.7258   0.9975   1.1188   1.4935   1.5749   1.6738   1.8411   1.8610
     2.1156   2.3055   2.3974   2.4210   2.5027   2.5456   2.6544   3.0639
     3.0935   3.2658   3.3032   3.3623   3.6051   3.6849   3.9335   4.0208
     4.0514   4.2010   4.2425   4.2627   4.6733   4.7340   4.7772   4.8630
     4.9883   5.1316   5.1466   5.1852   5.4127   5.4813   5.5500   5.6299
     5.7412   5.8958   5.9605   6.1166   6.1907   6.2368   6.3752   6.4475
     6.4760   6.6018   6.6187   6.6786   6.8020   6.9233   6.9492   7.0445
     7.1074   7.1267   7.1821   7.1936   7.2440   7.3027   7.3538   7.4085
     7.4466   7.4966   7.5308   7.5362   7.6026   7.6220   7.7207   7.7614
     7.8057   7.8323   7.8597   7.8736   7.8938   7.9415   8.0529   8.1352
     8.1692   8.1934   8.2136   8.2326   8.3497   8.4820   8.4989   8.5410
     8.6049   8.6242   8.6334   8.7059   8.7422   8.7534   8.7754   8.8173
     8.8841   8.9839   9.0442   9.0676   9.1968   9.2241   9.2511   9.3384
     9.3780   9.4267   9.4621   9.4781   9.5626   9.5860   9.6052   9.6307
     9.6845   9.7267   9.7879   9.8071   9.9229   9.9336   9.9466  10.0464
    10.0562  10.1038  10.1494  10.1869  10.2150  10.2295  10.2714  10.3399
    10.4051  10.4669  10.5230  10.6264  10.7108  10.8243  10.8742  10.8977
    10.9772  10.9866  11.0881  11.1595  11.2319  11.2808  11.3057  11.3899
    11.4527  11.4909  11.5975  11.6624  11.6735  11.7155  11.7471  11.8226
    11.8542  11.9030  11.9211  11.9716  12.0074  12.0282  12.1015  12.1621
    12.1928  12.2096  12.2288  12.2746  12.2884  12.2978  12.3908  12.4320
    12.5185  12.5525  12.5736  12.5987  12.6510  12.6887  12.7144  12.8029
    12.8126  12.8633  12.8788  12.9330  13.0561  13.0758  13.0786  13.1465
    13.1564  13.1981  13.2316  13.2915  13.3131  13.3784  13.3961  13.4829
    13.5029  13.5276  13.5364  13.5638  13.5820  13.6104  13.7009  13.7297
    13.8375  13.8535  13.9028  14.0165  14.0865  14.1866  14.2648  14.2856
    14.4406  14.4705  14.4991  14.5705  14.6483  14.6703  14.6845  14.7995
    14.9030  14.9538  14.9833  15.0213  15.0914  15.1281  15.2035  15.2141
    15.2733  15.3077  15.3739  15.3985  15.4166  15.4457  15.4874  15.5092
    15.5576  15.5617  15.5764  15.6023  15.6678  15.6968  15.7098  15.7788
    15.8350  15.8599  15.8870  15.9267  15.9599  16.0166  16.0572  16.0902
    16.1199  16.1831  16.2294  16.3056  16.3121  16.3891  16.3981  16.4271
    16.4801  16.5307  16.5594  16.5804  16.6515  16.6828  16.7533  16.7876
    16.7966  16.8223  16.8386  16.9106  16.9400  16.9903  17.0692  17.1071
    17.1208  17.1802  17.1991  17.2338  17.3259  17.3436  17.3673  17.3990
    17.4384  17.4632  17.4907  17.4932  17.5662  17.6107  17.6544  17.6587
    17.6797  17.7258  17.8456  17.8751  17.9430  17.9793  18.0147  18.0664
    18.1346  18.1746  18.1894  18.2521  18.2902  18.3255  18.3564  18.4022
    18.4653  18.5075  18.5505  18.5682  18.6762  18.6849  18.7121  18.7358
    18.7474  18.8008  18.8121  18.8724  18.9065  18.9955  19.0345  19.0596
    19.0666  19.1551  19.2180  19.2421  19.2792  19.3263  19.3938  19.4030
    19.4431  19.5659  19.6375  19.6931  19.7003  19.7305  19.7892  19.8345
    19.8509  19.9181  19.9784  20.0121  20.0500  20.1226  20.1473  20.2046
    20.2232  20.3171  20.3995  20.4303  20.4417  20.4650  20.5410  20.5441
    20.5674  20.6270  20.6473  20.6882  20.7026  20.7149  20.8264  20.8966
    20.9289  21.0067  21.1170  21.1411  21.2360  21.2714  21.2802  21.2894
    21.3323  21.3421  21.3797  21.4039  21.4245  21.4580  21.5089  21.5390
    21.5985  21.6195  21.6560  21.7071  21.7324  21.8149  21.8419  21.8685
    21.8779  21.9217  21.9521  21.9911  22.0273  22.0557  22.1130  22.1605
    22.1855  22.2077  22.2375  22.2526  22.2877  22.3143  22.3467  22.3768
    22.4344  22.4489  22.4864  22.5054

          k = 0.0000 0.0000 0.0563 ( 43584 PWs)   bands (ev):

   -25.3811 -25.3801 -23.6437 -23.6423 -20.1718 -20.1044 -19.9219 -19.6446
   -19.2802 -18.8346 -18.3101 -17.7046 -17.1820 -17.1540 -17.0278 -16.9659
   -16.7092 -16.4378 -16.2764 -16.0121 -15.6129 -15.5534 -15.0844 -15.0447
   -13.8285 -13.7205 -13.5290 -13.2431 -13.0613 -12.5744 -12.5171 -11.9793
   -11.9157 -11.7975 -11.7562 -11.6377 -11.5704 -11.3403 -10.9759 -10.9366
   -10.7855 -10.2966  -9.9972  -9.9511  -9.7650  -9.6155  -9.3885  -9.1633
    -9.1218  -8.7581  -8.6846  -8.5268  -8.3912  -8.2481  -8.1384  -8.1300
    -8.0854  -7.8724  -7.8125  -7.7328  -7.5379  -7.4824  -7.3393  -7.3027
    -7.1650  -7.0432  -6.7565  -6.7028  -6.5935  -6.3246  -6.2548  -6.1179
    -5.9047  -5.8026  -5.6761  -5.5689  -5.4985  -5.4339  -5.3308  -5.1384
    -4.9698  -4.8698  -4.7649  -4.6470  -4.4231  -4.3198  -4.1101  -3.7468
    -3.6372  -3.3216  -3.0378  -2.9082  -2.5901  -2.5650   0.5358   0.5472
     0.8622   0.9647   1.2813   1.6180   1.6519   1.6845   1.9230   2.0537
     2.3463   2.4199   2.4755   2.5529   2.6194   2.6726   2.7245   3.1365
     3.1612   3.2723   3.3398   3.3798   3.6662   3.7529   3.9774   4.0930
     4.1179   4.2011   4.2794   4.3342   4.7094   4.7878   4.8436   4.8688
     5.0529   5.1947   5.2024   5.2156   5.4302   5.5348   5.5863   5.6318
     5.6948   5.8506   5.8663   6.1282   6.1724   6.2502   6.4045   6.4900
     6.5231   6.5880   6.6138   6.6405   6.7375   6.7804   6.8752   6.9600
     6.9743   7.0208   7.0803   7.1130   7.1848   7.2392   7.2535   7.3665
     7.3877   7.4172   7.4726   7.4947   7.5258   7.5767   7.6363   7.7215
     7.7524   7.7758   7.7953   7.8544   7.8862   7.9049   8.0005   8.0252
     8.0733   8.1391   8.1743   8.2121   8.2459   8.3303   8.3843   8.4157
     8.4375   8.4932   8.5455   8.5560   8.7048   8.7288   8.7383   8.7954
     8.8082   8.8281   8.8760   8.9531   9.0922   9.1530   9.2101   9.2853
     9.2879   9.3485   9.3616   9.3898   9.4397   9.4563   9.5038   9.5102
     9.5891   9.6356   9.6742   9.7612   9.8296   9.9133   9.9772   9.9980
    10.0285  10.0717  10.1168  10.1392  10.1946  10.2182  10.2661  10.3073
    10.3951  10.4719  10.5062  10.6344  10.6450  10.6963  10.7161  10.8203
    10.8759  10.9641  11.0521  11.0915  11.1882  11.2409  11.3143  11.3729
    11.4437  11.4971  11.5954  11.6130  11.6522  11.7462  11.7715  11.7775
    11.8040  11.8749  11.9028  11.9549  11.9708  12.0405  12.0717  12.0759
    12.0911  12.1517  12.1641  12.2297  12.2731  12.3438  12.4181  12.4270
    12.4662  12.5113  12.5926  12.6313  12.6807  12.7092  12.7480  12.7822
    12.8016  12.8564  12.8752  12.9208  12.9551  12.9993  13.0547  13.1303
    13.1848  13.2271  13.2760  13.3161  13.3644  13.4021  13.4401  13.4586
    13.5019  13.5225  13.6243  13.6675  13.7049  13.7579  13.8099  13.8236
    13.8753  13.8997  13.9963  14.0246  14.1202  14.1595  14.2123  14.2684
    14.4181  14.4676  14.5122  14.5916  14.6461  14.7221  14.7714  14.8146
    14.9224  15.0130  15.0495  15.0942  15.1525  15.2226  15.2667  15.3009
    15.3390  15.4111  15.4276  15.4313  15.4625  15.5013  15.5384  15.5683
    15.6373  15.6523  15.6907  15.7153  15.7318  15.7470  15.7545  15.7735
    15.8417  15.8919  15.8955  15.9612  16.0018  16.0416  16.0820  16.1356
    16.1441  16.2248  16.2388  16.3395  16.3577  16.3958  16.4287  16.5110
    16.5276  16.5424  16.5865  16.6067  16.6872  16.7562  16.7616  16.7724
    16.8059  16.8175  16.8453  16.9476  16.9636  17.0387  17.0802  17.1728
    17.2138  17.2276  17.2647  17.3486  17.3634  17.4029  17.4494  17.4898
    17.5094  17.5372  17.5480  17.6560  17.6676  17.6859  17.7114  17.7492
    17.8031  17.8148  17.9266  17.9495  17.9719  18.0056  18.0452  18.1051
    18.1240  18.1846  18.2121  18.2955  18.3253  18.3834  18.4508  18.4751
    18.5466  18.6170  18.6531  18.6876  18.7114  18.7373  18.7842  18.7889
    18.8054  18.8446  18.8711  18.9331  19.0263  19.0782  19.1117  19.1424
    19.1734  19.2202  19.2405  19.3105  19.3269  19.3783  19.4967  19.5040
    19.5580  19.5878  19.6083  19.6599  19.6807  19.7673  19.8265  19.8719
    19.9345  19.9797  20.0554  20.1095  20.1587  20.1637  20.2041  20.2521
    20.2627  20.3125  20.3687  20.4239  20.4517  20.4782  20.5214  20.5763
    20.6419  20.7023  20.7414  20.7807  20.8153  20.8198  20.8898  21.0074
    21.0456  21.0823  21.1028  21.1568  21.2179  21.2420  21.2482  21.2773
    21.3100  21.3767  21.4131  21.4242  21.4747  21.5050  21.5168  21.5591
    21.6237  21.6518  21.6871  21.8011  21.8428  21.8969  21.9332  21.9770
    22.0062  22.0371  22.0617  22.0875  22.1195  22.1591  22.1682  22.1988
    22.2305  22.2580  22.2789  22.3157  22.3433  22.3543  22.3911  22.4250
    22.4367  22.4915  22.5311  22.5695

          k = 0.0000 0.0000 0.0610 ( 43572 PWs)   bands (ev):

   -25.3493 -25.3483 -23.6926 -23.6914 -20.1130 -20.0459 -19.8636 -19.5867
   -19.2228 -18.7779 -18.2543 -17.6524 -17.3461 -17.3048 -17.1313 -17.0008
   -16.8521 -16.5637 -16.2618 -16.1522 -15.6914 -15.5848 -15.1902 -15.0685
   -13.8714 -13.7209 -13.5306 -13.2669 -13.0444 -12.6099 -12.5089 -11.9504
   -11.9013 -11.5722 -11.5501 -11.4237 -11.3903 -11.3522 -10.9567 -10.8573
   -10.7829 -10.3482  -9.9315  -9.8386  -9.7005  -9.5195  -9.3017  -9.1958
    -9.0214  -8.7020  -8.6572  -8.4568  -8.3344  -8.2290  -8.1166  -8.0767
    -8.0191  -7.8067  -7.7597  -7.6840  -7.5127  -7.4706  -7.3495  -7.2519
    -7.1154  -7.0090  -6.7804  -6.7259  -6.5744  -6.3583  -6.3186  -6.0862
    -5.9845  -5.9069  -5.7097  -5.6277  -5.5645  -5.5464  -5.4144  -5.2482
    -4.9796  -4.9351  -4.9154  -4.8156  -4.5903  -4.2953  -4.2616  -3.9018
    -3.6270  -3.4785  -3.0653  -3.0469  -2.6771  -2.6562   0.5728   0.6258
     0.9320   0.9980   1.4454   1.5548   1.7343   1.8672   2.0056   2.2640
     2.3436   2.5546   2.5800   2.7004   2.7990   2.8055   2.9302   3.1823
     3.2171   3.2356   3.4194   3.4531   3.7334   3.8277   3.9822   4.1696
     4.1896   4.2000   4.3559   4.4125   4.7545   4.7924   4.9055   4.9137
     5.1201   5.2246   5.2757   5.2862   5.4096   5.4532   5.5852   5.6851
     5.7515   5.7746   5.8590   6.0881   6.1772   6.2684   6.3894   6.4416
     6.5205   6.5429   6.5970   6.5995   6.6871   6.7232   6.8157   6.8573
     6.8720   6.9664   7.0091   7.0265   7.0740   7.1345   7.2337   7.2561
     7.2936   7.3434   7.3725   7.4010   7.5267   7.5446   7.5619   7.6178
     7.6977   7.7351   7.7815   7.7859   7.8520   7.9021   7.9557   7.9916
     8.0003   8.0141   8.0838   8.1494   8.1677   8.2194   8.2317   8.2821
     8.3445   8.3892   8.4883   8.5363   8.5626   8.6055   8.6640   8.6690
     8.7609   8.8403   8.8585   8.9088   9.0269   9.0376   9.0455   9.1296
     9.1505   9.1847   9.2806   9.2907   9.3655   9.4141   9.4415   9.4468
     9.4984   9.5098   9.6566   9.7060   9.7845   9.8055   9.9457   9.9783
    10.0233  10.0438  10.0870  10.1102  10.1619  10.2469  10.2586  10.3294
    10.3837  10.4298  10.4798  10.5163  10.5367  10.6655  10.6896  10.7462
    10.7879  10.9503  11.0005  11.0961  11.1628  11.2204  11.3107  11.3574
    11.3783  11.4860  11.5608  11.5795  11.6082  11.6326  11.6874  11.7770
    11.7900  11.8156  11.8947  11.9374  11.9699  11.9976  12.0313  12.0561
    12.1097  12.1436  12.1744  12.1777  12.2827  12.3577  12.3659  12.4206
    12.4773  12.5250  12.5645  12.6327  12.6588  12.6832  12.6924  12.7475
    12.7683  12.8236  12.9031  12.9121  12.9460  12.9707  13.0621  13.1102
    13.2100  13.2494  13.2835  13.3066  13.3310  13.3693  13.4406  13.4696
    13.5303  13.6018  13.6679  13.7195  13.7863  13.8358  13.8555  13.8929
    13.9439  13.9919  14.0368  14.0632  14.0881  14.1270  14.2667  14.3610
    14.4379  14.4512  14.5344  14.6207  14.7353  14.7736  14.8204  14.8542
    14.9621  15.0087  15.0599  15.0985  15.1982  15.2100  15.2822  15.3433
    15.3749  15.4049  15.4635  15.4909  15.5378  15.5588  15.6038  15.6081
    15.6285  15.6397  15.6474  15.6642  15.7711  15.8083  15.8360  15.8473
    15.9045  15.9438  16.0017  16.0689  16.1014  16.1197  16.1212  16.1599
    16.1779  16.2276  16.2974  16.3443  16.3684  16.4350  16.4611  16.5411
    16.5668  16.6244  16.6383  16.6913  16.7518  16.7777  16.8156  16.8497
    16.8588  16.8828  16.9484  16.9727  17.0136  17.1189  17.1364  17.1812
    17.2422  17.2683  17.3216  17.4231  17.4379  17.4550  17.4701  17.5411
    17.5759  17.5827  17.6477  17.7090  17.8225  17.8450  17.8654  17.8847
    17.8978  17.9277  17.9756  17.9897  18.0398  18.0736  18.0766  18.1611
    18.2392  18.2563  18.3249  18.3573  18.3685  18.4836  18.4969  18.5343
    18.6013  18.6237  18.6811  18.6892  18.7257  18.7582  18.7768  18.8122
    18.8685  18.9782  18.9883  19.0559  19.1550  19.1965  19.2120  19.2541
    19.2861  19.3509  19.3556  19.3915  19.4056  19.4359  19.5003  19.5616
    19.5743  19.6130  19.6247  19.6710  19.6888  19.7582  19.8576  19.9014
    19.9225  20.0252  20.0543  20.1252  20.1767  20.2021  20.2321  20.2808
    20.3294  20.4112  20.4257  20.4938  20.4974  20.5683  20.6099  20.6391
    20.7471  20.7619  20.7847  20.8558  20.8787  20.8982  20.9416  21.0115
    21.0551  21.1152  21.1679  21.1855  21.2295  21.2335  21.3202  21.3700
    21.4072  21.4377  21.4676  21.4793  21.5016  21.5390  21.5978  21.6307
    21.6845  21.7060  21.8119  21.8681  21.8741  21.9236  21.9512  21.9702
    22.0192  22.0244  22.0487  22.1067  22.1616  22.1839  22.2327  22.2516
    22.2639  22.2838  22.3249  22.4109  22.4239  22.5056  22.5167  22.5299
    22.5467  22.6157  22.6351  22.6430

          k = 0.0000 0.0000 0.0657 ( 43558 PWs)   bands (ev):

   -25.3159 -25.3150 -23.7429 -23.7417 -20.0495 -19.9827 -19.8008 -19.5243
   -19.1609 -18.7168 -18.1946 -17.6046 -17.5022 -17.4611 -17.2863 -17.0607
   -16.8973 -16.7084 -16.3028 -16.2143 -15.8228 -15.5665 -15.2917 -15.1006
   -13.9145 -13.7251 -13.5502 -13.2622 -13.0384 -12.6277 -12.5099 -11.9469
   -11.9016 -11.4239 -11.3318 -11.3114 -11.1938 -11.1878 -10.9878 -10.8049
   -10.7103 -10.3867  -9.9663  -9.6864  -9.5661  -9.4541  -9.2668  -9.1276
    -8.9355  -8.6520  -8.6300  -8.3891  -8.2740  -8.2246  -8.0574  -8.0097
    -7.9463  -7.7354  -7.7133  -7.6304  -7.5748  -7.4070  -7.3191  -7.1935
    -7.0790  -6.9792  -6.8539  -6.7204  -6.5483  -6.4132  -6.3848  -6.0899
    -6.0357  -6.0171  -5.8153  -5.7595  -5.6410  -5.5815  -5.4407  -5.3522
    -5.1148  -5.0698  -4.9817  -4.8680  -4.7546  -4.4440  -4.2351  -4.0623
    -3.6383  -3.6059  -3.1962  -3.0851  -2.7810  -2.7235   0.6020   0.7114
     0.9064   1.1315   1.4877   1.6080   1.8221   2.0299   2.1173   2.2501
     2.4862   2.6421   2.7793   2.8235   2.8900   3.0532   3.0880   3.1938
     3.3015   3.3150   3.5055   3.5323   3.8045   3.9055   3.9386   4.2442
     4.2509   4.2693   4.4385   4.4969   4.7439   4.8095   4.9743   4.9834
     5.1823   5.2168   5.3266   5.3548   5.3613   5.3825   5.5902   5.7440
     5.7779   5.8039   5.8790   6.0377   6.1193   6.2158   6.2993   6.3492
     6.4688   6.4794   6.5669   6.6202   6.6579   6.7050   6.7513   6.8117
     6.8404   6.9100   6.9470   6.9637   6.9838   7.0573   7.0828   7.1515
     7.2130   7.2644   7.3052   7.3322   7.4096   7.5258   7.5353   7.5992
     7.6081   7.6333   7.7263   7.7382   7.7917   7.8209   7.8503   7.9186
     7.9417   7.9895   8.0071   8.0570   8.0820   8.1100   8.1698   8.2360
     8.3219   8.3471   8.3758   8.3957   8.4622   8.5365   8.5539   8.5579
     8.7529   8.7853   8.8442   8.8644   8.8995   8.9420   8.9662   8.9977
     9.0082   9.0972   9.1343   9.1666   9.2327   9.2825   9.3892   9.4582
     9.4887   9.5162   9.6070   9.6940   9.7151   9.7471   9.8782   9.9298
     9.9471  10.0094  10.0662  10.1404  10.1429  10.2037  10.2537  10.3111
    10.3240  10.3965  10.4341  10.4543  10.5337  10.6119  10.6789  10.7461
[...]
     6.1459   6.1931   6.2230   6.2598   6.3066   6.3246   6.3708   6.4002
     6.5129   6.5475   6.5825   6.6093   6.6440   6.6820   6.7087   6.7439
     6.7642   6.7823   6.8012   6.8641   6.9387   6.9620   6.9865   7.0356
     7.0706   7.1182   7.1951   7.2366   7.2791   7.2853   7.3164   7.4065
     7.4672   7.4917   7.4987   7.5787   7.6153   7.6655   7.6884   7.7062
     7.7180   7.7561   7.8190   7.8791   7.9774   8.0981   8.1502   8.1595
     8.3273   8.3507   8.4236   8.4716   8.5271   8.5535   8.6402   8.7089
     8.7401   8.7861   8.8687   8.9004   8.9739   8.9781   9.0907   9.1719
     9.2112   9.2722   9.2916   9.4141   9.5031   9.6351   9.7031   9.7327
     9.8440   9.8898   9.9016   9.9124   9.9901  10.0673  10.1129  10.1223
    10.1519  10.2967  10.3722  10.4535  10.4558  10.5389  10.5984  10.6338
    10.7405  10.7603  10.7829  10.8564  10.8971  10.9872  11.0047  11.0189
    11.1704  11.2017  11.2542  11.2880  11.3273  11.3865  11.4116  11.4238
    11.6102  11.6742  11.7293  11.7596  11.7804  11.8304  11.8893  11.9092
    11.9427  12.0435  12.0582  12.0889  12.1125  12.1698  12.1824  12.2170
    12.3022  12.3572  12.4095  12.5401  12.5730  12.6092  12.6652  12.7577
    12.8536  12.8717  12.9102  12.9119  12.9427  12.9763  12.9893  13.0067
    13.0234  13.0937  13.2331  13.3265  13.3632  13.4439  13.5036  13.5700
    13.5806  13.6614  13.7285  13.7426  13.7698  13.7898  13.8098  13.9181
    13.9436  14.0329  14.0814  14.1973  14.2436  14.2702  14.3195  14.3347
    14.3829  14.5248  14.6088  14.6192  14.7274  14.7360  14.7903  14.8912
    14.9240  14.9727  15.0125  15.0424  15.1216  15.1539  15.1935  15.2280
    15.2800  15.3253  15.3809  15.4420  15.4502  15.4921  15.5850  15.6268
    15.7111  15.7537  15.8318  15.8505  15.8842  15.9248  16.0302  16.0812
    16.1087  16.1620  16.2127  16.2670  16.3226  16.3772  16.4520  16.4805
    16.5142  16.6489  16.6595  16.7392  16.8192  16.8815  16.9191  16.9451
    16.9793  17.0168  17.0521  17.1175  17.1256  17.2392  17.2724  17.3821
    17.3966  17.4194  17.4285  17.4680  17.4888  17.5076  17.5173  17.5795
    17.6048  17.6343  17.6830  17.7030  17.7476  17.7540  17.8281  17.8500
    17.9387  17.9840  18.0437  18.1602  18.2312  18.2636  18.3111  18.3437
    18.4084  18.4538  18.4919  18.5252  18.5739  18.6265  18.6915  18.7688
    18.7845  18.9264  18.9744  19.0060  19.0341  19.1170  19.1664  19.2066
    19.2790  19.3416  19.3583  19.4226  19.4506  19.4873  19.5263  19.5470
    19.6172  19.6395  19.7290  19.7903  19.8246  19.9030  19.9700  20.0015
    20.0742  20.1201  20.1236  20.1416  20.1996  20.2545  20.2662  20.2949
    20.3112  20.3713  20.4550  20.5067  20.5450  20.6098  20.6593  20.6623
    20.7454  20.7618  20.7861  20.8176  20.9319  20.9799  20.9962  21.0499
    21.0777  21.0940  21.1391  21.2080  21.2248  21.3068  21.3152  21.3427
    21.4037  21.4074  21.4213  21.4489  21.4839  21.5305  21.5441  21.5721
    21.6369  21.6721  21.6872  21.7033  21.7206  21.7831  21.8034  21.8251
    21.8738  21.8868  21.9403  21.9570  21.9686  21.9860  22.0068  22.0081
    22.0626  22.0639  22.0971  22.1679  22.2033  22.2280  22.2521  22.3061
    22.3085  22.3419  22.3483  22.3711  22.3800  22.4316  22.4812  22.5835
    22.6064  22.6336  22.6931  22.7214  22.7615  22.7774  22.7952  22.8063
    22.8577  22.8789  22.8876  22.9134

          k = 0.0000 0.0000 0.1080 ( 43588 PWs)   bands (ev):

   -25.0348 -25.0341 -24.1269 -24.1263 -19.2719 -19.2115 -19.0356 -18.8185
   -18.7653 -18.7402 -18.5640 -18.4115 -18.2846 -17.9989 -17.9058 -17.5392
   -17.4179 -17.0220 -16.8345 -16.4420 -16.2019 -15.8461 -15.5820 -15.3759
   -14.1335 -13.9512 -13.5969 -13.3273 -12.9139 -12.6560 -12.3355 -11.9875
   -11.8036 -11.4536 -11.3581 -11.2000 -10.9280 -10.5351 -10.1459  -9.7827
    -9.4145  -9.1979  -9.0318  -8.9969  -8.9380  -8.6958  -8.4365  -8.3401
    -8.1481  -8.0963  -8.0323  -7.9367  -7.9224  -7.9129  -7.7925  -7.7330
    -7.6107  -7.5383  -7.4940  -7.4611  -7.4127  -7.3740  -7.3224  -7.3053
    -7.2618  -7.1320  -7.0435  -7.0355  -6.9409  -6.8705  -6.7338  -6.6160
    -6.5498  -6.5065  -6.4754  -6.4658  -6.3008  -6.2450  -6.0770  -6.0311
    -5.9531  -5.7041  -5.6555  -5.2983  -5.2734  -4.8692  -4.7805  -4.4018
    -4.2334  -3.9220  -3.6972  -3.5104  -3.1941  -3.1398   0.7800   0.8818
     1.1059   1.3877   1.6613   2.0767   2.3209   2.7442   2.9403   3.0134
     3.0569   3.5383   3.5855   3.7081   3.7479   3.7865   3.8611   3.9602
     4.1760   4.3025   4.3799   4.4005   4.4719   4.5558   4.5897   4.5912
     4.6332   4.7065   4.8718   4.9833   4.9979   5.0994   5.1387   5.2148
     5.2519   5.2792   5.2936   5.3201   5.4637   5.4949   5.5126   5.5428
     5.5879   5.6264   5.7065   5.8900   5.9374   5.9867   6.0228   6.0555
     6.0711   6.1403   6.1635   6.1850   6.2628   6.3776   6.3902   6.4221
     6.4821   6.5160   6.5386   6.5641   6.6366   6.6596   6.6720   6.7167
     6.7435   6.7651   6.7758   6.8168   6.8604   6.9052   6.9388   6.9599
     7.0558   7.1037   7.1097   7.1944   7.2243   7.2361   7.2956   7.3688
     7.4185   7.4419   7.4644   7.5185   7.5445   7.6269   7.6613   7.7397
     7.7901   7.8009   7.8437   7.8785   7.9999   8.0307   8.1420   8.1841
     8.3099   8.3460   8.3730   8.3955   8.4414   8.4760   8.5604   8.6272
     8.7082   8.7933   8.8385   8.9756   8.9897   9.0610   9.0996   9.2159
     9.2638   9.3014   9.3584   9.4705   9.5208   9.5827   9.6405   9.6594
     9.7600   9.8467   9.9116   9.9173   9.9592   9.9794  10.0425  10.0813
    10.1226  10.2127  10.3393  10.4067  10.4993  10.6065  10.6450  10.6618
    10.6698  10.7329  10.7776  10.8785  10.9226  11.1082  11.1172  11.1782
    11.1921  11.2093  11.2334  11.2766  11.3420  11.3969  11.4646  11.4897
    11.5172  11.5647  11.6253  11.6580  11.6807  11.7899  11.8599  11.8715
    11.9458  11.9791  12.0283  12.0502  12.0983  12.1453  12.1988  12.2239
    12.2885  12.3533  12.3567  12.5923  12.6247  12.6810  12.6932  12.7251
    12.7832  12.8479  12.8985  12.9565  13.0010  13.0262  13.0470  13.0967
    13.1150  13.1354  13.2206  13.2315  13.3317  13.4471  13.5361  13.5625
    13.5766  13.6160  13.6425  13.6658  13.6697  13.7771  13.8259  13.8632
    13.8919  13.9161  14.1118  14.1843  14.2386  14.2552  14.3242  14.3860
    14.4115  14.5318  14.6530  14.6605  14.6976  14.7204  14.8022  14.9012
    14.9527  14.9703  14.9985  15.0461  15.1305  15.1696  15.1927  15.2386
    15.2741  15.3122  15.3187  15.4276  15.4500  15.4909  15.5767  15.6820
    15.7868  15.8097  15.8362  15.8856  15.9290  15.9882  16.0028  16.0830
    16.1559  16.2127  16.2247  16.2575  16.2787  16.3346  16.4223  16.5234
    16.5786  16.6304  16.6824  16.7350  16.8113  16.8488  16.9043  16.9335
    16.9791  17.0067  17.0397  17.0840  17.1573  17.2257  17.2688  17.3404
    17.3692  17.4067  17.4463  17.4737  17.4889  17.5265  17.5694  17.5807
    17.6290  17.6490  17.6637  17.7104  17.7565  17.7808  17.8206  17.8352
    17.8712  17.9659  18.0574  18.1738  18.1953  18.2113  18.2701  18.3233
    18.3863  18.4405  18.4654  18.5056  18.5246  18.6260  18.7308  18.7672
    18.7928  18.9240  18.9969  19.0726  19.0743  19.1322  19.2083  19.2896
    19.3168  19.3357  19.4256  19.4915  19.5136  19.5388  19.6519  19.6678
    19.7650  19.8529  19.8676  19.9078  19.9614  19.9865  19.9967  20.0463
    20.0681  20.1535  20.2256  20.3199  20.3410  20.3537  20.3937  20.4271
    20.4811  20.5733  20.6313  20.6886  20.7110  20.7556  20.8079  20.8282
    20.8605  20.8865  20.9414  20.9597  21.0186  21.0407  21.0748  21.0822
    21.0912  21.1148  21.2211  21.2516  21.2851  21.3140  21.3170  21.3370
    21.3751  21.3914  21.4253  21.4567  21.4870  21.5170  21.5278  21.5792
    21.5923  21.6724  21.6832  21.7050  21.7301  21.7722  21.7840  21.8154
    21.8496  21.8709  21.9450  21.9671  22.0033  22.0427  22.0493  22.0610
    22.1129  22.1373  22.1613  22.1869  22.2030  22.2649  22.2902  22.2983
    22.3048  22.3235  22.3314  22.3553  22.3713  22.4172  22.4853  22.5900
    22.6031  22.6354  22.6483  22.6621  22.6845  22.6928  22.7050  22.7556
    22.8013  22.8256  22.8400  22.8962

          k = 0.0000 0.0000 0.1127 ( 43556 PWs)   bands (ev):

   -25.0227 -25.0220 -24.1419 -24.1414 -19.1636 -19.1056 -18.9438 -18.9254
   -18.8580 -18.7162 -18.6259 -18.4313 -18.2805 -18.0717 -17.8476 -17.6355
   -17.3359 -17.1242 -16.7471 -16.5413 -16.1202 -15.9321 -15.5269 -15.4161
   -14.1082 -14.0080 -13.5358 -13.3927 -12.8554 -12.7094 -12.2926 -12.0144
   -11.7691 -11.4574 -11.3565 -11.2625 -10.9008 -10.5719 -10.1086  -9.8015
    -9.3616  -9.1436  -8.9050  -8.7777  -8.7208  -8.6839  -8.4298  -8.3331
    -8.2546  -8.1648  -8.1373  -8.1330  -7.8033  -7.7802  -7.7087  -7.6581
    -7.5629  -7.4989  -7.4820  -7.4710  -7.4577  -7.4352  -7.4113  -7.4016
    -7.3667  -7.1674  -6.9956  -6.9501  -6.8613  -6.8218  -6.7305  -6.6911
    -6.6544  -6.5598  -6.5128  -6.3816  -6.3028  -6.2949  -6.1750  -6.0292
    -5.9887  -5.7549  -5.6138  -5.4023  -5.1795  -4.9750  -4.6913  -4.4972
    -4.1618  -3.9974  -3.6564  -3.5542  -3.1904  -3.1599   0.7992   0.8525
     1.1678   1.3129   1.7600   1.9700   2.4455   2.6782   3.0027   3.0996
     3.1665   3.4232   3.5493   3.6518   3.8606   3.8739   3.9989   4.0792
     4.1477   4.1886   4.3196   4.4077   4.5014   4.5525   4.6003   4.6982
     4.7180   4.7580   4.8500   4.8815   5.0119   5.0529   5.0948   5.2077
     5.2140   5.2792   5.4063   5.4533   5.5009   5.5517   5.5874   5.6343
     5.6380   5.6814   5.6907   5.7576   5.8176   5.9383   6.0090   6.0520
     6.1006   6.1280   6.1664   6.1976   6.2492   6.2917   6.3687   6.4572
     6.4939   6.5002   6.5172   6.5348   6.5397   6.5773   6.6430   6.6567
     6.7259   6.7485   6.7939   6.8216   6.8333   6.8930   6.9456   6.9817
     7.0562   7.0693   7.1113   7.1377   7.1627   7.2251   7.2672   7.2873
     7.3370   7.4008   7.4657   7.4862   7.5161   7.6023   7.6391   7.6899
     7.8488   7.8845   7.9169   7.9509   8.0023   8.1144   8.1224   8.1681
     8.2152   8.2568   8.2978   8.3551   8.3856   8.4651   8.4782   8.5854
     8.7034   8.8020   8.8805   8.9513   9.0137   9.1128   9.1836   9.2459
     9.2670   9.3611   9.4226   9.4774   9.5352   9.5575   9.5943   9.6331
     9.7156   9.7790   9.7939   9.8756   9.8940   9.9720  10.0562  10.1006
    10.1628  10.1943  10.3042  10.3829  10.4770  10.5045  10.5639  10.6374
    10.7840  10.8094  10.8338  10.9983  11.0292  11.0705  11.1169  11.1293
    11.2222  11.2412  11.2804  11.3045  11.3608  11.3890  11.4929  11.4969
    11.5143  11.5369  11.5824  11.6097  11.6313  11.7318  11.7981  11.8416
    11.8797  11.9048  11.9862  12.0124  12.1082  12.1332  12.2444  12.2676
    12.3107  12.3653  12.3912  12.5543  12.5891  12.6155  12.7162  12.7739
    12.7937  12.8387  12.8869  12.9797  13.0161  13.0552  13.1083  13.1166
    13.1755  13.1962  13.2265  13.2614  13.3900  13.4386  13.4830  13.4965
    13.5113  13.5453  13.5658  13.6309  13.6779  13.7381  13.7546  13.8261
    13.9209  13.9637  14.1077  14.1262  14.2208  14.2423  14.3240  14.4093
    14.4668  14.4852  14.6697  14.6989  14.7601  14.7729  14.8390  14.9122
    14.9258  14.9584  14.9729  15.0334  15.0998  15.1418  15.1525  15.2170
    15.2390  15.2854  15.3614  15.4358  15.4990  15.5714  15.6394  15.6933
    15.7815  15.7985  15.8077  15.8812  15.9371  15.9917  16.0489  16.1268
    16.1491  16.2244  16.2369  16.2738  16.3163  16.3509  16.4606  16.4977
    16.5430  16.5841  16.6679  16.7639  16.8036  16.8198  16.8324  16.9317
    16.9513  17.0651  17.1057  17.1584  17.1607  17.2105  17.2788  17.2994
    17.3372  17.3743  17.4111  17.4537  17.4575  17.5174  17.5365  17.5514
    17.5884  17.6883  17.7309  17.7568  17.7744  17.7893  17.8404  17.9039
    17.9497  17.9838  18.0481  18.0853  18.1184  18.1352  18.1636  18.3081
    18.3291  18.4189  18.4890  18.5154  18.5476  18.5794  18.7338  18.7778
    18.8607  18.9489  18.9669  19.0573  19.0741  19.1269  19.2718  19.3098
    19.3431  19.3662  19.4263  19.5635  19.5939  19.6683  19.6890  19.7260
    19.8200  19.8926  19.9169  19.9418  19.9513  19.9965  20.0504  20.1231
    20.2815  20.3330  20.3949  20.4503  20.4839  20.4870  20.5146  20.6077
    20.6442  20.7051  20.7443  20.7792  20.8078  20.8356  20.8717  20.8834
    20.9608  20.9680  21.0051  21.0329  21.0515  21.0691  21.1018  21.1186
    21.1512  21.1566  21.2053  21.2145  21.2296  21.2666  21.2784  21.3230
    21.3534  21.3901  21.4237  21.4346  21.4642  21.5026  21.5409  21.5602
    21.6022  21.6642  21.6992  21.7232  21.7616  21.7743  21.7819  21.8362
    21.8462  21.8649  21.9151  21.9390  21.9565  21.9893  22.0140  22.0729
    22.0934  22.1005  22.1227  22.1627  22.1677  22.2388  22.2582  22.2653
    22.2914  22.3395  22.3668  22.4339  22.4630  22.5115  22.5372  22.5511
    22.5885  22.6042  22.6206  22.6335  22.6642  22.6807  22.6976  22.7381
    22.7644  22.7879  22.8210  22.8655

          k = 0.0000 0.0000-0.1174 ( 43576 PWs)   bands (ev):

   -25.0186 -25.0179 -24.1471 -24.1465 -19.0600 -19.0498 -18.9991 -18.9772
   -18.8236 -18.7977 -18.5521 -18.5206 -18.1984 -18.1611 -17.7653 -17.7231
   -17.2559 -17.2088 -16.6702 -16.6216 -16.0528 -16.0009 -15.4836 -15.4536
   -14.0805 -14.0468 -13.4796 -13.4506 -12.8126 -12.7507 -12.2740 -12.0271
   -11.7561 -11.4600 -11.3347 -11.3056 -10.8880 -10.5875 -10.0932  -9.8112
    -9.3440  -9.1274  -8.8320  -8.7550  -8.5692  -8.5552  -8.4332  -8.4268
    -8.3094  -8.3057  -8.1728  -8.1685  -7.6825  -7.6679  -7.6197  -7.6023
    -7.6022  -7.5912  -7.5190  -7.5174  -7.4858  -7.4670  -7.4415  -7.4331
    -7.2812  -7.2685  -6.9083  -6.8975  -6.8450  -6.8123  -6.7565  -6.7332
    -6.6915  -6.5798  -6.5341  -6.3341  -6.2894  -6.2814  -6.2630  -6.0640
    -5.9518  -5.8036  -5.5478  -5.4752  -5.0887  -5.0701  -4.6016  -4.5897
    -4.0903  -4.0703  -3.6147  -3.5957  -3.1802  -3.1750   0.8232   0.8244
     1.2370   1.2394   1.8622   1.8657   2.5619   2.5716   3.0672   3.0976
     3.2942   3.2973   3.5423   3.5970   3.9718   3.9816   4.0346   4.0379
     4.1494   4.1612   4.2812   4.2823   4.5761   4.6193   4.6655   4.6782
     4.7280   4.7512   4.8933   4.9122   4.9370   4.9420   5.0782   5.1543
     5.2947   5.3634   5.4329   5.4387   5.5841   5.5857   5.5966   5.5970
     5.6312   5.6602   5.7419   5.7748   5.8318   5.8498   5.9671   5.9750
     6.1439   6.1801   6.2075   6.2673   6.2910   6.2994   6.3052   6.3550
     6.3576   6.4111   6.5144   6.5437   6.6204   6.6411   6.6423   6.6777
     6.7064   6.7107   6.7518   6.7537   6.8699   6.9095   6.9344   7.0126
     7.0588   7.0899   7.1245   7.1340   7.1696   7.1718   7.2312   7.2363
     7.3204   7.3502   7.4721   7.4870   7.5491   7.5919   7.6294   7.6337
     7.8709   7.9012   7.9883   8.0478   8.0578   8.0585   8.1062   8.1286
     8.2148   8.2407   8.2507   8.2773   8.3952   8.4232   8.4608   8.5650
     8.7657   8.8162   8.8490   8.9086   9.0808   9.1057   9.2367   9.2465
     9.2854   9.3556   9.4384   9.4917   9.5187   9.5426   9.6313   9.6513
     9.6729   9.6872   9.8227   9.8269   9.8864   9.9781  10.0151  10.0501
    10.2399  10.2550  10.3304  10.3490  10.4114  10.4374  10.5322  10.6233
    10.8736  10.8818  10.9484  10.9613  10.9953  11.0179  11.1314  11.1647
    11.1886  11.2402  11.3213  11.3504  11.3772  11.3830  11.3988  11.4011
    11.5500  11.6038  11.6189  11.6244  11.6976  11.7307  11.7601  11.7613
    11.8030  11.8117  12.0012  12.0624  12.1120  12.1412  12.1977  12.2343
    12.3979  12.4299  12.4690  12.4719  12.5129  12.5368  12.7577  12.7675
    12.8586  12.8688  12.9241  12.9562  12.9710  12.9848  13.1072  13.1248
    13.2494  13.2783  13.3378  13.3474  13.3579  13.3640  13.3870  13.4115
    13.4670  13.5575  13.6160  13.6296  13.6601  13.6641  13.7632  13.7876
    13.9706  14.0143  14.0736  14.0966  14.1912  14.2425  14.3597  14.4088
    14.4536  14.4587  14.7046  14.7357  14.7902  14.8130  14.8766  14.8864
    14.9172  14.9346  14.9708  14.9790  15.1055  15.1111  15.1396  15.2011
    15.2347  15.2876  15.3521  15.4311  15.5955  15.6276  15.6778  15.7348
    15.7423  15.7484  15.7737  15.8179  15.9284  16.0029  16.0737  16.1628
    16.1660  16.1806  16.2963  16.3496  16.3680  16.3788  16.4205  16.4328
    16.4874  16.5096  16.7119  16.7817  16.7918  16.8101  16.8626  16.9176
    16.9601  17.0072  17.1514  17.1991  17.2078  17.2310  17.2780  17.2874
    17.3382  17.3431  17.3547  17.3874  17.4812  17.4859  17.5245  17.5334
    17.6391  17.6410  17.7420  17.7609  17.8148  17.8380  17.9003  17.9401
    17.9689  18.0204  18.0292  18.0357  18.0547  18.0941  18.1755  18.1771
    18.3542  18.4035  18.5214  18.5285  18.5460  18.5675  18.7139  18.7746
    18.9058  18.9164  19.0287  19.0395  19.0757  19.0947  19.2697  19.2782
    19.3618  19.3979  19.4590  19.5681  19.6222  19.6632  19.7632  19.8056
    19.8552  19.8702  19.8861  19.9439  19.9596  19.9971  20.0966  20.2116
    20.2542  20.3236  20.4536  20.5613  20.6115  20.6225  20.6829  20.6899
    20.7205  20.7464  20.7946  20.8092  20.8436  20.8491  20.8944  20.9068
    20.9100  20.9394  21.0007  21.0033  21.0177  21.0288  21.0548  21.0748
    21.1487  21.1904  21.2126  21.2158  21.2238  21.2800  21.2964  21.3378
    21.3805  21.3849  21.4478  21.4551  21.4902  21.5200  21.5488  21.5532
    21.5954  21.6343  21.6818  21.6835  21.7179  21.7502  21.8024  21.8205
    21.8769  21.8909  21.9188  21.9269  21.9645  21.9791  21.9816  22.0276
    22.0333  22.0857  22.1639  22.1895  22.2033  22.2108  22.2221  22.3020
    22.3481  22.3494  22.3921  22.3990  22.4340  22.4359  22.4690  22.4724
    22.5303  22.5762  22.6157  22.6202  22.6432  22.6546  22.7562  22.7791
    22.8382  22.8431  22.8571  22.8766

     the Fermi energy is    -0.9543 ev

     Writing output data file AGNR_OH_20.save/

     init_run     :      9.48s CPU      9.69s WALL (       1 calls)
     electrons    :   2517.67s CPU   2537.01s WALL (       1 calls)

     Called by init_run:
     wfcinit      :      0.00s CPU      0.00s WALL (       1 calls)
     potinit      :      0.46s CPU      0.50s WALL (       1 calls)
     hinit0       :      8.03s CPU      8.10s WALL (       1 calls)

     Called by electrons:
     c_bands      :   2517.66s CPU   2536.98s WALL (       1 calls)
     v_of_rho     :      0.37s CPU      0.38s WALL (       1 calls)
     newd         :      0.29s CPU      0.37s WALL (       1 calls)

     Called by c_bands:
     init_us_2    :      0.27s CPU      0.28s WALL (      26 calls)
     cegterg      :   2455.85s CPU   2470.62s WALL (      26 calls)

     Called by sum_band:

     Called by *egterg:
     h_psi        :    398.17s CPU    403.56s WALL (     542 calls)
     s_psi        :     43.74s CPU     43.83s WALL (     542 calls)
     g_psi        :      3.23s CPU      3.24s WALL (     490 calls)
     cdiaghg      :   1367.99s CPU   1369.11s WALL (     516 calls)

     Called by h_psi:
     h_psi:pot    :    393.84s CPU    398.38s WALL (     542 calls)
     h_psi:calbec :     43.61s CPU     44.49s WALL (     542 calls)
     vloc_psi     :    306.38s CPU    309.94s WALL (     542 calls)
     add_vuspsi   :     43.85s CPU     43.94s WALL (     542 calls)

     General routines
     calbec       :     43.60s CPU     44.49s WALL (     542 calls)
     fft          :      0.32s CPU      0.35s WALL (      14 calls)
     ffts         :      0.00s CPU      0.00s WALL (       1 calls)
     fftw         :    274.76s CPU    277.96s WALL (  334004 calls)
     interpolate  :      0.02s CPU      0.02s WALL (       1 calls)
     davcio       :      0.01s CPU      3.16s WALL (      52 calls)

     Parallel routines
     fft_scatt_xy :     45.32s CPU     45.89s WALL (  334019 calls)
     fft_scatt_yz :     77.59s CPU     78.71s WALL (  334019 calls)

     PWSCF        : 42m15.81s CPU    44m57.95s WALL


   This run was terminated on:  18:24:41   2Jan2022            

=------------------------------------------------------------------------------=
   JOB DONE.
=------------------------------------------------------------------------------=
