
     Program PWSCF v.6.3 starts on 21Apr2021 at 22:28:21 

     This program is part of the open-source Quantum ESPRESSO suite
     for quantum simulation of materials; please cite
         "P. Giannozzi et al., J. Phys.:Condens. Matter 21 395502 (2009);
         "P. Giannozzi et al., J. Phys.:Condens. Matter 29 465901 (2017);
          URL http://www.quantum-espresso.org", 
     in publications or presentations arising from this work. More details at
     http://www.quantum-espresso.org/quote

     Parallel version (MPI), running on    16 processors
     R & G space division:  proc/nbgrp/npool/nimage =      16
     Waiting for input...
     Reading input from standard input
     Message from routine read_cards :
     DEPRECATED: no units specified in CELL_PARAMETERS card

     Current dimensions of program PWSCF are:
     Max number of different atomic species (ntypx) = 10
     Max number of k-points (npk) =  40000
     Max angular momentum in pseudopotentials (lmaxx) =  3

     Atomic positions and unit cell read from directory:
     /home/zfwang/scratch/GNRDATASET/AGNR/AGNR_OH_21/AGNR_OH_21.save/


     Subspace diagonalization in iterative solution of the eigenvalue problem:
     a serial algorithm will be used


     Parallelization info
     --------------------
     sticks:   dense  smooth     PW     G-vecs:    dense   smooth      PW
     Min        3126    1041    294               117046    22526    3373
     Max        3128    1043    296               117047    22527    3374
     Sum       50029   16671   4713              1872745   360427   53977



     bravais-lattice index     =            0
     lattice parameter (alat)  =       1.8897  a.u.
     unit-cell volume          =   10547.6063 (a.u.)^3
     number of atoms/cell      =           50
     number of atomic types    =            3
     number of electrons       =       196.00
     number of Kohn-Sham states=          500
     kinetic-energy cutoff     =      40.0000  Ry
     charge density cutoff     =     480.0000  Ry
     Exchange-correlation      = PBE ( 1  4  3  4 0 0)

     celldm(1)=  18.897261  celldm(2)=   3.669000  celldm(3)=   0.426000
     celldm(4)=   0.000000  celldm(5)=   0.000000  celldm(6)=   0.000000

     crystal axes: (cart. coord. in units of alat)
               a(1) = (  10.000000   0.000000   0.000000 )  
               a(2) = (   0.000000  36.690000   0.000000 )  
               a(3) = (   0.000000   0.000000   4.260000 )  

     reciprocal axes: (cart. coord. in units 2 pi/alat)
               b(1) = (  0.100000  0.000000  0.000000 )  
               b(2) = (  0.000000  0.027255  0.000000 )  
               b(3) = (  0.000000  0.000000  0.234742 )  


     PseudoPot. # 1 for C  read from file:
     /home/zfwang/hp_home/MySoftware/qe-6.3/pseudo/C.pbe-n-rrkjus_psl.0.1.UPF
     MD5 check sum: fff530ed632a789b3b184014e67dd7f1
     Pseudo is Ultrasoft + core correction, Zval =  4.0
     Generated using "atomic" code by A. Dal Corso v.5.0.2 svn rev. 9415
     Using radial grid of 1073 points,  4 beta functions with: 
                l(1) =   0
                l(2) =   0
                l(3) =   1
                l(4) =   1
     Q(r) pseudized with 0 coefficients 


     PseudoPot. # 2 for O  read from file:
     /home/zfwang/hp_home/MySoftware/qe-6.3/pseudo/O.pbe-n-rrkjus_psl.0.1.UPF
     MD5 check sum: 73b3d1dec572cf22214b1d95c6304b69
     Pseudo is Ultrasoft + core correction, Zval =  6.0
     Generated using "atomic" code by A. Dal Corso v.6.3MaX
     Using radial grid of 1095 points,  4 beta functions with: 
                l(1) =   0
                l(2) =   0
                l(3) =   1
                l(4) =   1
     Q(r) pseudized with 0 coefficients 


     PseudoPot. # 3 for H  read from file:
     /home/zfwang/hp_home/MySoftware/qe-6.3/pseudo/H.pbe-rrkjus_psl.0.1.UPF
     MD5 check sum: e164a6907b691c6980f16942be34de84
     Pseudo is Ultrasoft, Zval =  1.0
     Generated using "atomic" code by A. Dal Corso v.5.0.2 svn rev. 9415
     Using radial grid of  929 points,  2 beta functions with: 
                l(1) =   0
                l(2) =   0
     Q(r) pseudized with 0 coefficients 


     atomic species   valence    mass     pseudopotential
        C              4.00    12.01070     C ( 1.00)
        O              6.00    18.99840     O ( 1.00)
        H              1.00     1.00794     H ( 1.00)

     No symmetry found



   Cartesian axes

     site n.     atom                  positions (alat units)
         1           C   tau(   1) = (   4.8079856   6.0567541   2.8013088  )
         2           C   tau(   2) = (   4.9451001   7.2385498   3.5496550  )
         3           C   tau(   3) = (   5.1517608   6.0746580   1.4677604  )
         4           C   tau(   4) = (   5.0088088   8.4725927   2.8375151  )
         5           C   tau(   5) = (   5.0135911   9.7092372   3.5508347  )
         6           C   tau(   6) = (   5.0509217   7.2426294   0.7084438  )
         7           C   tau(   7) = (   5.0003358   8.4753331   1.4221836  )
         8           C   tau(   8) = (   5.0056309  10.9402329   2.8422982  )
         9           C   tau(   9) = (   5.0007767  12.1736353   3.5505074  )
        10           C   tau(  10) = (   4.9935783   9.7102101   0.7090477  )
        11           C   tau(  11) = (   4.9966125  10.9409987   1.4179180  )
        12           C   tau(  12) = (   4.9995078  13.4096688   2.8397879  )
        13           C   tau(  13) = (   4.9995994  14.6422415   3.5485670  )
        14           C   tau(  14) = (   4.9988142  12.1740694   0.7097898  )
        15           C   tau(  15) = (   5.0000274  13.4098734   1.4202649  )
        16           C   tau(  16) = (   4.9999014  15.8755153   2.8398256  )
        17           C   tau(  17) = (   5.0000948  17.1111818   3.5499355  )
        18           C   tau(  18) = (   5.0004984  14.6427713   0.7113298  )
        19           C   tau(  19) = (   5.0004149  15.8756808   1.4200414  )
        20           C   tau(  20) = (   5.0001487  18.3446687   2.8414125  )
        21           C   tau(  21) = (   5.0002214  19.5785643   3.5499639  )
        22           C   tau(  22) = (   5.0002193  17.1112225   0.7099443  )
        23           C   tau(  23) = (   5.0001487  18.3451346   1.4185605  )
        24           C   tau(  24) = (   5.0004180  20.8142369   2.8396761  )
        25           C   tau(  25) = (   5.0004837  22.0474417   3.5479702  )
        26           C   tau(  26) = (   5.0000932  19.5787084   0.7099930  )
        27           C   tau(  27) = (   4.9998983  20.8144514   1.4198659  )
        28           C   tau(  28) = (   4.9999882  23.2801105   2.8384914  )
        29           C   tau(  29) = (   4.9988276  24.5160453   3.5483162  )
        30           C   tau(  30) = (   4.9995938  22.0476709   0.7107604  )
        31           C   tau(  31) = (   4.9994997  23.2805189   1.4190013  )
        32           C   tau(  32) = (   4.9967639  25.7489804   2.8392663  )
        33           C   tau(  33) = (   4.9937155  26.9800478   3.5470516  )
        34           C   tau(  34) = (   5.0007931  24.5162897   0.7075118  )
        35           C   tau(  35) = (   5.0057250  25.7497986   1.4148636  )
        36           C   tau(  36) = (   5.0001569  28.2148771   2.8327457  )
        37           C   tau(  37) = (   5.0503420  29.4482051   3.5455166  )
        38           C   tau(  38) = (   5.0136673  26.9805321   0.7051989  )
        39           C   tau(  39) = (   5.0085657  28.2174196   1.4174993  )
        40           C   tau(  40) = (   5.1503314  30.6159746   2.7849655  )
        41           C   tau(  41) = (   4.9445483  29.4511051   0.7041792  )
        42           C   tau(  42) = (   4.8072663  30.6330259   1.4512676  )
        43           O   tau(  43) = (   4.4100134   4.8059471   3.1826132  )
        44           O   tau(  44) = (   5.5303527   4.8173185   1.0136106  )
        45           O   tau(  45) = (   5.5294667  31.8743804   3.2359787  )
        46           O   tau(  46) = (   4.4117133  31.8832424   1.0666949  )
        47           H   tau(  47) = (   5.2530051   4.2470740   1.7868492  )
        48           H   tau(  48) = (   4.7958579   4.5897049   4.0989612  )
        49           H   tau(  49) = (   4.7999591  32.0989969   0.1502013  )
        50           H   tau(  50) = (   5.2502564  32.4424402   2.4610589  )

     number of k points=    26  Marzari-Vanderbilt smearing, width (Ry)=  0.0100
                       cart. coord. in units 2pi/alat
        k(    1) = (   0.0000000   0.0000000   0.0000000), wk =   0.0400000
        k(    2) = (   0.0000000   0.0000000   0.0046948), wk =   0.0800000
        k(    3) = (   0.0000000   0.0000000   0.0093897), wk =   0.0800000
        k(    4) = (   0.0000000   0.0000000   0.0140845), wk =   0.0800000
        k(    5) = (   0.0000000   0.0000000   0.0187793), wk =   0.0800000
        k(    6) = (   0.0000000   0.0000000   0.0234742), wk =   0.0800000
        k(    7) = (   0.0000000   0.0000000   0.0281690), wk =   0.0800000
        k(    8) = (   0.0000000   0.0000000   0.0328638), wk =   0.0800000
        k(    9) = (   0.0000000   0.0000000   0.0375587), wk =   0.0800000
        k(   10) = (   0.0000000   0.0000000   0.0422535), wk =   0.0800000
        k(   11) = (   0.0000000   0.0000000   0.0469484), wk =   0.0800000
        k(   12) = (   0.0000000   0.0000000   0.0516432), wk =   0.0800000
        k(   13) = (   0.0000000   0.0000000   0.0563380), wk =   0.0800000
        k(   14) = (   0.0000000   0.0000000   0.0610329), wk =   0.0800000
        k(   15) = (   0.0000000   0.0000000   0.0657277), wk =   0.0800000
        k(   16) = (   0.0000000   0.0000000   0.0704225), wk =   0.0800000
        k(   17) = (   0.0000000   0.0000000   0.0751174), wk =   0.0800000
        k(   18) = (   0.0000000   0.0000000   0.0798122), wk =   0.0800000
        k(   19) = (   0.0000000   0.0000000   0.0845070), wk =   0.0800000
        k(   20) = (   0.0000000   0.0000000   0.0892019), wk =   0.0800000
        k(   21) = (   0.0000000   0.0000000   0.0938967), wk =   0.0800000
        k(   22) = (   0.0000000   0.0000000   0.0985915), wk =   0.0800000
        k(   23) = (   0.0000000   0.0000000   0.1032864), wk =   0.0800000
        k(   24) = (   0.0000000   0.0000000   0.1079812), wk =   0.0800000
        k(   25) = (   0.0000000   0.0000000   0.1126761), wk =   0.0800000
        k(   26) = (   0.0000000   0.0000000  -0.1173709), wk =   0.0400000

     Dense  grid:  1872745 G-vectors     FFT dimensions: ( 135, 486,  60)

     Smooth grid:   360427 G-vectors     FFT dimensions: (  80, 288,  36)

     Estimated max dynamical RAM per process >     522.63 MB

     Estimated total dynamical RAM >       8.17 GB

     Check: negative/imaginary core charge=   -0.000005    0.000000

     The potential is recalculated from file :
     /home/zfwang/scratch/GNRDATASET/AGNR/AGNR_OH_21/AGNR_OH_21.save/charge-density.dat


     negative rho (up, down):  9.232E-04 0.000E+00
     Starting wfcs are  188 randomized atomic wfcs +  312 random wfcs

     Band Structure Calculation
     Davidson diagonalization with overlap

     ethr =  5.10E-09,  avg # of iterations = 18.9

     total cpu time spent up to now is     2702.8 secs

     End of band structure calculation

          k = 0.0000 0.0000 0.0000 ( 44901 PWs)   bands (ev):

   -25.5536 -25.5495 -23.2717 -23.2666 -20.4935 -20.4326 -20.2652 -20.0147
   -19.6810 -19.2736 -18.7940 -18.2338 -17.6184 -16.9558 -16.2737 -15.6346
   -15.2481 -15.2347 -15.1306 -15.0801 -14.8683 -14.7810 -14.5737 -14.3992
   -14.2433 -14.1687 -14.1390 -13.9038 -13.9011 -13.8403 -13.5694 -13.5391
   -13.3933 -12.9614 -12.6439 -12.4087 -12.0394 -11.7860 -11.7756 -11.4856
   -11.2146 -11.1339 -11.0347 -10.5642 -10.5408 -10.4281  -9.9717  -9.8913
    -9.6948  -9.3922  -9.2638  -9.0038  -8.9121  -8.7837  -8.6680  -8.6529
    -8.5134  -8.3249  -8.3200  -8.0898  -8.0645  -8.0243  -7.7577  -7.6627
    -7.6380  -7.6236  -7.3305  -7.2564  -7.0231  -6.8591  -6.7419  -6.5016
    -6.1855  -6.1805  -6.0402  -5.6434  -5.5871  -5.5523  -5.2153  -5.2047
    -4.9018  -4.7881  -4.6620  -4.4146  -4.2211  -4.1708  -4.1223  -3.4308
    -3.2741  -3.1660  -2.9475  -2.6801  -2.6332  -2.2302  -1.9534  -1.7502
    -1.2876  -1.1964  -0.7017  -0.5400  -0.2696   0.0464   0.1676   0.2926
     0.4860   0.6196   0.6987   0.9290   1.1974   1.4207   1.7585   2.0243
     2.1659   2.2488   2.5202   2.6502   2.7513   2.8646   2.9655   3.2597
     3.2842   3.4207   3.4920   3.6322   3.6555   3.8275   3.8785   4.0671
     4.3219   4.3819   4.4437   4.4810   4.5502   4.7428   4.7660   5.0099
     5.0613   5.0895   5.0960   5.2763   5.5734   5.7215   5.7753   5.8944
     5.9166   5.9459   6.0711   6.2777   6.5601   6.5655   6.6667   6.8172
     6.8921   6.9226   6.9662   7.0426   7.1217   7.1328   7.1874   7.1994
     7.3225   7.3990   7.4065   7.5140   7.5158   7.5890   7.6857   7.6942
     7.7386   7.7900   8.0485   8.0873   8.0892   8.1861   8.3504   8.4756
     8.5099   8.5199   8.5291   8.6097   8.6364   8.7027   8.7514   8.8171
     9.0775   9.1827   9.2282   9.2845   9.2942   9.3982   9.4141   9.5440
     9.5465   9.5665   9.6367   9.6923   9.6971   9.7218   9.7383   9.8207
     9.8341   9.8579   9.9223   9.9518   9.9811   9.9947  10.0201  10.0564
    10.0828  10.0918  10.1516  10.1837  10.2416  10.2573  10.3319  10.3485
    10.3865  10.3876  10.4781  10.4856  10.4921  10.5083  10.5130  10.5756
    10.6495  10.6594  10.7187  10.7524  10.8234  10.8302  10.8370  10.8786
    10.8961  10.9942  10.9976  11.0237  11.1232  11.1732  11.2265  11.2288
    11.2396  11.3004  11.3129  11.3259  11.3315  11.3621  11.4325  11.4568
    11.4617  11.5457  11.5614  11.5844  11.6167  11.6672  11.6722  11.6878
    11.7056  11.7352  11.7614  11.8220  11.8264  11.8326  11.8654  11.9209
    11.9340  11.9563  11.9641  11.9875  12.0433  12.0532  12.1366  12.1416
    12.1562  12.1890  12.2246  12.2628  12.3675  12.3794  12.3893  12.4077
    12.4605  12.4858  12.5591  12.5982  12.6160  12.6186  12.6255  12.6922
    12.7173  12.7735  12.7964  12.8351  12.8564  12.8758  12.9027  12.9140
    13.0193  13.0812  13.0896  13.1898  13.2281  13.2465  13.3145  13.3544
    13.4491  13.4561  13.5221  13.5453  13.6428  13.7103  13.7937  13.8177
    13.8749  13.9834  13.9850  14.0427  14.0570  14.1518  14.1632  14.1754
    14.2553  14.2774  14.3118  14.3118  14.3819  14.4210  14.4701  14.4961
    14.5037  14.5981  14.6370  14.6588  14.7262  14.7925  14.8732  14.9412
    14.9550  14.9849  15.1457  15.1464  15.2028  15.2305  15.2320  15.3326
    15.3582  15.3874  15.4725  15.4910  15.5406  15.6082  15.6231  15.6555
    15.6811  15.7308  15.8093  15.8502  15.8867  15.8921  15.9245  15.9913
    16.0604  16.0989  16.1348  16.1353  16.1777  16.2879  16.2944  16.3869
    16.3990  16.4171  16.4984  16.5765  16.5922  16.6309  16.6492  16.7310
    16.7547  16.7615  16.7650  16.7963  16.8131  16.8322  16.8788  17.0063
    17.0410  17.0700  17.1374  17.1416  17.1729  17.2408  17.3274  17.3382
    17.4105  17.4239  17.4780  17.5097  17.5130  17.5442  17.5547  17.6509
    17.6661  17.7202  17.7788  17.7983  17.7991  17.8578  17.9384  17.9442
    17.9891  18.0269  18.0855  18.1879  18.1941  18.2307  18.3357  18.3645
    18.3939  18.4097  18.4287  18.4410  18.4779  18.4885  18.5218  18.5289
    18.5583  18.5751  18.6011  18.6083  18.6202  18.6325  18.6471  18.6771
    18.6917  18.7222  18.7486  18.7666  18.8298  18.9409  18.9629  19.0314
    19.0677  19.1313  19.1502  19.2088  19.2879  19.2996  19.3398  19.3524
    19.3528  19.4003  19.4080  19.4268  19.5463  19.6066  19.6483  19.7642
    19.8032  19.8786  19.9079  19.9580  20.0042  20.0204  20.0476  20.0996
    20.1440  20.1695  20.4169  20.4732  20.4783  20.5012  20.5076  20.5139
    20.5835  20.6370  20.6659  20.7003  20.7358  20.7936  20.8111  20.8708
    20.8961  20.9517  20.9932  21.1196  21.1746  21.1864  21.3145  21.3536
    21.3593  21.3755  21.3757  21.4272  21.4417  21.4921  21.5583  21.5668
    21.6043  21.6334  21.6698  21.6839

          k = 0.0000 0.0000 0.0047 ( 44933 PWs)   bands (ev):

   -25.5521 -25.5481 -23.2744 -23.2693 -20.4911 -20.4302 -20.2629 -20.0123
   -19.6787 -19.2713 -18.7918 -18.2315 -17.6162 -16.9536 -16.2718 -15.6359
   -15.3052 -15.2709 -15.1645 -15.0798 -14.9212 -14.7586 -14.6059 -14.3877
   -14.2614 -14.1293 -14.0995 -13.9464 -13.8553 -13.8232 -13.5451 -13.4854
   -13.3844 -12.9709 -12.6498 -12.4122 -12.0446 -11.7838 -11.7691 -11.4816
   -11.2157 -11.1260 -11.0266 -10.5730 -10.5222 -10.4308  -9.9638  -9.8923
    -9.6959  -9.3907  -9.2597  -9.0049  -8.9090  -8.7843  -8.6728  -8.6413
    -8.5103  -8.3296  -8.3147  -8.0931  -8.0597  -8.0171  -7.7638  -7.6620
    -7.6389  -7.6179  -7.3259  -7.2539  -7.0271  -6.8602  -6.7385  -6.4964
    -6.1961  -6.1786  -6.0345  -5.6441  -5.5920  -5.5469  -5.2419  -5.1836
    -4.9009  -4.7971  -4.6620  -4.4228  -4.2251  -4.1692  -4.1310  -3.4301
    -3.2900  -3.1822  -2.9643  -2.6823  -2.6498  -2.2507  -1.9583  -1.7760
    -1.3122  -1.2494  -0.6494  -0.5167  -0.2440   0.0676   0.1704   0.3128
     0.5059   0.6392   0.7182   0.9271   1.2007   1.4240   1.7550   2.0276
     2.1690   2.2520   2.5182   2.6533   2.7521   2.8678   2.9686   3.2622
     3.2870   3.4182   3.4949   3.6337   3.6587   3.8306   3.8817   4.0680
     4.3250   4.3848   4.4461   4.4797   4.5520   4.7458   4.7689   5.0085
     5.0644   5.0924   5.0992   5.2776   5.5758   5.7225   5.7746   5.8949
     5.9184   5.9497   6.0751   6.2763   6.5581   6.5667   6.6683   6.8119
     6.8908   6.9177   6.9681   7.0447   7.1188   7.1359   7.1892   7.2023
     7.3289   7.3968   7.4114   7.5124   7.5164   7.5826   7.6802   7.7026
     7.7313   7.7844   8.0494   8.0839   8.0893   8.1690   8.3412   8.4776
     8.5031   8.5211   8.5236   8.6097   8.6466   8.7030   8.7405   8.8081
     9.0491   9.1810   9.2364   9.2751   9.2837   9.3839   9.4148   9.5423
     9.5526   9.5669   9.6201   9.6316   9.6947   9.6975   9.7287   9.7738
     9.7984   9.8300   9.8502   9.8611   9.9311   9.9762   9.9807   9.9985
    10.0283  10.0467  10.1327  10.2555  10.2760  10.3291  10.3516  10.3828
    10.4053  10.4165  10.4355  10.4615  10.4982  10.5386  10.5601  10.5842
    10.6122  10.6700  10.7090  10.7258  10.7683  10.8613  10.8668  10.8750
    10.9087  10.9919  10.9978  11.0820  11.1152  11.1189  11.1503  11.1740
    11.1943  11.2526  11.2733  11.3004  11.3369  11.3568  11.4604  11.4952
    11.5003  11.5639  11.5881  11.5933  11.6349  11.6540  11.6772  11.6959
    11.7279  11.7590  11.7624  11.8274  11.8677  11.8739  11.9129  11.9207
    11.9242  11.9814  12.0207  12.0291  12.0781  12.0992  12.1156  12.1469
    12.1777  12.1873  12.2002  12.2630  12.3153  12.3537  12.3714  12.3790
    12.4175  12.4361  12.4901  12.5117  12.5894  12.6009  12.6359  12.7110
    12.7346  12.7976  12.8314  12.8748  12.8937  12.8969  12.9155  12.9606
    13.0389  13.0772  13.1005  13.1610  13.2143  13.3236  13.3824  13.3980
    13.4250  13.4514  13.4581  13.5640  13.6444  13.7224  13.7455  13.8504
    13.9315  13.9707  14.0070  14.0423  14.0537  14.1019  14.1560  14.1818
    14.2623  14.2962  14.3408  14.3593  14.3685  14.4154  14.4737  14.5024
    14.5539  14.6223  14.6473  14.6700  14.7681  14.8286  14.8635  14.9052
    14.9581  14.9767  15.0928  15.1299  15.1737  15.2206  15.2453  15.3166
    15.3653  15.3892  15.4669  15.5213  15.5432  15.5666  15.6044  15.6186
    15.6329  15.6937  15.7228  15.8219  15.8689  15.9518  15.9835  16.0499
    16.1028  16.1084  16.1321  16.2236  16.2289  16.2904  16.3713  16.4062
    16.4278  16.4449  16.4651  16.5068  16.6070  16.6162  16.6225  16.7101
    16.7245  16.7443  16.7840  16.7969  16.8382  16.8913  16.9016  16.9577
    17.0552  17.0686  17.1062  17.1567  17.1759  17.2419  17.2939  17.3420
    17.4020  17.4359  17.4828  17.5185  17.5277  17.5803  17.6356  17.6442
    17.6829  17.6953  17.7126  17.7853  17.8268  17.8912  17.9217  17.9867
    18.0068  18.0415  18.0698  18.1776  18.1949  18.2198  18.3144  18.3419
    18.3539  18.3884  18.4219  18.4407  18.4555  18.4880  18.5138  18.5241
    18.5323  18.5575  18.5711  18.5866  18.6004  18.6217  18.6565  18.6772
    18.6892  18.7236  18.7503  18.7907  18.7979  18.9272  18.9676  19.0110
    19.0937  19.1148  19.1889  19.2434  19.3061  19.3124  19.3517  19.3760
    19.3903  19.4111  19.4391  19.4627  19.5706  19.6426  19.6947  19.7832
    19.8212  19.8774  19.9280  19.9331  20.0021  20.0039  20.0539  20.1006
    20.1523  20.1838  20.3959  20.4596  20.4633  20.4874  20.5146  20.5311
    20.6202  20.6383  20.6529  20.6809  20.7195  20.7915  20.9000  20.9085
    20.9478  20.9926  21.0242  21.0423  21.0884  21.1765  21.2610  21.3198
    21.3543  21.3902  21.4029  21.4455  21.4894  21.5106  21.5583  21.5910
    21.6263  21.6586  21.6810  21.6893

          k = 0.0000 0.0000 0.0094 ( 44965 PWs)   bands (ev):

   -25.5478 -25.5437 -23.2823 -23.2772 -20.4840 -20.4231 -20.2558 -20.0053
   -19.6717 -19.2643 -18.7849 -18.2247 -17.6095 -16.9472 -16.2664 -15.6425
   -15.4248 -15.3728 -15.2681 -15.0888 -15.0258 -14.7680 -14.6598 -14.4043
   -14.2635 -14.0584 -14.0123 -13.9827 -13.7951 -13.7236 -13.4809 -13.3717
   -13.3495 -12.9982 -12.6672 -12.4209 -12.0621 -11.7760 -11.7480 -11.4763
   -11.2093 -11.1125 -10.9966 -10.5915 -10.4740 -10.4384  -9.9528  -9.8856
    -9.6974  -9.3871  -9.2489  -9.0068  -8.8996  -8.7843  -8.6743  -8.6219
    -8.5009  -8.3371  -8.3030  -8.0967  -8.0495  -7.9990  -7.7823  -7.6583
    -7.6382  -7.6033  -7.3124  -7.2464  -7.0439  -6.8566  -6.7287  -6.4840
    -6.2246  -6.1703  -6.0217  -5.6456  -5.6046  -5.5347  -5.2754  -5.1656
    -4.9001  -4.8199  -4.6644  -4.4469  -4.2374  -4.1650  -4.1562  -3.4278
    -3.3367  -3.2298  -3.0135  -2.7095  -2.6778  -2.3097  -1.9734  -1.8485
    -1.3796  -1.3693  -0.5306  -0.4545  -0.1722   0.1287   0.1788   0.3720
     0.5643   0.6971   0.7759   0.9213   1.2108   1.4338   1.7446   2.0373
     2.1782   2.2617   2.5116   2.6627   2.7552   2.8772   2.9776   3.2697
     3.2952   3.4106   3.5035   3.6387   3.6683   3.8401   3.8912   4.0701
     4.3344   4.3930   4.4534   4.4752   4.5581   4.7548   4.7779   5.0043
     5.0736   5.1009   5.1087   5.2819   5.5827   5.7256   5.7718   5.8977
     5.9232   5.9611   6.0865   6.2723   6.5529   6.5696   6.6731   6.7960
     6.8859   6.9023   6.9740   7.0510   7.1127   7.1434   7.1947   7.2109
     7.3464   7.3929   7.4244   7.5040   7.5217   7.5656   7.6690   7.7079
     7.7199   7.7726   8.0513   8.0639   8.0829   8.1388   8.3133   8.4625
     8.4877   8.5126   8.5348   8.6152   8.6660   8.7026   8.7052   8.7953
     8.9672   9.1523   9.2402   9.2461   9.2697   9.3509   9.4136   9.4592
     9.4866   9.5046   9.5620   9.5679   9.5994   9.6211   9.6574   9.7127
     9.7303   9.7434   9.8290   9.8498   9.8552   9.8708   9.9298   9.9893
     9.9912  10.0307  10.0368  10.2127  10.2391  10.2890  10.2992  10.3162
    10.3523  10.3791  10.4842  10.5020  10.5055  10.5413  10.5770  10.6232
    10.6902  10.6932  10.7213  10.7745  10.7944  10.8504  10.8745  10.8791
    10.8847  10.8983  10.9197  10.9794  11.0369  11.0639  11.1112  11.1509
    11.2373  11.2656  11.3239  11.3488  11.3560  11.3719  11.4744  11.5256
    11.5421  11.5633  11.5767  11.5959  11.6123  11.6248  11.6765  11.6942
    11.7731  11.7968  11.8104  11.8383  11.8989  11.9200  11.9361  11.9930
    12.0048  12.0406  12.0564  12.0703  12.1243  12.1368  12.1577  12.1671
    12.1788  12.1920  12.2165  12.2369  12.2592  12.2842  12.3211  12.3436
    12.3506  12.4594  12.4898  12.5411  12.5777  12.5949  12.6382  12.6567
    12.7063  12.7561  12.7829  12.8390  12.8854  12.8986  12.9275  13.0924
    13.1060  13.1366  13.1733  13.2565  13.2633  13.3063  13.3611  13.3882
    13.4218  13.4608  13.6105  13.6318  13.6621  13.7067  13.7364  13.8351
    13.9259  13.9617  14.0045  14.0484  14.1190  14.1228  14.1947  14.2152
    14.2694  14.2972  14.3426  14.4063  14.4227  14.4484  14.4886  14.5845
    14.6142  14.6542  14.6731  14.7049  14.7645  14.8419  14.8807  14.9087
    14.9531  14.9888  15.0296  15.0841  15.1393  15.1649  15.2180  15.2607
    15.3365  15.3941  15.4414  15.4742  15.4890  15.5062  15.5950  15.6175
    15.6568  15.6754  15.7135  15.8148  15.8920  15.9859  16.0190  16.0412
    16.0785  16.1599  16.2073  16.2297  16.3362  16.3648  16.4289  16.4424
    16.4870  16.4918  16.5007  16.5414  16.5671  16.6150  16.6625  16.6850
    16.6927  16.7187  16.7564  16.7921  16.8401  16.8932  17.0009  17.0078
    17.0403  17.1029  17.1215  17.1310  17.1754  17.2228  17.2825  17.3540
    17.3848  17.4498  17.4878  17.5044  17.5514  17.6050  17.6366  17.6588
    17.6927  17.7071  17.7956  17.8145  17.8463  17.8748  17.9378  17.9548
    17.9977  18.0381  18.0975  18.1353  18.1766  18.2171  18.2345  18.2517
    18.3215  18.3669  18.3906  18.4121  18.4333  18.4637  18.4893  18.4963
    18.5046  18.5223  18.5261  18.5557  18.5738  18.6066  18.6287  18.6595
    18.6945  18.7252  18.7798  18.8330  18.8700  18.9370  18.9587  18.9994
    19.1224  19.1496  19.1630  19.2673  19.2900  19.3313  19.3946  19.4416
    19.4810  19.4964  19.5351  19.5497  19.5933  19.7123  19.7793  19.8061
    19.8287  19.8782  19.9007  19.9455  19.9895  20.0746  20.1123  20.1396
    20.1905  20.2205  20.3733  20.4196  20.4499  20.5011  20.5205  20.5549
    20.6109  20.6248  20.7011  20.7334  20.7493  20.8341  20.8605  20.8654
    20.9363  20.9911  21.0410  21.1309  21.1579  21.2131  21.2273  21.2691
    21.3603  21.3946  21.4293  21.4459  21.4929  21.5245  21.5699  21.5948
    21.6209  21.6417  21.6665  21.6949

          k = 0.0000 0.0000 0.0141 ( 44933 PWs)   bands (ev):

   -25.5405 -25.5364 -23.2953 -23.2903 -20.4722 -20.4114 -20.2441 -19.9936
   -19.6601 -19.2528 -18.7734 -18.2134 -17.5983 -16.9364 -16.2577 -15.6704
   -15.5748 -15.4907 -15.4113 -15.1879 -15.0932 -14.8467 -14.7097 -14.4520
   -14.2743 -14.0739 -13.9355 -13.8364 -13.6961 -13.5794 -13.4116 -13.2740
   -13.2329 -13.0384 -12.6955 -12.4311 -12.0933 -11.7645 -11.7078 -11.4841
   -11.1750 -11.1072 -10.9440 -10.6056 -10.4558 -10.4016  -9.9582  -9.8607
    -9.6922  -9.3837  -9.2349  -9.0070  -8.8843  -8.7804  -8.6688  -8.6043
    -8.4858  -8.3415  -8.2841  -8.0957  -8.0356  -7.9788  -7.8105  -7.6494
    -7.6303  -7.5830  -7.2937  -7.2350  -7.0753  -6.8408  -6.7132  -6.4733
    -6.2593  -6.1567  -6.0085  -5.6474  -5.6240  -5.5192  -5.3084  -5.1571
    -4.9097  -4.8418  -4.6731  -4.4861  -4.2582  -4.2003  -4.1558  -3.4252
    -3.4106  -3.3060  -3.0918  -2.7897  -2.6853  -2.4013  -1.9994  -1.9559
    -1.5172  -1.4726  -0.3872  -0.3672  -0.0649   0.1902   0.2270   0.4661
     0.6578   0.7904   0.8691   0.9119   1.2277   1.4497   1.7276   2.0535
     2.1938   2.2778   2.4987   2.6784   2.7622   2.8930   2.9928   3.2804
     3.3087   3.3984   3.5178   3.6485   3.6843   3.8558   3.9070   4.0726
     4.3499   4.4061   4.4647   4.4690   4.5700   4.7697   4.7931   4.9968
     5.0883   5.1154   5.1243   5.2898   5.5934   5.7311   5.7662   5.9048
     5.9315   5.9798   6.1045   6.2660   6.5450   6.5736   6.6802   6.7701
     6.8700   6.8800   6.9838   7.0606   7.1074   7.1549   7.2041   7.2247
     7.3701   7.3910   7.4463   7.4890   7.5256   7.5494   7.6456   7.6726
     7.7401   7.7669   7.9886   8.0561   8.0729   8.1363   8.2639   8.4089
     8.4666   8.5262   8.5507   8.6168   8.6607   8.6827   8.7026   8.7798
     8.8561   9.0520   9.1544   9.1729   9.2124   9.2460   9.3022   9.3574
     9.3956   9.4146   9.4652   9.5124   9.5407   9.5888   9.6306   9.6413
     9.6767   9.7424   9.7664   9.7817   9.8033   9.8396   9.8782   9.9390
     9.9786  10.0061  10.0422  10.0603  10.0823  10.1712  10.2100  10.2725
    10.2996  10.3709  10.3942  10.4378  10.4952  10.5113  10.5486  10.5673
    10.5901  10.6147  10.6320  10.6861  10.7434  10.7895  10.8043  10.8934
    10.9089  11.0044  11.0143  11.0475  11.0638  11.1123  11.1694  11.2276
    11.2669  11.2958  11.3548  11.3716  11.3784  11.3918  11.4436  11.4779
    11.5105  11.5548  11.5736  11.5890  11.6760  11.6960  11.7130  11.7164
    11.7689  11.7749  11.7934  11.8324  11.8584  11.8899  11.9052  11.9715
    11.9923  12.0392  12.0515  12.0849  12.1416  12.1553  12.2141  12.2478
    12.2653  12.2754  12.2893  12.2924  12.3202  12.3463  12.3619  12.3687
    12.3899  12.4120  12.5025  12.5458  12.5860  12.6224  12.6477  12.6848
    12.6964  12.7165  12.7677  12.7989  12.8926  12.8993  12.9732  13.0020
    13.0515  13.1101  13.1959  13.2685  13.3167  13.3879  13.4052  13.4400
    13.5176  13.5898  13.6058  13.6384  13.6866  13.8095  13.8355  13.8916
    13.9168  13.9458  14.0221  14.0816  14.1245  14.1679  14.2408  14.2869
    14.2915  14.3152  14.3632  14.4255  14.4540  14.5360  14.5670  14.6398
    14.6702  14.6788  14.6900  14.7366  14.7863  14.8231  14.8555  14.9024
    14.9199  14.9719  15.0294  15.0873  15.1099  15.1245  15.1442  15.2383
    15.2741  15.3270  15.3879  15.4487  15.4532  15.5610  15.6425  15.6757
    15.6945  15.7512  15.7933  15.8293  15.8580  15.9656  15.9965  16.0112
    16.0740  16.1183  16.1704  16.2333  16.2873  16.3959  16.4352  16.4757
    16.5550  16.5673  16.5990  16.6008  16.6478  16.6598  16.6616  16.6803
    16.7587  16.7885  16.8361  16.8658  16.8737  16.9090  16.9599  16.9980
    17.0293  17.0834  17.1257  17.2069  17.2382  17.2807  17.3027  17.3993
    17.4361  17.4511  17.4906  17.5183  17.5378  17.5551  17.6052  17.6162
    17.6813  17.7294  17.7405  17.8122  17.8234  17.9141  17.9174  17.9298
    17.9608  18.0556  18.0658  18.1130  18.1325  18.1772  18.1837  18.2323
    18.2887  18.2968  18.3215  18.3599  18.3967  18.4123  18.4341  18.4582
    18.4748  18.5228  18.5355  18.5579  18.6147  18.6340  18.6630  18.7088
    18.7320  18.7600  18.8187  18.8627  18.9382  18.9945  19.0237  19.0630
    19.0844  19.1458  19.1761  19.2377  19.2707  19.3528  19.4039  19.4674
    19.4842  19.5633  19.6123  19.6396  19.6502  19.7255  19.7863  19.8305
    19.9299  19.9363  19.9567  20.0229  20.0637  20.1314  20.1881  20.2352
    20.2687  20.3136  20.3323  20.4207  20.4692  20.5223  20.5634  20.5776
    20.6083  20.6270  20.6690  20.7610  20.7752  20.8206  20.8515  20.8816
    20.9585  21.0101  21.1207  21.1360  21.1804  21.2335  21.2945  21.3443
    21.3519  21.3985  21.4326  21.4640  21.4909  21.5077  21.5439  21.5806
    21.5995  21.6245  21.6654  21.7341

          k = 0.0000 0.0000 0.0188 ( 44941 PWs)   bands (ev):

   -25.5303 -25.5263 -23.3133 -23.3084 -20.4556 -20.3949 -20.2277 -19.9773
   -19.6438 -19.2366 -18.7574 -18.1975 -17.5828 -16.9215 -16.2463 -15.7628
   -15.7403 -15.5745 -15.5664 -15.3304 -15.1738 -14.9173 -14.8064 -14.4862
   -14.3666 -14.0167 -13.8881 -13.6481 -13.5544 -13.4148 -13.3482 -13.1776
   -13.0870 -13.0614 -12.7336 -12.4399 -12.1325 -11.7575 -11.6484 -11.5026
   -11.1318 -11.0880 -10.8868 -10.5918 -10.4800 -10.3235  -9.9659  -9.8452
    -9.6652  -9.3835  -9.2208  -9.0031  -8.8632  -8.7705  -8.6576  -8.5909
    -8.4659  -8.3366  -8.2574  -8.0916  -8.0183  -7.9687  -7.8335  -7.6337
    -7.6134  -7.5584  -7.2861  -7.2179  -7.1057  -6.8166  -6.6934  -6.4747
    -6.2886  -6.1385  -5.9987  -5.6581  -5.6433  -5.5019  -5.3380  -5.1597
    -4.9452  -4.8439  -4.6909  -4.5393  -4.2884  -4.2595  -4.1449  -3.5115
    -3.4200  -3.4056  -3.1948  -2.8972  -2.6931  -2.5181  -2.0896  -2.0342
    -1.6727  -1.5840  -0.2661  -0.2350   0.0670   0.2095   0.3506   0.5899
     0.7821   0.8989   0.9152   0.9938   1.2515   1.4711   1.7052   2.0762
     2.2157   2.3002   2.4777   2.7005   2.7754   2.9151   3.0139   3.2888
     3.3275   3.3859   3.5379   3.6645   3.7068   3.8779   3.9291   4.0732
     4.3715   4.4207   4.4629   4.4824   4.5886   4.7903   4.8144   4.9856
     5.1085   5.1358   5.1459   5.3023   5.6059   5.7394   5.7579   5.9178
     5.9440   6.0049   6.1279   6.2585   6.5340   6.5780   6.6870   6.7348
     6.8300   6.8606   6.9975   7.0691   7.1099   7.1699   7.2179   7.2430
     7.3858   7.3968   7.4683   7.4808   7.5067   7.5616   7.5994   7.6379
     7.7616   7.7736   7.8859   8.0419   8.0650   8.1471   8.1953   8.3426
     8.4429   8.5385   8.5473   8.5947   8.6411   8.6522   8.6873   8.7539
     8.7836   8.8790   8.9266   8.9847   9.0906   9.1550   9.1696   9.2601
     9.3473   9.3758   9.4185   9.4457   9.4613   9.5203   9.6111   9.6223
     9.6487   9.6586   9.6846   9.7648   9.7845   9.7974   9.8178   9.8487
     9.9048   9.9360  10.0101  10.0352  10.0805  10.0935  10.1268  10.1911
    10.2159  10.2492  10.2759  10.2920  10.3574  10.3682  10.3834  10.4003
    10.5080  10.5305  10.5578  10.6575  10.7185  10.7396  10.8288  10.8393
    10.9422  10.9625  11.0529  11.0719  11.1357  11.2042  11.2538  11.2971
    11.3039  11.3545  11.3790  11.3915  11.4019  11.4114  11.4401  11.4736
    11.5024  11.5236  11.5384  11.5972  11.6118  11.6411  11.7129  11.7309
    11.7365  11.7558  11.7874  11.8608  11.9178  11.9253  11.9500  12.0108
    12.0359  12.0658  12.0834  12.1079  12.1329  12.1641  12.2142  12.2328
    12.2633  12.2843  12.3012  12.3565  12.3688  12.3902  12.4052  12.4698
    12.5026  12.5171  12.5414  12.5807  12.6240  12.6402  12.6789  12.7006
    12.7152  12.7653  12.8193  12.8368  12.8942  12.9050  12.9340  12.9887
    13.0869  13.1419  13.1536  13.1750  13.2759  13.3345  13.4422  13.4531
    13.5791  13.5983  13.7022  13.8095  13.8264  13.8686  13.9088  13.9319
    13.9947  14.0382  14.0906  14.1003  14.1488  14.1920  14.2406  14.2811
    14.2898  14.3595  14.4437  14.4785  14.5355  14.5957  14.6098  14.6384
    14.6563  14.6791  14.7187  14.7771  14.8250  14.8436  14.8505  14.8886
    14.9507  14.9592  14.9925  15.0520  15.0795  15.0901  15.1349  15.2714
    15.2992  15.3623  15.3938  15.4216  15.5397  15.5807  15.6625  15.6975
    15.7192  15.7323  15.8104  15.8534  15.8932  15.9573  16.0026  16.0106
    16.0403  16.1019  16.1547  16.1999  16.2498  16.3866  16.4419  16.4951
    16.5617  16.5934  16.6125  16.6791  16.6925  16.7173  16.7209  16.7412
    16.7519  16.8612  16.8761  16.9207  16.9309  16.9985  17.0468  17.0678
    17.0966  17.1101  17.2231  17.2566  17.2741  17.3456  17.3511  17.4134
    17.4265  17.4412  17.4757  17.4888  17.5224  17.5407  17.5558  17.6063
    17.6205  17.6799  17.7620  17.7893  17.8215  17.8273  17.8336  17.9162
    17.9467  17.9917  18.0021  18.0421  18.0550  18.1351  18.1560  18.1859
    18.2008  18.2826  18.2940  18.3432  18.3803  18.4312  18.4773  18.5018
    18.5192  18.5461  18.5852  18.5936  18.6360  18.6980  18.7180  18.7270
    18.7639  18.8494  18.9103  18.9200  18.9449  19.0172  19.0424  19.1117
    19.1520  19.1732  19.1871  19.2434  19.2779  19.3402  19.3646  19.4226
    19.4452  19.5260  19.6137  19.6718  19.7845  19.8300  19.8453  19.8873
    19.9867  20.0568  20.0690  20.0906  20.1357  20.2253  20.2321  20.2991
    20.3388  20.3475  20.4008  20.4695  20.5060  20.5510  20.5987  20.6163
    20.6385  20.6833  20.7266  20.7371  20.7803  20.8130  20.9557  20.9925
    21.0011  21.0292  21.0914  21.1524  21.1917  21.2318  21.2875  21.3360
    21.3740  21.4297  21.4533  21.4860  21.5069  21.5440  21.5551  21.5650
    21.5679  21.6283  21.6339  21.7037

          k = 0.0000 0.0000 0.0235 ( 44973 PWs)   bands (ev):

   -25.5173 -25.5133 -23.3362 -23.3315 -20.4344 -20.3737 -20.2066 -19.9563
   -19.6229 -19.2159 -18.7368 -18.1771 -17.5628 -16.9025 -16.2343 -15.9136
   -15.9111 -15.7421 -15.6294 -15.4487 -15.3006 -14.9674 -14.9270 -14.5343
   -14.4727 -13.9437 -13.8542 -13.4441 -13.4037 -13.2970 -13.2314 -13.1637
   -12.9646 -12.9395 -12.7734 -12.4475 -12.1699 -11.7680 -11.5755 -11.5069
   -11.1562 -10.9936 -10.8349 -10.5336 -10.5175 -10.2493  -9.9610  -9.8506
    -9.6149  -9.3882  -9.2055  -8.9972  -8.8370  -8.7533  -8.6447  -8.5744
    -8.4413  -8.3216  -8.2223  -8.0926  -8.0050  -7.9688  -7.8315  -7.6102
    -7.5889  -7.5299  -7.3170  -7.1892  -7.1096  -6.7933  -6.6715  -6.4930
    -6.3044  -6.1167  -5.9942  -5.6951  -5.6462  -5.4833  -5.3636  -5.1749
    -4.9980  -4.8331  -4.7187  -4.6048  -4.3360  -4.3265  -4.1307  -3.6311
    -3.5279  -3.4139  -3.3166  -3.0249  -2.7041  -2.6529  -2.2363  -2.0833
    -1.8297  -1.7054  -0.1578  -0.0801   0.2149   0.2335   0.4963   0.7377
     0.8834   0.9321   1.0663   1.1459   1.2822   1.4959   1.6796   2.1054
     2.2441   2.3284   2.4480   2.7288   2.7961   2.9436   3.0409   3.2807
     3.3519   3.3865   3.5637   3.6876   3.7356   3.9061   3.9574   4.0690
     4.3983   4.4285   4.4731   4.5026   4.6139   4.8159   4.8419   4.9704
     5.1339   5.1622   5.1733   5.3205   5.6156   5.7503   5.7516   5.9372
     5.9604   6.0355   6.1554   6.2516   6.5188   6.5813   6.6819   6.6926
     6.7798   6.8367   7.0147   7.0704   7.1280   7.1877   7.2363   7.2648
     7.3916   7.4014   7.4457   7.4808   7.5255   7.5402   7.5949   7.6127
     7.7581   7.7865   7.7988   7.9756   8.0522   8.1509   8.1568   8.2759
     8.4024   8.4603   8.4981   8.5477   8.5974   8.6020   8.6278   8.6615
     8.7290   8.7574   8.7721   8.8827   8.9291   8.9576   9.0745   9.1656
     9.2224   9.2785   9.3538   9.3785   9.4455   9.4762   9.4921   9.5229
     9.5807   9.6384   9.6461   9.7038   9.7257   9.8174   9.8340   9.8421
     9.8490   9.9200   9.9295   9.9580  10.0004  10.0383  10.0505  10.0532
    10.1029  10.1231  10.1384  10.1472  10.1513  10.1945  10.2305  10.2777
    10.4736  10.5343  10.5541  10.5656  10.7038  10.7378  10.7450  10.8244
    10.8523  10.9646  10.9949  11.0480  11.0911  11.1362  11.1642  11.2157
    11.2358  11.2935  11.3252  11.3608  11.4148  11.4336  11.4605  11.4872
    11.5626  11.6043  11.6202  11.6415  11.6699  11.7034  11.7160  11.7224
    11.7829  11.7902  11.8365  11.9336  11.9401  11.9651  11.9972  12.0220
    12.0450  12.1071  12.1180  12.1400  12.1899  12.1996  12.2317  12.2390
    12.2637  12.2714  12.3472  12.4012  12.4141  12.4304  12.4538  12.4777
    12.4954  12.5465  12.5692  12.6689  12.6725  12.6920  12.7186  12.7448
    12.7711  12.7792  12.8913  12.9073  12.9253  12.9430  12.9696  13.0395
    13.0741  13.1091  13.1780  13.2097  13.2608  13.2741  13.4342  13.4900
    13.6066  13.6163  13.7891  13.8128  13.8980  13.9347  13.9748  14.0086
    14.0367  14.0723  14.1301  14.1845  14.2228  14.2439  14.2762  14.3129
    14.3855  14.4209  14.4433  14.5426  14.5483  14.5812  14.6161  14.6447
    14.6916  14.7339  14.7517  14.7891  14.8056  14.8202  14.8919  14.9361
    14.9647  15.0142  15.0319  15.0767  15.1231  15.1713  15.2606  15.2973
    15.3084  15.3603  15.3695  15.4917  15.5323  15.5862  15.6111  15.6658
    15.7250  15.7650  15.7944  15.8167  15.8753  15.9573  16.0559  16.0606
    16.0786  16.1748  16.2152  16.2577  16.2980  16.4136  16.4404  16.4922
    16.5432  16.5535  16.6168  16.6504  16.6903  16.7006  16.7176  16.7483
    16.8316  16.9394  16.9609  17.0068  17.0342  17.0539  17.1085  17.1529
    17.1661  17.1801  17.2649  17.2772  17.3032  17.3496  17.3569  17.3794
    17.4126  17.4303  17.4421  17.4839  17.5229  17.5567  17.5590  17.5963
    17.6150  17.6633  17.6971  17.7731  17.8025  17.8238  17.8510  17.8676
    17.8893  17.9308  17.9579  17.9806  18.0287  18.0858  18.1049  18.1798
    18.2233  18.2447  18.2559  18.3834  18.4113  18.4624  18.4973  18.5267
    18.5560  18.5698  18.6185  18.6606  18.6989  18.7203  18.7654  18.7711
    18.8731  18.8974  18.9293  18.9548  19.0500  19.0697  19.0897  19.1011
    19.1424  19.1629  19.2190  19.2411  19.2892  19.3164  19.3903  19.4430
    19.5330  19.5722  19.6359  19.7088  19.7654  19.9280  19.9536  20.0102
    20.0159  20.0496  20.1003  20.1210  20.2114  20.2570  20.3347  20.3613
    20.4009  20.4507  20.5030  20.5407  20.5790  20.6144  20.6321  20.6464
    20.6716  20.7038  20.7543  20.8311  20.8508  20.9000  20.9576  20.9900
    21.0801  21.1118  21.1229  21.1505  21.2205  21.2636  21.2769  21.3788
    21.4046  21.4412  21.4634  21.4872  21.5045  21.5113  21.5307  21.5431
    21.5701  21.5930  21.6218  21.6927

          k = 0.0000 0.0000 0.0282 ( 44984 PWs)   bands (ev):

   -25.5015 -25.4976 -23.3637 -23.3591 -20.4084 -20.3478 -20.1808 -19.9306
   -19.5974 -19.1905 -18.7117 -18.1523 -17.5384 -16.8796 -16.2311 -16.0829
   -16.0770 -15.9114 -15.7489 -15.4996 -15.4504 -15.0845 -14.9864 -14.6269
   -14.5497 -13.8898 -13.8085 -13.3524 -13.2471 -13.2266 -13.0860 -13.0429
   -12.9013 -12.7867 -12.7342 -12.4576 -12.1961 -11.8004 -11.4989 -11.4785
   -11.2033 -10.8840 -10.7742 -10.5661 -10.4427 -10.1871  -9.9585  -9.8430
    -9.5601  -9.3960  -9.1839  -8.9947  -8.8074  -8.7279  -8.6318  -8.5441
    -8.4112  -8.3038  -8.1799  -8.1134  -8.0005  -7.9472  -7.8091  -7.5793
    -7.5578  -7.4980  -7.3816  -7.1529  -7.0858  -6.7825  -6.6513  -6.5155
    -6.3101  -6.0928  -5.9956  -5.7415  -5.6484  -5.4638  -5.3867  -5.2035
    -5.0573  -4.8232  -4.7526  -4.6807  -4.4243  -4.3768  -4.1137  -3.7671
    -3.6647  -3.4631  -3.3990  -3.1676  -2.8037  -2.7161  -2.3917  -2.1491
    -1.9802  -1.8330  -0.0460   0.0746   0.2626   0.3737   0.6582   0.8653
     0.9052   1.1031   1.2399   1.3199   1.3213   1.5181   1.6575   2.1411
     2.2789   2.3588   2.4129   2.7634   2.8250   2.9786   3.0736   3.2484
     3.3828   3.4073   3.5948   3.7179   3.7708   3.9404   3.9917   4.0567
     4.4211   4.4411   4.5007   4.5252   4.6454   4.8448   4.8758   4.9538
     5.1643   5.1946   5.2061   5.3450   5.6147   5.7541   5.7652   5.9614
     5.9805   6.0708   6.1838   6.2500   6.4961   6.5784   6.6348   6.6504
     6.7392   6.8197   7.0334   7.0692   7.1579   7.2063   7.2582   7.2878
     7.3809   7.4048   7.4186   7.4631   7.4837   7.5633   7.5989   7.6531
     7.6614   7.7748   7.8151   7.8734   8.0292   8.1300   8.1494   8.2047
     8.2984   8.3261   8.3598   8.4127   8.4332   8.4776   8.5842   8.6572
     8.6656   8.6854   8.7576   8.7884   8.8218   8.8687   8.9660   9.0456
     9.0643   9.1388   9.2075   9.2442   9.3133   9.4036   9.4800   9.4912
     9.5636   9.6240   9.6465   9.6620   9.6728   9.7031   9.7546   9.7887
     9.8117   9.8453   9.8546   9.8777   9.8835   9.9120   9.9450   9.9511
     9.9710  10.0010  10.0174  10.0465  10.0508  10.1491  10.1744  10.2397
    10.3866  10.4619  10.5546  10.5833  10.5904  10.6658  10.6906  10.7324
    10.8369  10.8741  10.9114  10.9363  11.0124  11.0297  11.0943  11.0995
    11.1222  11.2012  11.2177  11.3283  11.3731  11.4583  11.4817  11.4955
    11.5172  11.6107  11.6386  11.6503  11.7050  11.7666  11.7719  11.7938
    11.8369  11.8544  11.9123  11.9495  11.9989  12.0326  12.0569  12.0965
    12.1077  12.1397  12.1587  12.1776  12.2040  12.2306  12.2825  12.2941
    12.3162  12.3224  12.3591  12.4444  12.4558  12.4702  12.4715  12.5132
    12.5477  12.6335  12.6551  12.6926  12.6951  12.7274  12.7388  12.7571
    12.7736  12.7933  12.8809  12.8928  12.9302  12.9679  13.0208  13.0523
    13.1153  13.1322  13.2186  13.2892  13.2982  13.3576  13.5064  13.5380
    13.6533  13.6769  13.7483  13.8002  13.8924  13.9120  13.9793  14.0202
    14.0702  14.1180  14.1671  14.1938  14.2504  14.2689  14.3220  14.4184
    14.4572  14.5060  14.5188  14.5761  14.6184  14.6396  14.6920  14.7065
    14.7159  14.7558  14.8105  14.8287  14.8705  14.9074  14.9251  14.9554
    14.9962  15.0181  15.0943  15.1596  15.2250  15.2568  15.2935  15.3055
    15.3238  15.3480  15.3681  15.5114  15.5562  15.5677  15.6149  15.6662
    15.7219  15.7582  15.8471  15.8574  15.9070  15.9834  16.0796  16.1004
    16.1480  16.2038  16.3012  16.3346  16.3668  16.4433  16.4602  16.4962
    16.5246  16.5856  16.6134  16.6331  16.7206  16.7258  16.7839  16.7892
    16.8732  16.8967  16.9692  17.0330  17.0358  17.0730  17.0882  17.1515
    17.2040  17.2105  17.2447  17.2629  17.2801  17.3061  17.3272  17.3333
    17.4248  17.4292  17.4522  17.5318  17.5386  17.5814  17.5962  17.6223
    17.6509  17.6769  17.7054  17.7519  17.7672  17.7908  17.8012  17.9081
    17.9224  17.9310  17.9703  18.0279  18.0614  18.1269  18.1618  18.2004
    18.2230  18.2335  18.2865  18.3743  18.4037  18.5148  18.5438  18.5538
    18.5814  18.6052  18.6163  18.6347  18.7205  18.7381  18.7701  18.7864
    18.8547  18.8867  18.9534  19.0341  19.0693  19.1141  19.1655  19.2070
    19.2314  19.2434  19.2819  19.3180  19.3308  19.3630  19.3960  19.4800
    19.5399  19.6121  19.7424  19.8161  19.8344  19.8558  19.9409  20.0027
    20.0877  20.1545  20.2128  20.2510  20.2674  20.3221  20.3412  20.4067
    20.4671  20.4941  20.5464  20.5988  20.5991  20.6218  20.6577  20.7080
    20.7358  20.7901  20.8395  20.8828  20.9255  20.9581  20.9753  21.0386
    21.0681  21.1113  21.1854  21.2064  21.2220  21.3338  21.3960  21.4104
    21.4197  21.4341  21.4428  21.4798  21.5051  21.5296  21.5548  21.5768
    21.6036  21.6262  21.6372  21.7166

          k = 0.0000 0.0000 0.0329 ( 44980 PWs)   bands (ev):

   -25.4830 -25.4791 -23.3955 -23.3910 -20.3777 -20.3173 -20.1503 -19.9003
   -19.5673 -19.1606 -18.6820 -18.1230 -17.5098 -16.8531 -16.3057 -16.2537
   -16.1871 -16.0619 -15.9050 -15.6083 -15.5190 -15.2193 -15.0420 -14.7216
   -14.6264 -13.8568 -13.7484 -13.4102 -13.1806 -13.0073 -12.9786 -12.8942
   -12.8510 -12.6095 -12.5972 -12.4740 -12.2028 -11.8415 -11.4404 -11.4178
   -11.2474 -10.7957 -10.6988 -10.5929 -10.3473 -10.1340  -9.9775  -9.7971
    -9.5189  -9.3934  -9.1610  -8.9914  -8.7771  -8.6936  -8.6120  -8.5009
    -8.3752  -8.2984  -8.1403  -8.1309  -7.9830  -7.9113  -7.7789  -7.5436
    -7.5205  -7.4698  -7.4524  -7.1139  -7.0479  -6.7998  -6.6335  -6.5210
    -6.3151  -6.0716  -6.0011  -5.7914  -5.6536  -5.4454  -5.4095  -5.2452
    -5.1181  -4.8461  -4.7789  -4.7514  -4.5257  -4.4357  -4.0939  -3.9155
    -3.8135  -3.6104  -3.3947  -3.3207  -2.9608  -2.7381  -2.5482  -2.2458
    -2.1079  -1.9641   0.0674   0.2227   0.3025   0.5387   0.8310   0.8476
     1.0865   1.2907   1.3638   1.4330   1.5146   1.5233   1.6556   2.1832
     2.3203   2.3476   2.4168   2.8043   2.8619   3.0199   3.1101   3.2011
     3.4201   3.4415   3.6303   3.7552   3.8124   3.9798   4.0243   4.0425
     4.4322   4.4781   4.5376   4.5475   4.6828   4.8693   4.9158   4.9456
     5.1993   5.2328   5.2438   5.3760   5.5981   5.7727   5.7821   5.9849
     6.0061   6.1093   6.2067   6.2621   6.4579   6.5298   6.5769   6.6178
     6.7041   6.8246   7.0460   7.0750   7.1931   7.2192   7.2788   7.3050
     7.3527   7.3939   7.4010   7.4499   7.4586   7.5393   7.5850   7.6213
     7.7078   7.7320   7.7565   7.8816   7.9838   8.0282   8.0342   8.1352
     8.1454   8.1873   8.2386   8.2899   8.3375   8.3846   8.4153   8.5767
     8.6163   8.6697   8.7159   8.7456   8.7910   8.8013   8.8613   8.9022
     8.9289   8.9982   9.0982   9.1326   9.1700   9.2957   9.4058   9.4455
     9.5085   9.5208   9.5312   9.5526   9.5726   9.6210   9.6674   9.6960
     9.7008   9.7235   9.7662   9.7944   9.8191   9.8294   9.8423   9.9303
     9.9481   9.9517   9.9665   9.9956  10.0165  10.0891  10.1416  10.2709
    10.2992  10.3769  10.4437  10.4876  10.5401  10.6067  10.6305  10.6583
    10.6771  10.7165  10.7524  10.8603  10.9202  11.0329  11.0497  11.0616
    11.0982  11.1267  11.1519  11.1673  11.3177  11.4483  11.4697  11.4939
    11.5190  11.5467  11.6034  11.6353  11.6480  11.7438  11.7661  11.8233
    11.8286  11.8965  11.9295  11.9943  12.0368  12.0496  12.0989  12.1280
    12.1737  12.1995  12.2495  12.2765  12.2935  12.2974  12.3287  12.3721
    12.3877  12.4532  12.4609  12.4995  12.5348  12.5355  12.5421  12.5668
    12.5833  12.6696  12.6814  12.6926  12.7097  12.7189  12.7234  12.7504
    12.7832  12.8216  12.8525  12.8821  12.9370  12.9792  12.9978  13.1167
    13.1984  13.2299  13.2898  13.3268  13.3540  13.4387  13.4956  13.5510
    13.6971  13.7083  13.7650  13.8389  13.8678  13.9325  13.9526  13.9808
    14.1161  14.1638  14.1823  14.2125  14.2507  14.2816  14.3095  14.4249
    14.5266  14.5864  14.6828  14.7044  14.7153  14.7256  14.7907  14.8202
    14.8274  14.8564  14.8639  14.8772  14.9095  14.9188  14.9502  15.0059
    15.0205  15.0618  15.1542  15.1790  15.2167  15.2477  15.2798  15.3575
    15.3887  15.4112  15.4642  15.4799  15.5643  15.5992  15.7325  15.7481
    15.7628  15.8368  15.8948  15.9280  15.9771  16.0588  16.0843  16.1015
    16.1523  16.2723  16.3210  16.3566  16.3858  16.4625  16.4747  16.4845
    16.5523  16.6142  16.6369  16.6664  16.7547  16.7865  16.8140  16.8803
    16.9022  16.9211  16.9344  16.9836  17.0263  17.0404  17.0724  17.1002
    17.1480  17.1907  17.2011  17.2249  17.2615  17.2788  17.3168  17.3403
    17.3702  17.4479  17.4641  17.4776  17.5576  17.5642  17.6107  17.6411
    17.6708  17.6983  17.7228  17.7854  17.7994  17.8729  17.8990  17.9092
    17.9692  18.0079  18.0462  18.0858  18.1237  18.1571  18.2517  18.2756
    18.3005  18.3164  18.3455  18.3992  18.4104  18.4615  18.5169  18.5682
    18.5791  18.5837  18.6391  18.6633  18.6886  18.7646  18.7846  18.8092
    18.8478  18.9443  19.0269  19.0606  19.0645  19.1087  19.1703  19.3068
    19.3263  19.3660  19.3888  19.4029  19.4529  19.4984  19.5235  19.5387
    19.5722  19.5945  19.7355  19.7956  19.8527  19.9867  20.0385  20.0646
    20.0968  20.1841  20.2857  20.3317  20.3646  20.4046  20.4213  20.4310
    20.4904  20.5207  20.5615  20.6075  20.6267  20.6570  20.6896  20.7506
    20.7767  20.8756  20.8914  20.9298  20.9678  20.9798  20.9825  21.0228
    21.1155  21.1386  21.1628  21.2703  21.2957  21.3058  21.3408  21.3999
    21.4464  21.4664  21.4931  21.5025  21.5396  21.5766  21.5917  21.6145
    21.6313  21.6639  21.6875  21.7211

          k = 0.0000 0.0000 0.0376 ( 45028 PWs)   bands (ev):

   -25.4619 -25.4580 -23.4313 -23.4270 -20.3423 -20.2820 -20.1151 -19.8653
   -19.5325 -19.1261 -18.6478 -18.0893 -17.4769 -16.8241 -16.4694 -16.4265
   -16.3014 -16.1175 -16.0691 -15.7662 -15.5573 -15.3260 -15.1288 -14.7905
   -14.7171 -13.8288 -13.6942 -13.4767 -13.1268 -13.0533 -12.7887 -12.6986
   -12.6691 -12.5154 -12.4512 -12.4082 -12.1793 -11.8770 -11.4384 -11.3357
   -11.2411 -10.7980 -10.6278 -10.5114 -10.2791 -10.0888  -9.9754  -9.7476
    -9.4904  -9.3693  -9.1522  -8.9688  -8.7495  -8.6502  -8.5802  -8.4554
    -8.3333  -8.3172  -8.1355  -8.0802  -7.9550  -7.8691  -7.7471  -7.5512
    -7.4993  -7.4726  -7.4223  -7.0732  -7.0051  -6.8490  -6.6138  -6.5068
    -6.3263  -6.0672  -5.9992  -5.8394  -5.6644  -5.4460  -5.4237  -5.2930
    -5.1780  -4.9131  -4.8645  -4.7399  -4.6365  -4.5032  -4.0743  -4.0709
    -3.9708  -3.7687  -3.4825  -3.3870  -3.1231  -2.7906  -2.6805  -2.3808
    -2.2038  -2.0970   0.1811   0.3144   0.4020   0.7059   0.8289   1.0143
     1.2784   1.4164   1.4784   1.5102   1.6402   1.6848   1.7270   2.2318
     2.2941   2.3682   2.4616   2.8513   2.9064   3.0675   3.1214   3.1741
     3.4633   3.4844   3.6683   3.7991   3.8603   3.9903   4.0334   4.0828
     4.4514   4.5241   4.5625   4.5826   4.7259   4.8753   4.9617   4.9657
     5.2384   5.2763   5.2853   5.4133   5.5699   5.7960   5.8079   6.0005
     6.0387   6.1474   6.2207   6.2891   6.3980   6.4269   6.5353   6.6079
     6.6723   6.8445   7.0457   7.0900   7.1952   7.2349   7.2856   7.3085
     7.3353   7.3723   7.3906   7.4281   7.4658   7.4846   7.5553   7.5808
     7.6442   7.7002   7.8055   7.8177   7.8442   7.8791   7.9218   8.0226
     8.0503   8.0802   8.1608   8.2180   8.2323   8.2839   8.3634   8.4545
     8.5027   8.5569   8.6124   8.6885   8.7312   8.7482   8.7757   8.8304
     8.8642   8.9613   8.9860   9.0781   9.1044   9.1398   9.1878   9.2545
     9.3435   9.3464   9.3625   9.3908   9.5096   9.5495   9.5827   9.6279
     9.6409   9.6679   9.7078   9.7401   9.7470   9.7725   9.8196   9.8262
     9.8794   9.9528   9.9600  10.0270  10.0369  10.0778  10.1204  10.1989
    10.2433  10.2760  10.3216  10.3502  10.3709  10.4512  10.5094  10.5896
    10.6484  10.6592  10.7058  10.7231  10.8573  10.9264  10.9606  11.0453
    11.0853  11.0908  11.1084  11.1538  11.2813  11.3377  11.3875  11.4353
    11.4824  11.5290  11.5459  11.5750  11.6410  11.6733  11.7644  11.8144
    11.8333  11.9447  11.9754  12.0110  12.0399  12.0672  12.0815  12.1404
    12.2247  12.2386  12.2827  12.3026  12.3152  12.3299  12.3990  12.4458
    12.4589  12.5019  12.5328  12.5497  12.5805  12.5914  12.5944  12.6030
    12.6429  12.6801  12.7076  12.7304  12.7383  12.7685  12.7833  12.8063
    12.8414  12.8617  12.8763  12.9007  13.0040  13.0580  13.0717  13.1489
    13.2095  13.2881  13.3449  13.3912  13.3957  13.4186  13.4777  13.5208
    13.6195  13.6386  13.7456  13.8354  13.8920  13.9257  14.0685  14.1002
    14.1237  14.1392  14.2010  14.2690  14.3120  14.3870  14.4261  14.4980
    14.5867  14.6028  14.6579  14.7364  14.7837  14.8014  14.8280  14.8434
    14.8592  14.9010  14.9127  14.9490  14.9941  15.0216  15.0335  15.0685
    15.1426  15.1521  15.2198  15.2321  15.2793  15.3397  15.3779  15.3874
    15.4241  15.4442  15.4659  15.5233  15.6384  15.7016  15.7559  15.7949
    15.8277  15.9327  16.0186  16.0413  16.0644  16.1003  16.1225  16.1552
    16.1707  16.2889  16.2918  16.3675  16.4006  16.4495  16.4711  16.5360
    16.5621  16.6276  16.6378  16.6670  16.6689  16.7529  16.7679  16.8501
    16.8924  16.9353  16.9730  17.0556  17.0824  17.0921  17.1081  17.1106
    17.1521  17.1669  17.1897  17.2095  17.2262  17.2741  17.3127  17.3446
    17.3509  17.4221  17.4529  17.5321  17.5338  17.5689  17.5979  17.6550
    17.6915  17.7193  17.7482  17.7937  17.8094  17.8549  18.0127  18.0141
    18.0837  18.0942  18.1240  18.1440  18.1752  18.2369  18.2620  18.3021
    18.3166  18.3601  18.3844  18.4376  18.4897  18.5110  18.5437  18.5781
    18.6136  18.6383  18.6517  18.7249  18.7697  18.7804  18.8136  18.8160
    18.8810  19.0295  19.0417  19.0549  19.1071  19.1625  19.2436  19.3673
    19.3781  19.4229  19.4472  19.4800  19.5121  19.5728  19.5984  19.6438
    19.6685  19.7642  19.8334  19.8574  19.8825  20.0111  20.0628  20.1086
    20.1658  20.1911  20.2204  20.2834  20.3927  20.4410  20.4969  20.5352
    20.5865  20.6164  20.6327  20.6646  20.6964  20.7218  20.7548  20.7978
    20.8286  20.8619  20.9004  20.9350  20.9537  21.0290  21.0516  21.0691
    21.0974  21.1146  21.1711  21.2013  21.2263  21.2717  21.3129  21.3206
    21.4094  21.4573  21.4749  21.5334  21.5884  21.6207  21.6306  21.7196
    21.7417  21.7495  21.7788  21.8062

          k = 0.0000 0.0000 0.0423 ( 45014 PWs)   bands (ev):

   -25.4382 -25.4345 -23.4707 -23.4666 -20.3021 -20.2420 -20.0753 -19.8257
   -19.4931 -19.0871 -18.6091 -18.0511 -17.4400 -16.7969 -16.6435 -16.5941
   -16.4637 -16.2382 -16.1169 -15.9119 -15.6520 -15.3726 -15.2440 -14.8382
   -14.8185 -13.8032 -13.6658 -13.5190 -13.1429 -13.0788 -12.6181 -12.5616
   -12.4968 -12.4582 -12.3075 -12.2163 -12.1111 -11.8995 -11.4830 -11.2418
   -11.1822 -10.8689 -10.5378 -10.3860 -10.2526 -10.0467  -9.9292  -9.7101
    -9.4480  -9.3513  -9.1400  -8.9268  -8.7292  -8.5971  -8.5368  -8.4314
    -8.3255  -8.2854  -8.1022  -8.0276  -7.9203  -7.8271  -7.7202  -7.6195
    -7.4579  -7.4219  -7.3816  -7.0324  -6.9711  -6.9080  -6.5926  -6.4862
    -6.3450  -6.0883  -5.9880  -5.8764  -5.6836  -5.4808  -5.4378  -5.3260
    -5.2338  -5.0052  -4.9641  -4.7548  -4.7093  -4.5785  -4.2376  -4.1365
    -4.0457  -3.9328  -3.6479  -3.3872  -3.2815  -2.9214  -2.7397  -2.5336
    -2.2865  -2.2300   0.2944   0.3607   0.5493   0.7981   0.8893   1.2023
     1.4506   1.4545   1.5008   1.7027   1.7385   1.8600   1.9511   2.2308
     2.2870   2.4225   2.5158   2.9038   2.9579   3.0609   3.1220   3.2165
     3.5115   3.5348   3.7030   3.8487   3.9143   3.9557   4.0845   4.1360
     4.4812   4.5630   4.5775   4.6330   4.7742   4.8761   5.0091   5.0140
     5.2801   5.3220   5.3301   5.4561   5.5389   5.8088   5.8492   6.0058
     6.0671   6.1697   6.2182   6.3039   6.3384   6.3540   6.4979   6.5985
     6.6552   6.8668   7.0380   7.0881   7.1502   7.2451   7.2662   7.2964
     7.3186   7.3483   7.3759   7.4168   7.4522   7.4712   7.4862   7.5116
     7.5631   7.6425   7.6602   7.6993   7.7158   7.8453   7.8926   7.9135
     7.9741   8.0435   8.0551   8.1269   8.1478   8.2835   8.3230   8.3326
     8.3713   8.4195   8.4447   8.5231   8.6529   8.6801   8.8069   8.8191
     8.8623   8.8775   8.9289   8.9551   9.0118   9.0198   9.0514   9.0993
     9.1216   9.1424   9.1911   9.2672   9.3640   9.3973   9.4711   9.4835
     9.5937   9.6594   9.6831   9.6967   9.6982   9.7582   9.7816   9.8005
     9.8187   9.9305   9.9565   9.9910  10.0575  10.0797  10.0949  10.1027
    10.1226  10.1325  10.1848  10.2235  10.2502  10.3592  10.4115  10.5315
    10.5583  10.6252  10.6840  10.7153  10.7390  10.8039  10.9169  10.9729
    11.0539  11.0598  11.1383  11.1719  11.1883  11.2132  11.2660  11.3350
    11.4088  11.4719  11.5116  11.5901  11.6249  11.7205  11.7541  11.8349
    11.8736  11.9064  11.9795  12.0129  12.0291  12.0774  12.1160  12.1503
    12.2166  12.2208  12.2422  12.2662  12.3258  12.3516  12.4010  12.4224
    12.4236  12.4482  12.4664  12.5523  12.5782  12.6151  12.6491  12.6549
    12.6824  12.7259  12.7571  12.7674  12.8296  12.8745  12.8924  12.9310
    12.9574  13.0066  13.0266  13.0382  13.0744  13.1267  13.1479  13.1834
    13.2239  13.2734  13.3201  13.3515  13.4020  13.4409  13.4720  13.5157
    13.5726  13.6065  13.7257  13.7809  13.8721  13.9577  14.0604  14.1418
    14.1774  14.2196  14.3122  14.3399  14.4254  14.4861  14.5292  14.5527
    14.5595  14.6283  14.6745  14.7300  14.7396  14.8018  14.8363  14.8650
    14.9146  14.9481  14.9624  15.0409  15.0942  15.1300  15.2001  15.2273
    15.2355  15.2941  15.2958  15.3385  15.3759  15.4190  15.4404  15.4474
    15.4634  15.5132  15.5630  15.6341  15.6783  15.7506  15.7567  15.8413
    15.8877  15.9875  16.0426  16.0831  16.1172  16.1561  16.2024  16.2483
    16.2656  16.3137  16.3369  16.3629  16.3912  16.4304  16.4526  16.5121
    16.5295  16.5675  16.6358  16.6878  16.7191  16.7486  16.7665  16.8021
    16.8664  16.8941  16.9483  17.0016  17.0400  17.1042  17.1239  17.1284
    17.1868  17.1987  17.2325  17.2905  17.3180  17.3394  17.3742  17.4013
    17.4153  17.4440  17.4937  17.5171  17.5629  17.5756  17.6090  17.6500
    17.6612  17.7518  17.7865  17.8348  17.8895  17.9389  18.0153  18.0438
    18.0826  18.1013  18.1898  18.2021  18.2307  18.2498  18.3007  18.3373
    18.3610  18.4060  18.4234  18.4977  18.5235  18.5875  18.5937  18.6273
    18.6679  18.6900  18.7554  18.7992  18.8211  18.8608  18.9317  18.9392
    18.9727  19.0424  19.0748  19.1321  19.1455  19.1512  19.2910  19.3463
    19.4569  19.4907  19.5245  19.5839  19.6447  19.6623  19.6959  19.7387
    19.7511  19.8453  19.9170  19.9224  19.9670  20.0076  20.0582  20.1339
    20.1676  20.2164  20.2828  20.3028  20.3441  20.4317  20.4485  20.5064
    20.6302  20.6566  20.7024  20.7738  20.8260  20.8396  20.8807  20.8849
    20.8976  20.9092  20.9541  20.9649  21.0033  21.0166  21.0249  21.0595
    21.0726  21.1087  21.1214  21.1725  21.2324  21.2496  21.2553  21.3245
    21.3490  21.4047  21.4672  21.6179  21.6412  21.6747  21.6817  21.7791
    21.7872  21.8217  21.8658  21.9259

          k = 0.0000 0.0000 0.0469 ( 45054 PWs)   bands (ev):

   -25.4122 -25.4085 -23.5133 -23.5095 -20.2573 -20.1974 -20.0309 -19.7815
   -19.4492 -19.0435 -18.5660 -18.0087 -17.3993 -16.8229 -16.8116 -16.7117
   -16.6309 -16.4016 -16.1684 -15.9948 -15.7859 -15.3821 -15.3715 -14.9298
   -14.8754 -13.7906 -13.6661 -13.5277 -13.2126 -13.0531 -12.6197 -12.5151
   -12.2911 -12.2423 -12.1570 -12.0275 -11.9960 -11.8971 -11.5262 -11.1457
   -11.1056 -10.9487 -10.4885 -10.2840 -10.1839 -10.0155  -9.8738  -9.6507
    -9.4038  -9.3546  -9.0866  -8.8880  -8.7186  -8.5362  -8.4845  -8.4342
    -8.2908  -8.2323  -8.0538  -7.9759  -7.8832  -7.8101  -7.7075  -7.6368
    -7.4127  -7.3663  -7.3396  -7.0235  -6.9858  -6.8965  -6.5744  -6.4800
    -6.3591  -6.1219  -6.0028  -5.8802  -5.7143  -5.5381  -5.4793  -5.3487
    -5.2658  -5.1176  -5.0706  -4.8705  -4.6838  -4.6537  -4.4063  -4.3038
    -4.1010  -4.0195  -3.8156  -3.4774  -3.3515  -3.0822  -2.7740  -2.6906
    -2.3684  -2.3609   0.4058   0.4065   0.6999   0.7839   1.0586   1.3936
     1.4016   1.5309   1.6966   1.7922   1.9305   2.0883   2.1632   2.1863
     2.3485   2.4833   2.5771   2.9504   2.9983   3.0158   3.1823   3.2724
     3.5638   3.5918   3.7196   3.9028   3.9330   3.9762   4.1438   4.1960
     4.5198   4.5429   4.6358   4.6894   4.8270   4.8922   5.0643   5.0712
     5.3195   5.3558   5.3832   5.5012   5.5220   5.8103   5.8972   5.9775
     6.0559   6.1379   6.2010   6.3142   6.3265   6.3568   6.4810   6.5859
     6.6504   6.8759   7.0149   7.0299   7.1179   7.1684   7.2113   7.2428
     7.2738   7.3197   7.3374   7.3702   7.3913   7.4420   7.4461   7.5049
     7.5197   7.5277   7.5513   7.6174   7.6783   7.7239   7.8094   7.8290
     7.9162   7.9636   8.0620   8.0697   8.0985   8.1627   8.2087   8.2328
     8.2762   8.3498   8.3709   8.4533   8.5578   8.6045   8.6395   8.7485
     8.7958   8.8151   8.8365   8.8708   8.8875   8.9094   8.9123   8.9755
     9.0366   9.0733   9.1335   9.1420   9.2115   9.2259   9.2868   9.3440
     9.5461   9.5725   9.6020   9.6067   9.6674   9.7345   9.7476   9.7734
     9.8394   9.8475   9.8672   9.8914   9.9487   9.9635   9.9959  10.0131
    10.1205  10.1382  10.1500  10.1714  10.2153  10.2858  10.3347  10.4215
    10.4947  10.5593  10.6241  10.6996  10.7276  10.7692  10.8770  10.8906
    10.9723  10.9911  11.0255  11.0633  11.1837  11.2028  11.2273  11.2906
    11.3165  11.3753  11.5339  11.6336  11.6778  11.7483  11.7690  11.7921
    11.8496  11.9143  11.9208  11.9809  11.9970  12.0851  12.1168  12.1251
    12.1714  12.1752  12.1938  12.2261  12.2462  12.3070  12.3736  12.4098
    12.4428  12.4609  12.4859  12.5253  12.5859  12.6085  12.6312  12.6912
    12.7182  12.7518  12.8076  12.8407  12.8681  12.9089  12.9807  13.0001
    13.0278  13.0877  13.1179  13.1365  13.1708  13.2096  13.2278  13.2695
    13.2847  13.3134  13.3286  13.3632  13.3923  13.4091  13.4681  13.5423
    13.5900  13.6212  13.7005  13.8133  13.9003  13.9772  14.0478  14.1888
    14.2013  14.2179  14.3004  14.3607  14.4091  14.5052  14.5481  14.5710
    14.6049  14.6772  14.7419  14.7452  14.8439  14.8842  14.9292  14.9491
    15.0015  15.0283  15.0674  15.0985  15.1768  15.2202  15.2987  15.3168
    15.3370  15.3513  15.3559  15.4164  15.4261  15.4790  15.5141  15.5557
    15.5917  15.6508  15.6699  15.7483  15.7743  15.7857  15.8379  15.8646
    15.9231  15.9586  16.0460  16.0956  16.1143  16.2126  16.2238  16.2362
    16.2518  16.3086  16.3410  16.3539  16.4029  16.4168  16.4665  16.5706
    16.5829  16.6546  16.6628  16.6887  16.7397  16.7799  16.7900  16.8091
    16.8676  16.8744  16.9358  16.9433  17.0873  17.1061  17.1384  17.1891
    17.2127  17.2226  17.2383  17.3190  17.3437  17.3896  17.4069  17.4225
    17.4646  17.5063  17.5632  17.5941  17.6129  17.6369  17.6562  17.6788
    17.7045  17.8049  17.8984  17.9066  17.9274  17.9364  18.0310  18.0722
    18.1200  18.1379  18.2206  18.2402  18.2644  18.3042  18.3486  18.3863
    18.4194  18.4395  18.5201  18.5755  18.5779  18.5993  18.6224  18.6720
    18.6987  18.8062  18.8117  18.8410  18.8605  18.9503  18.9859  19.0532
    19.0700  19.0975  19.1561  19.2049  19.2432  19.3253  19.3328  19.4597
    19.4903  19.5378  19.5570  19.6648  19.7127  19.7692  19.7991  19.8296
    19.8397  19.8702  19.9165  19.9904  20.0420  20.0701  20.1064  20.1423
    20.1744  20.2237  20.2704  20.2953  20.3848  20.4148  20.4336  20.5305
    20.6749  20.7017  20.7314  20.7787  20.8245  20.8449  20.8673  20.8794
    20.8925  20.9640  20.9828  20.9844  21.0075  21.0442  21.0793  21.1181
    21.1214  21.1706  21.1881  21.2658  21.2916  21.3389  21.3560  21.3771
    21.4123  21.4683  21.4727  21.6135  21.6568  21.6913  21.7294  21.8118
    21.8342  21.8630  21.8909  21.9479

          k = 0.0000 0.0000 0.0516 ( 45058 PWs)   bands (ev):

   -25.3839 -25.3803 -23.5587 -23.5551 -20.2078 -20.1482 -19.9818 -19.7326
   -19.4007 -18.9954 -18.5184 -17.9620 -17.3557 -16.9899 -16.9601 -16.8011
   -16.7075 -16.5517 -16.2999 -15.9933 -15.9302 -15.5121 -15.3754 -15.0391
   -14.9180 -13.8039 -13.6571 -13.5434 -13.2483 -13.0489 -12.6499 -12.4996
   -12.1168 -12.0191 -11.9952 -11.9457 -11.8283 -11.7773 -11.5418 -11.0933
   -11.0215 -10.9831 -10.5209 -10.1779 -10.0544 -10.0231  -9.7982  -9.5636
    -9.4306  -9.2924  -9.0057  -8.8736  -8.7054  -8.4802  -8.4388  -8.4005
    -8.2410  -8.1744  -7.9973  -7.9320  -7.8782  -7.8071  -7.6683  -7.6080
    -7.3659  -7.3090  -7.2993  -7.0996  -6.9514  -6.8523  -6.5625  -6.5133
    -6.3453  -6.1599  -6.0540  -5.8504  -5.7592  -5.6202  -5.5274  -5.4003
    -5.2692  -5.2420  -5.1721  -4.9842  -4.7549  -4.6339  -4.5776  -4.4736
    -4.2701  -4.0063  -3.9696  -3.6401  -3.3506  -3.2468  -2.8489  -2.8085
    -2.4884  -2.4507   0.4535   0.5163   0.7697   0.8495   1.2316   1.3475
     1.5876   1.6019   1.8621   1.9088   2.0868   2.1581   2.3296   2.4166
     2.4306   2.5504   2.6448   2.8948   3.0381   3.0787   3.2491   3.3350
     3.6141   3.6543   3.7046   3.9462   3.9640   4.0430   4.2096   4.2622
     4.4996   4.5669   4.7001   4.7514   4.8836   4.9280   5.1270   5.1324
     5.3308   5.3834   5.4419   5.5295   5.5562   5.7889   5.8734   5.9479
     6.0003   6.1100   6.2340   6.3193   6.3568   6.3734   6.5047   6.5723
     6.6470   6.8313   6.9225   6.9671   7.0028   7.0903   7.1306   7.1629
     7.1906   7.2219   7.2568   7.3031   7.3555   7.4186   7.4554   7.4739
     7.4867   7.5215   7.5339   7.5474   7.6041   7.6501   7.7040   7.7695
     7.8328   7.9144   7.9394   7.9649   8.0039   8.0889   8.1387   8.2086
     8.2240   8.2556   8.3445   8.4098   8.4922   8.4961   8.5121   8.5760
     8.6306   8.6495   8.6741   8.7623   8.7959   8.8612   8.8710   8.9690
     8.9798   9.0125   9.0208   9.0914   9.1023   9.1270   9.1680   9.2790
     9.3907   9.4509   9.4664   9.5031   9.5449   9.5794   9.6513   9.6768
     9.7488   9.8134   9.8272   9.8686   9.8875   9.9273   9.9404   9.9634
    10.0290  10.1215  10.1323  10.2139  10.2278  10.2389  10.2565  10.3401
    10.4553  10.4860  10.5690  10.6681  10.6892  10.7013  10.7939  10.8417
    10.8942  10.9102  10.9667  10.9958  11.1119  11.2070  11.2301  11.2500
    11.3281  11.3495  11.5680  11.6470  11.6651  11.7255  11.7391  11.7857
    11.7982  11.8643  11.8737  11.9332  11.9731  11.9898  12.0162  12.0599
    12.1143  12.1571  12.2278  12.2325  12.2700  12.2776  12.3476  12.4278
    12.4510  12.4612  12.5135  12.5261  12.5398  12.5658  12.6323  12.7063
    12.7516  12.7825  12.8261  12.8469  12.9081  12.9388  12.9966  13.0037
    13.0411  13.0725  13.1083  13.1222  13.1941  13.2532  13.2714  13.2971
    13.3271  13.3485  13.4462  13.4837  13.5079  13.5252  13.5543  13.6057
    13.6069  13.6317  13.6792  13.8575  13.9751  14.0242  14.0537  14.1210
    14.1587  14.2489  14.2891  14.3191  14.3972  14.4747  14.5359  14.6324
    14.6914  14.7350  14.7716  14.8339  14.9071  14.9893  15.0268  15.0476
    15.0927  15.1279  15.1622  15.1696  15.2337  15.2753  15.2943  15.3574
    15.3860  15.4151  15.4507  15.5266  15.5295  15.5794  15.6266  15.6474
    15.6584  15.7389  15.7717  15.8079  15.8597  15.8683  15.9132  15.9377
    15.9544  16.0138  16.0561  16.0913  16.0973  16.1241  16.1361  16.2351
    16.2470  16.3062  16.3287  16.3467  16.4200  16.4602  16.5284  16.5652
    16.6364  16.7081  16.7354  16.7580  16.7740  16.7902  16.8022  16.8569
    16.8932  16.9515  16.9681  16.9980  17.0736  17.1550  17.1607  17.1980
    17.2256  17.2649  17.3114  17.3594  17.3821  17.4145  17.4923  17.5044
    17.5265  17.5527  17.5879  17.6138  17.6397  17.6644  17.7476  17.7589
    17.8220  17.8573  17.8840  17.9011  17.9476  18.0709  18.0971  18.1404
    18.2199  18.2334  18.2780  18.3030  18.3138  18.3847  18.4077  18.4420
    18.5171  18.5312  18.5540  18.5800  18.6765  18.6849  18.6966  18.7168
    18.7253  18.8162  18.8196  18.8326  18.8853  18.9968  19.0530  19.1143
    19.1785  19.2112  19.2850  19.3402  19.3627  19.4024  19.4436  19.5152
    19.5385  19.5794  19.6857  19.7527  19.7884  19.8196  19.8313  19.8850
    19.8974  19.9621  19.9678  20.0012  20.0168  20.1050  20.1215  20.1661
    20.1930  20.3019  20.3208  20.3483  20.4143  20.4289  20.5194  20.5438
    20.5686  20.6342  20.6753  20.6972  20.8268  20.8637  20.8810  20.9155
    20.9640  20.9720  21.0036  21.0183  21.0690  21.1084  21.1137  21.1685
    21.2028  21.2589  21.2905  21.3177  21.3799  21.3907  21.4681  21.5245
    21.5773  21.6051  21.6303  21.6516  21.6855  21.7380  21.8085  21.8457
    21.8623  21.8666  21.9203  21.9823

          k = 0.0000 0.0000 0.0563 ( 45056 PWs)   bands (ev):

   -25.3535 -25.3500 -23.6065 -23.6031 -20.1536 -20.0942 -19.9281 -19.6792
   -19.3476 -18.9428 -18.4664 -17.9113 -17.3126 -17.1560 -17.1227 -16.9636
   -16.7700 -16.6122 -16.4508 -16.0843 -15.9627 -15.6473 -15.3842 -15.1359
   -14.9697 -13.8278 -13.6564 -13.5660 -13.2492 -13.0661 -12.6606 -12.5123
   -12.0435 -11.9544 -11.7836 -11.7753 -11.6259 -11.5888 -11.5130 -11.1424
   -10.9347 -10.9127 -10.5837 -10.1368  -9.9744  -9.9171  -9.7144  -9.5137
    -9.4125  -9.2051  -8.9532  -8.8589  -8.6710  -8.4461  -8.3886  -8.3215
    -8.1913  -8.1123  -7.9646  -7.9255  -7.8589  -7.7583  -7.6091  -7.5687
    -7.3269  -7.2736  -7.2487  -7.1592  -6.9210  -6.8060  -6.5797  -6.5551
    -6.3150  -6.1964  -6.1252  -5.8305  -5.8009  -5.7182  -5.5812  -5.4656
    -5.4044  -5.3126  -5.1928  -5.0931  -4.8496  -4.7497  -4.6439  -4.5928
    -4.4393  -4.1577  -3.9570  -3.8069  -3.4131  -3.3450  -3.0012  -2.8554
    -2.6056  -2.5358   0.5042   0.6188   0.7642   0.9962   1.2932   1.4046
     1.6768   1.7802   1.9406   2.0096   2.1275   2.3907   2.4911   2.5742
     2.6231   2.6821   2.7189   2.8109   3.1092   3.1451   3.3222   3.4031
     3.6125   3.7083   3.7294   3.9969   4.0219   4.1164   4.2814   4.3348
     4.4448   4.6166   4.7695   4.8186   4.9419   4.9791   5.1915   5.1963
     5.3064   5.4165   5.5002   5.5624   5.6002   5.7180   5.7705   5.9366
     5.9983   6.1266   6.2671   6.2957   6.3955   6.4296   6.5250   6.5743
     6.6250   6.6997   6.7743   6.8679   6.9132   6.9782   7.0296   7.0862
     7.1168   7.1437   7.1752   7.2442   7.3230   7.3506   7.3715   7.4121
     7.4469   7.5306   7.5361   7.5603   7.5816   7.6147   7.6534   7.7049
     7.7253   7.7821   7.8358   7.8784   7.9582   8.0290   8.0691   8.0963
     8.1858   8.2046   8.2592   8.2937   8.3282   8.4034   8.4238   8.4535
     8.5149   8.5750   8.6389   8.6716   8.7064   8.7260   8.7747   8.8134
     8.8781   8.9351   9.0249   9.0702   9.0831   9.1171   9.1808   9.2218
     9.2420   9.3043   9.3116   9.3523   9.3819   9.3908   9.4778   9.5044
     9.6996   9.7188   9.8197   9.8460   9.8600   9.8841   9.9480   9.9742
    10.0064  10.0097  10.0553  10.1543  10.2153  10.2814  10.3080  10.3351
    10.4084  10.4288  10.4667  10.5186  10.5899  10.6693  10.7005  10.7948
    10.8827  10.9125  10.9415  10.9992  11.0531  11.1470  11.2343  11.2677
    11.3373  11.4052  11.5230  11.5861  11.6001  11.6213  11.6973  11.7163
    11.7532  11.8172  11.8336  11.8621  11.9272  11.9299  12.0225  12.0596
    12.1203  12.1630  12.1962  12.2118  12.2410  12.3420  12.3720  12.3982
    12.4160  12.4212  12.4931  12.5124  12.5329  12.6009  12.6513  12.6980
    12.7365  12.7542  12.7757  12.8593  12.9021  12.9081  13.0130  13.0298
    13.0747  13.0977  13.1228  13.1502  13.1681  13.2367  13.2662  13.3022
    13.3283  13.4049  13.4312  13.4927  13.5639  13.5850  13.6612  13.7111
    13.7224  13.8116  13.8498  13.8654  13.8771  13.9408  14.0664  14.1462
    14.1757  14.2687  14.3302  14.3626  14.4122  14.5039  14.5406  14.7067
    14.7232  14.8095  14.8295  14.8605  14.9397  14.9899  15.0392  15.0925
    15.1273  15.1399  15.2088  15.2417  15.2966  15.3554  15.3935  15.4005
    15.4372  15.4941  15.5164  15.5883  15.6389  15.6681  15.7026  15.7244
    15.7642  15.7957  15.8419  15.8583  15.8922  15.9000  15.9220  15.9668
    15.9720  16.0068  16.0554  16.0851  16.1368  16.1602  16.1849  16.2677
    16.3026  16.3276  16.3869  16.4048  16.4682  16.4907  16.5074  16.6146
    16.6595  16.6956  16.7197  16.7435  16.7949  16.8251  16.8486  16.9139
    16.9393  17.0082  17.0713  17.1288  17.1640  17.1695  17.1913  17.2283
    17.3013  17.3169  17.3458  17.3889  17.4772  17.4858  17.4998  17.5627
    17.5855  17.6522  17.6589  17.7011  17.7277  17.7501  17.7835  17.8037
    17.8369  17.8961  17.9507  18.0132  18.0159  18.1261  18.1771  18.2447
    18.2803  18.2902  18.3147  18.3769  18.4134  18.4499  18.4507  18.5082
    18.5653  18.6061  18.6607  18.6831  18.7407  18.7473  18.7711  18.8040
    18.8118  18.8239  18.8418  18.9347  18.9476  19.0894  19.1594  19.1957
    19.2172  19.2522  19.3168  19.3410  19.3996  19.5044  19.5388  19.5986
    19.6297  19.6814  19.6964  19.7863  19.8287  19.8591  19.8964  19.9280
    19.9471  20.0057  20.0217  20.0494  20.0887  20.1129  20.1884  20.2132
    20.2817  20.3061  20.3324  20.3826  20.4317  20.4479  20.4879  20.5110
    20.5866  20.6445  20.7247  20.7620  20.8467  20.8659  20.8962  20.9506
    20.9646  21.0189  21.0447  21.0796  21.0982  21.1573  21.1959  21.2442
    21.2528  21.3396  21.4107  21.4231  21.4463  21.5114  21.5313  21.5915
    21.6110  21.6865  21.7271  21.7790  21.7883  21.8653  21.8859  21.9155
    21.9321  21.9577  21.9624  22.0199

          k = 0.0000 0.0000 0.0610 ( 45074 PWs)   bands (ev):

   -25.3213 -25.3179 -23.6561 -23.6530 -20.0948 -20.0357 -19.8697 -19.6212
   -19.2900 -18.8857 -18.4102 -17.8568 -17.3403 -17.2894 -17.2484 -17.1152
   -16.9146 -16.6132 -16.5730 -16.2303 -15.9484 -15.7644 -15.4312 -15.1962
   -15.0330 -13.8452 -13.7146 -13.5415 -13.2549 -13.0790 -12.6550 -12.5391
   -12.0191 -11.9610 -11.5759 -11.5440 -11.4742 -11.3965 -11.3847 -11.1853
   -10.8629 -10.8331 -10.6310 -10.1881  -9.8355  -9.7934  -9.6753  -9.4572
    -9.3309  -9.1169  -8.9645  -8.7937  -8.6142  -8.4154  -8.3347  -8.2308
    -8.1516  -8.0467  -7.9972  -7.8652  -7.8055  -7.6982  -7.5443  -7.5285
    -7.3482  -7.2414  -7.1946  -7.1552  -6.9008  -6.7636  -6.6554  -6.5546
    -6.3091  -6.2171  -6.1986  -5.9104  -5.8371  -5.7516  -5.6508  -5.5816
    -5.5155  -5.4110  -5.2165  -5.1394  -4.9526  -4.9182  -4.8131  -4.6073
    -4.5478  -4.3244  -3.9740  -3.9256  -3.5736  -3.3503  -3.1435  -2.9209
    -2.7044  -2.6223   0.5579   0.6882   0.7942   1.1316   1.2487   1.5756
     1.7529   1.9372   1.9579   2.0405   2.3455   2.5720   2.6228   2.6903
     2.7374   2.7991   2.8246   2.9409   3.1880   3.2101   3.4016   3.4734
     3.5571   3.7709   3.8028   4.0646   4.0734   4.1962   4.3587   4.3912
     4.4137   4.6654   4.8419   4.8898   4.9980   5.0401   5.2151   5.2704
     5.3048   5.4280   5.4970   5.5666   5.6204   5.6859   5.7374   5.9159
     6.0268   6.1492   6.2313   6.3471   6.3839   6.4671   6.4959   6.5177
     6.5827   6.6492   6.6657   6.7267   6.8380   6.8657   6.9454   6.9671
     7.0342   7.0858   7.1236   7.1694   7.2338   7.2448   7.3065   7.3499
     7.3756   7.4936   7.5353   7.5389   7.5839   7.5996   7.6165   7.6611
     7.6807   7.6993   7.7897   7.8527   7.8785   7.9249   7.9739   8.0101
     8.0358   8.0523   8.1723   8.1920   8.2137   8.2975   8.3265   8.3557
     8.4849   8.5149   8.5348   8.5731   8.6320   8.6568   8.6754   8.7325
     8.8338   8.8524   8.9958   9.0335   9.0588   9.0900   9.0978   9.1363
     9.1503   9.1705   9.1868   9.2162   9.2657   9.3017   9.3530   9.3972
     9.5700   9.5817   9.7325   9.7625   9.8114   9.8781   9.9371   9.9510
     9.9675  10.0334  10.0529  10.1047  10.2114  10.2440  10.2649  10.2912
    10.3568  10.3848  10.4342  10.4746  10.4915  10.6077  10.6512  10.7362
    10.8933  10.9279  10.9777  11.0011  11.0483  11.0815  11.2449  11.2597
    11.3302  11.4026  11.4474  11.4712  11.5035  11.5564  11.5822  11.6028
    11.6990  11.7266  11.8443  11.8918  11.9204  11.9470  12.0058  12.1141
    12.1203  12.1501  12.1655  12.2060  12.2094  12.3078  12.3410  12.3437
    12.3831  12.4699  12.4956  12.5064  12.5452  12.5542  12.5897  12.6668
    12.7258  12.7513  12.8102  12.8585  12.9045  12.9389  12.9598  13.0183
    13.0805  13.0980  13.1240  13.1478  13.1768  13.2231  13.2754  13.3143
    13.3450  13.3920  13.4403  13.4771  13.6035  13.6719  13.6880  13.7276
    13.7587  13.8108  13.8698  13.9591  14.0031  14.0639  14.0807  14.1498
    14.2076  14.2890  14.3645  14.4278  14.4651  14.5534  14.6106  14.6993
    14.7689  14.8542  14.8737  14.9168  14.9375  14.9597  15.0090  15.0289
    15.1614  15.1711  15.2270  15.2437  15.3695  15.4164  15.4300  15.5180
    15.5214  15.5314  15.5892  15.6124  15.6272  15.6510  15.6909  15.7393
    15.7746  15.8296  15.8693  15.8862  15.8875  15.9125  16.0251  16.0453
    16.0614  16.0857  16.1229  16.1294  16.1436  16.2533  16.2564  16.3241
    16.3409  16.3835  16.4064  16.4722  16.5470  16.5506  16.5609  16.5975
    16.7312  16.7541  16.7573  16.7894  16.8341  16.8443  16.8913  16.9511
    16.9765  17.1043  17.1315  17.1692  17.2102  17.2432  17.2758  17.2969
    17.3323  17.3537  17.4417  17.4590  17.4960  17.5152  17.5640  17.6240
    17.6769  17.7095  17.7428  17.7645  17.7964  17.8389  17.8846  17.9441
    17.9747  18.0425  18.0704  18.0855  18.1171  18.1497  18.2556  18.2854
    18.2925  18.3299  18.3948  18.4186  18.4434  18.4514  18.5402  18.5592
    18.6675  18.6838  18.7098  18.7289  18.7975  18.8034  18.8306  18.8669
    18.9341  19.0005  19.0300  19.0461  19.1176  19.1781  19.1932  19.2466
    19.2627  19.2940  19.3686  19.4155  19.4426  19.5405  19.5902  19.6064
    19.6375  19.7003  19.7188  19.7654  19.8178  19.8458  19.9328  19.9962
    20.0347  20.0578  20.0686  20.1056  20.1661  20.1778  20.1982  20.2384
    20.2894  20.3039  20.3701  20.4029  20.4556  20.5116  20.5775  20.6694
    20.6732  20.6995  20.7380  20.7693  20.8594  20.9060  20.9518  20.9707
    21.0219  21.0501  21.0993  21.1307  21.1370  21.2813  21.3314  21.3580
    21.3979  21.4168  21.4505  21.4776  21.5092  21.5670  21.5772  21.6479
    21.6923  21.7198  21.7563  21.8490  21.8592  21.8761  21.9216  21.9358
    21.9461  21.9775  22.0048  22.0524

          k = 0.0000 0.0000 0.0657 ( 45066 PWs)   bands (ev):

   -25.2876 -25.2842 -23.7070 -23.7041 -20.0313 -19.9725 -19.8068 -19.5586
   -19.2280 -18.8243 -18.3498 -17.7997 -17.4945 -17.4452 -17.3115 -17.1681
   -17.0666 -16.7583 -16.5427 -16.3653 -16.0025 -15.8073 -15.5231 -15.2147
   -15.1079 -13.8522 -13.7918 -13.5010 -13.2957 -13.0600 -12.6555 -12.5585
   -12.0123 -11.9729 -11.4708 -11.3804 -11.2882 -11.2417 -11.1743 -11.1105
   -10.8603 -10.7582 -10.6182 -10.2399  -9.7953  -9.6676  -9.5794  -9.3468
    -9.2626  -9.0676  -8.9241  -8.7335  -8.5413  -8.3799  -8.2947  -8.1374
    -8.1286  -7.9932  -7.9699  -7.8011  -7.7434  -7.6338  -7.5116  -7.4754
    -7.3973  -7.1926  -7.1470  -7.1135  -6.8965  -6.7372  -6.7277  -6.5493
    -6.3557  -6.3068  -6.1649  -6.0208  -5.9498  -5.7797  -5.7291  -5.7002
    -5.5731  -5.5004  -5.3202  -5.0990  -5.0979  -5.0418  -4.9792  -4.7720
    -4.5009  -4.4883  -4.1362  -3.8995  -3.7268  -3.3925  -3.2467  -3.0109
    -2.7791  -2.7092   0.6144   0.7036   0.8815   1.1603   1.3104   1.7419
     1.7936   1.9081   2.0785   2.2000   2.5641   2.6171   2.6601   2.7962
     2.8717   2.8851   3.0780   3.2033   3.2564   3.2751   3.4868   3.4915
     3.5682   3.8434   3.8815   4.0943   4.1454   4.2823   4.3619   4.4433
     4.4985   4.7047   4.9090   4.9626   5.0447   5.1047   5.1866   5.3162
     5.3473   5.3838   5.4412   5.5384   5.6676   5.7489   5.7753   5.9302
     5.9930   6.1311   6.2147   6.2848   6.3128   6.3801   6.4934   6.4957
     6.5686   6.6009   6.6192   6.7184   6.7298   6.7917   6.8321   6.9072
     6.9496   6.9787   7.0670   7.0910   7.1130   7.1737   7.2062   7.2516
     7.3646   7.3997   7.4189   7.5065   7.5672   7.6035   7.6218   7.6364
     7.6881   7.7059   7.7421   7.7800   7.7959   7.8063   7.8597   7.9056
     7.9489   7.9599   7.9972   8.0538   8.1269   8.2746   8.2912   8.3122
     8.3506   8.3529   8.3693   8.5080   8.5701   8.5923   8.6447   8.7623
     8.7859   8.8366   8.8453   8.8661   8.9095   8.9438   8.9858   8.9991
     9.0793   9.1402   9.1436   9.2196   9.2429   9.2914   9.3294   9.3560
[...]
     5.8422   5.8785   5.9005   5.9809   6.0380   6.1019   6.1958   6.2102
     6.2709   6.2741   6.3133   6.3819   6.4607   6.5016   6.5294   6.5553
     6.5917   6.6102   6.6285   6.6585   6.6860   6.7307   6.7494   6.7882
     6.8268   6.8554   6.9395   6.9590   6.9998   7.0484   7.0819   7.1007
     7.1543   7.2232   7.2440   7.2826   7.3229   7.3811   7.4239   7.4523
     7.4903   7.5088   7.5504   7.5686   7.6189   7.6288   7.6590   7.6971
     7.7614   7.8961   7.9370   7.9964   8.1020   8.1959   8.2105   8.2343
     8.3386   8.3610   8.4190   8.4685   8.5266   8.5456   8.6092   8.6759
     8.7061   8.7538   8.7974   8.9060   9.0029   9.0669   9.0888   9.1682
     9.2369   9.3534   9.4215   9.4894   9.5534   9.5963   9.6926   9.7147
     9.7411   9.7798   9.8045   9.9205   9.9481  10.0564  10.1239  10.1669
    10.2085  10.2301  10.2793  10.3358  10.4191  10.5051  10.5375  10.6443
    10.6589  10.7029  10.7960  10.8938  10.9001  10.9884  11.0009  11.0128
    11.0661  11.0826  11.1041  11.2366  11.2720  11.3155  11.3642  11.3988
    11.5422  11.6328  11.6634  11.7025  11.7218  11.7575  11.8202  11.8388
    11.8716  11.8937  11.9299  11.9897  12.0573  12.0952  12.1229  12.1767
    12.3054  12.3159  12.3938  12.4405  12.5089  12.5268  12.5420  12.5941
    12.6230  12.7189  12.7704  12.8282  12.8479  12.8705  12.9140  12.9458
    13.0080  13.0260  13.0683  13.0732  13.1605  13.2815  13.3620  13.4165
    13.4393  13.4644  13.4944  13.5188  13.6141  13.6582  13.7955  13.8096
    13.8618  13.9229  14.0238  14.0414  14.0666  14.1016  14.1344  14.1811
    14.2052  14.2821  14.3126  14.3885  14.4262  14.5013  14.6037  14.6824
    14.7061  14.7318  14.8296  14.9047  14.9304  14.9648  15.0258  15.0456
    15.0779  15.0853  15.1763  15.2754  15.2853  15.3350  15.4234  15.4659
    15.4904  15.5097  15.5566  15.6454  15.7065  15.7267  15.7455  15.8692
    15.8996  15.9451  15.9735  16.0388  16.1036  16.1717  16.2221  16.2607
    16.3047  16.3341  16.3570  16.4495  16.4910  16.5821  16.6505  16.6984
    16.7337  16.7932  16.8275  16.8753  16.9343  16.9495  16.9953  17.0176
    17.0228  17.1225  17.1628  17.2184  17.2428  17.2798  17.3555  17.3711
    17.4232  17.4670  17.4872  17.5167  17.5428  17.5628  17.5856  17.7030
    17.7167  17.7678  17.7794  17.8518  17.8674  18.0095  18.0520  18.0858
    18.1318  18.1566  18.2111  18.2438  18.2956  18.3422  18.4302  18.4559
    18.5010  18.5257  18.5658  18.5930  18.6356  18.7251  18.7295  18.7954
    18.8372  18.8989  19.0178  19.0206  19.0725  19.0921  19.1603  19.2089
    19.2777  19.4318  19.4561  19.4975  19.5790  19.5993  19.6065  19.6391
    19.7095  19.7607  19.7900  19.8245  19.9218  19.9587  19.9789  20.0088
    20.0495  20.0783  20.0884  20.1775  20.1919  20.2634  20.2979  20.3850
    20.4283  20.4536  20.4952  20.5898  20.6204  20.6779  20.7037  20.7186
    20.7572  20.7672  20.7766  20.8168  20.8723  20.9185  20.9657  21.0030
    21.0268  21.0815  21.1419  21.1725  21.2110  21.2483  21.2730  21.2903
    21.2984  21.3820  21.4448  21.4725  21.4912  21.5169  21.5325  21.5753
    21.6208  21.6389  21.6881  21.7164  21.7221  21.7814  21.8507  21.8784
    21.8900  21.9014  21.9079  21.9423  21.9804  21.9871  21.9923  22.0161
    22.0244  22.0513  22.0697  22.0940  22.1391  22.1563  22.1625  22.1705
    22.2679  22.3279  22.3614  22.3905

          k = 0.0000 0.0000 0.1080 ( 45112 PWs)   bands (ev):

   -25.0020 -24.9994 -24.0966 -24.0954 -19.2532 -19.2000 -19.0393 -18.8114
   -18.7863 -18.7237 -18.5865 -18.4541 -18.3338 -18.0672 -18.0056 -17.6281
   -17.5840 -17.1579 -17.0489 -16.6231 -16.4612 -16.0533 -15.8575 -15.5084
   -15.3750 -14.1125 -13.9621 -13.6024 -13.3699 -12.9431 -12.7209 -12.3753
   -12.0524 -11.8828 -11.4372 -11.3978 -11.2892 -11.0135 -10.6957 -10.3161
    -9.9632  -9.5791  -9.3246  -9.1048  -8.9865  -8.9510  -8.9242  -8.6126
    -8.3991  -8.3001  -8.1243  -8.0624  -8.0090  -7.9284  -7.9076  -7.8949
    -7.7890  -7.7472  -7.6315  -7.5514  -7.4686  -7.4397  -7.4058  -7.3826
    -7.3273  -7.2956  -7.2815  -7.2261  -7.0970  -7.0562  -6.9282  -6.9072
    -6.8756  -6.7204  -6.5833  -6.5567  -6.5007  -6.4505  -6.4188  -6.3744
    -6.1783  -6.1698  -6.0512  -5.9352  -5.8247  -5.6843  -5.4154  -5.3588
    -4.9813  -4.9435  -4.5355  -4.4460  -4.0558  -3.9475  -3.6005  -3.5199
    -3.1652  -3.1388   0.7954   0.8589   1.1273   1.2919   1.6870   1.8966
     2.3548   2.5524   2.8935   2.9882   3.2013   3.2412   3.5870   3.7122
     3.7226   3.8115   3.8801   3.9593   3.9796   4.3005   4.3614   4.4112
     4.4445   4.4777   4.5165   4.5474   4.6266   4.6787   4.8433   4.8955
     4.9785   5.0587   5.1029   5.1738   5.1953   5.2377   5.2481   5.3305
     5.3409   5.4199   5.4918   5.5338   5.5636   5.5989   5.6175   5.8340
     5.8443   5.9068   5.9399   5.9592   6.0310   6.0398   6.0656   6.1606
     6.1924   6.2417   6.3635   6.4024   6.4546   6.4753   6.4916   6.5280
     6.5455   6.5644   6.6124   6.6451   6.6695   6.7127   6.7366   6.7536
     6.7726   6.7924   6.8469   6.9036   6.9605   7.0069   7.0274   7.0975
     7.1174   7.1587   7.1797   7.2088   7.3175   7.3443   7.3948   7.4163
     7.4437   7.4999   7.5328   7.5604   7.5856   7.6409   7.6901   7.7194
     7.7409   7.8922   7.9307   7.9579   8.0949   8.1404   8.1607   8.2176
     8.2556   8.2764   8.3493   8.4063   8.4456   8.5484   8.6426   8.7356
     8.7807   8.8155   8.8496   8.9041   8.9589   9.0419   9.1476   9.1884
     9.2455   9.3617   9.4024   9.4216   9.4577   9.5474   9.6602   9.6708
     9.7613   9.7965   9.8346   9.8518   9.8990   9.9800  10.0323  10.1940
    10.2475  10.2701  10.3294  10.3652  10.4579  10.4812  10.5568  10.5746
    10.6525  10.6650  10.7788  10.8525  10.8868  10.9278  11.0743  11.0795
    11.1143  11.1313  11.1662  11.1780  11.2241  11.3736  11.3805  11.4473
    11.5305  11.6381  11.6649  11.6972  11.7200  11.7343  11.7527  11.7704
    11.8356  11.8503  11.8713  11.9809  12.0254  12.1171  12.1561  12.1881
    12.2533  12.3273  12.3790  12.4015  12.4222  12.4395  12.6076  12.6276
    12.6645  12.6863  12.7070  12.7859  12.8870  12.9078  12.9202  12.9422
    13.0675  13.0775  13.1453  13.1722  13.2102  13.2464  13.2632  13.3296
    13.4130  13.4542  13.4653  13.5780  13.6337  13.6376  13.7500  13.7648
    13.8413  13.8949  13.9090  14.0301  14.0503  14.0773  14.1468  14.2252
    14.2986  14.3138  14.3438  14.3851  14.3874  14.5158  14.5432  14.6441
    14.6624  14.6912  14.8357  14.8830  14.9298  14.9597  15.0362  15.0853
    15.1192  15.1232  15.1983  15.2557  15.2646  15.3069  15.3729  15.4467
    15.4722  15.5670  15.6345  15.6587  15.7033  15.7794  15.8575  15.9009
    15.9238  15.9414  15.9655  16.0363  16.0652  16.1545  16.2888  16.3147
    16.3439  16.3798  16.4595  16.4662  16.4802  16.5436  16.6371  16.6707
    16.7340  16.7753  16.8091  16.8125  16.8902  16.9552  17.0063  17.0218
    17.0376  17.0695  17.1443  17.2074  17.3045  17.3120  17.3417  17.3946
    17.4032  17.4336  17.4508  17.4914  17.5010  17.5654  17.6693  17.6791
    17.7432  17.7645  17.7787  17.8675  17.9401  17.9650  17.9798  18.0241
    18.0609  18.1423  18.1679  18.2557  18.2932  18.3092  18.4045  18.4344
    18.4717  18.5356  18.5728  18.6037  18.7017  18.7434  18.7770  18.8175
    18.8819  18.9362  18.9912  19.0329  19.0626  19.1234  19.1336  19.1881
    19.3680  19.4531  19.5339  19.6118  19.6227  19.6978  19.7304  19.7621
    19.8292  19.8437  19.9220  19.9550  19.9998  20.0821  20.1130  20.1714
    20.2142  20.2417  20.2486  20.2790  20.3707  20.3963  20.4848  20.4892
    20.5253  20.5685  20.6030  20.6637  20.7125  20.7500  20.7604  20.7960
    20.8715  20.8816  20.9324  20.9488  21.0128  21.0214  21.0578  21.0780
    21.1091  21.1355  21.1487  21.1943  21.2529  21.2666  21.2848  21.3146
    21.3493  21.3604  21.4297  21.4483  21.5225  21.5302  21.5620  21.5960
    21.6071  21.6162  21.6554  21.6957  21.7109  21.7439  21.7869  21.8162
    21.8597  21.9202  21.9321  21.9532  21.9731  21.9894  22.0710  22.0880
    22.1151  22.1500  22.1650  22.1712  22.1932  22.2154  22.2366  22.2566
    22.2824  22.2941  22.3343  22.3616

          k = 0.0000 0.0000 0.1127 ( 45100 PWs)   bands (ev):

   -24.9897 -24.9871 -24.1120 -24.1108 -19.1448 -19.0935 -18.9435 -18.9019
   -18.8605 -18.7049 -18.6776 -18.4511 -18.3574 -18.1257 -17.9630 -17.7293
   -17.4978 -17.2641 -16.9577 -16.7262 -16.3748 -16.1482 -15.7867 -15.5763
   -15.3552 -14.1417 -13.9214 -13.6632 -13.3182 -12.9950 -12.6699 -12.4013
   -12.0096 -11.8976 -11.4440 -11.3780 -11.3096 -11.0651 -10.6650 -10.3486
    -9.9302  -9.5799  -9.2808  -8.9842  -8.8749  -8.7492  -8.6736  -8.6475
    -8.3891  -8.3015  -8.2270  -8.1474  -8.1203  -8.1174  -7.7914  -7.7668
    -7.6790  -7.6706  -7.5735  -7.5089  -7.4617  -7.4579  -7.4426  -7.4391
    -7.3893  -7.3863  -7.3777  -7.3088  -7.0843  -6.9869  -6.9174  -6.8267
    -6.7988  -6.7202  -6.6635  -6.6254  -6.5680  -6.4624  -6.4223  -6.3571
    -6.2231  -6.1654  -6.1437  -5.9702  -5.8429  -5.6772  -5.4901  -5.2950
    -5.0907  -4.8499  -4.6416  -4.3646  -4.1467  -3.8916  -3.6610  -3.5008
    -3.1870  -3.1408   0.7859   0.8909   1.0803   1.3686   1.6024   2.0093
     2.2437   2.6794   2.9288   3.0007   3.2527   3.3366   3.4899   3.6801
     3.6988   3.8900   3.9882   4.0627   4.1075   4.2134   4.2963   4.4018
     4.4266   4.4644   4.5019   4.6198   4.7179   4.7704   4.8036   4.8678
     4.9929   5.0304   5.0812   5.1200   5.1577   5.2760   5.3112   5.3902
     5.4187   5.4600   5.4866   5.6215   5.6596   5.6682   5.7082   5.7160
     5.7838   5.8156   5.9136   5.9653   6.0330   6.0593   6.1028   6.1514
     6.1650   6.2656   6.2804   6.3542   6.3923   6.4421   6.4660   6.5230
     6.5283   6.5396   6.5431   6.6101   6.6451   6.6700   6.7099   6.7313
     6.7827   6.8179   6.8431   6.9108   6.9580   6.9802   7.0271   7.0467
     7.0811   7.1057   7.1518   7.1924   7.2456   7.2874   7.3564   7.3833
     7.3941   7.4325   7.5274   7.6002   7.6344   7.6726   7.7080   7.7872
     7.8091   7.9082   7.9472   7.9600   7.9984   8.0553   8.1158   8.1206
     8.1862   8.2465   8.3116   8.3568   8.4624   8.6008   8.6250   8.6888
     8.8153   8.8877   8.9070   8.9663   9.0035   9.0661   9.1107   9.2380
     9.2417   9.2951   9.3282   9.3694   9.4806   9.5432   9.5479   9.6071
     9.7374   9.8052   9.8394   9.8715   9.9095   9.9918  10.0435  10.1467
    10.2045  10.2841  10.3181  10.4207  10.4363  10.4954  10.5550  10.6292
    10.6998  10.7242  10.7572  10.7844  10.8180  10.8423  10.9966  11.0122
    11.1894  11.2055  11.2371  11.2570  11.2958  11.3257  11.4777  11.5076
    11.5261  11.5311  11.5840  11.6295  11.6531  11.7345  11.7476  11.7829
    11.8479  11.8992  11.9338  11.9729  12.0154  12.0968  12.1294  12.1722
    12.2453  12.2993  12.3254  12.3386  12.3710  12.4367  12.5719  12.6332
    12.6649  12.7350  12.7398  12.7834  12.8592  12.9065  12.9433  13.0097
    13.0706  13.1124  13.1427  13.1948  13.2206  13.2283  13.3022  13.3458
    13.4319  13.4436  13.4598  13.5221  13.5684  13.6301  13.7206  13.7489
    13.7696  13.8536  13.9556  13.9796  14.0350  14.0960  14.1474  14.2539
    14.2794  14.3057  14.3830  14.4153  14.4535  14.5221  14.5763  14.6036
    14.6354  14.6551  14.7349  14.8825  14.9415  14.9794  15.0123  15.1284
    15.1315  15.1502  15.1982  15.2219  15.2705  15.2972  15.3419  15.4603
    15.5035  15.5602  15.6332  15.6883  15.7669  15.8141  15.8555  15.9081
    15.9314  15.9471  16.0217  16.0581  16.0954  16.1191  16.2590  16.3022
    16.3323  16.3975  16.4911  16.5127  16.5637  16.5947  16.6208  16.6506
    16.6875  16.7037  16.8215  16.8525  16.9192  16.9358  16.9805  16.9974
    17.0600  17.0759  17.1021  17.1628  17.2157  17.2581  17.2823  17.3411
    17.4396  17.4668  17.5367  17.5661  17.5721  17.6292  17.6442  17.7191
    17.7447  17.7559  17.8015  17.8452  17.8585  17.8825  17.9076  17.9839
    18.0597  18.1430  18.1573  18.2550  18.2947  18.3041  18.3632  18.3991
    18.4324  18.5226  18.5606  18.6644  18.7263  18.7581  18.8205  18.8670
    18.8840  18.9529  18.9634  19.0015  19.0668  19.1073  19.1721  19.1903
    19.3145  19.5414  19.5921  19.6326  19.7018  19.7135  19.7266  19.7561
    19.9070  19.9463  20.0801  20.1495  20.1652  20.2050  20.2620  20.2814
    20.3147  20.3349  20.3735  20.4153  20.4855  20.5080  20.5196  20.5480
    20.5807  20.6088  20.6921  20.7418  20.7536  20.8717  20.8933  20.9196
    20.9539  20.9795  20.9908  21.0020  21.0461  21.0903  21.1186  21.1367
    21.1504  21.1810  21.2055  21.2348  21.2504  21.2656  21.2757  21.2953
    21.3060  21.3635  21.4029  21.4471  21.4591  21.5038  21.5142  21.5189
    21.5774  21.6129  21.6290  21.6537  21.6736  21.7534  21.7764  21.8005
    21.8503  21.8550  21.9267  21.9412  21.9748  21.9929  22.0274  22.0529
    22.0589  22.1565  22.1689  22.2232  22.2599  22.2701  22.2991  22.3073
    22.3184  22.3470  22.3618  22.3821

          k = 0.0000 0.0000-0.1174 ( 45112 PWs)   bands (ev):

   -24.9855 -24.9828 -24.1172 -24.1161 -19.0433 -19.0227 -19.0001 -18.9555
   -18.8437 -18.7857 -18.6110 -18.5294 -18.2850 -18.2039 -17.8923 -17.8047
   -17.4296 -17.3366 -16.8935 -16.7941 -16.3180 -16.2077 -15.7472 -15.6147
   -15.3483 -14.1518 -13.9016 -13.6896 -13.2960 -13.0177 -12.6476 -12.4162
   -11.9824 -11.9139 -11.4461 -11.3760 -11.3068 -11.0883 -10.6512 -10.3633
    -9.9169  -9.5836  -9.2666  -8.9451  -8.8068  -8.7024  -8.5394  -8.5102
    -8.4152  -8.4072  -8.2852  -8.2844  -8.1553  -8.1535  -7.6639  -7.6533
    -7.6244  -7.5885  -7.5728  -7.5610  -7.5227  -7.4935  -7.4862  -7.4578
    -7.4545  -7.4196  -7.4164  -7.2380  -7.1559  -6.8906  -6.8766  -6.8265
    -6.7730  -6.7398  -6.6921  -6.6606  -6.6051  -6.4666  -6.4483  -6.2690
    -6.2562  -6.1927  -6.1907  -5.9327  -5.9077  -5.6074  -5.5738  -5.1983
    -5.1932  -4.7713  -4.7243  -4.3127  -4.2018  -3.8641  -3.6900  -3.4936
    -3.1951  -3.1414   0.7827   0.9060   1.0601   1.4123   1.5560   2.1008
     2.1525   2.7698   2.8522   3.0535   3.2695   3.3817   3.4790   3.6143
     3.6669   4.0149   4.0643   4.0787   4.1582   4.1844   4.2399   4.3074
     4.3395   4.5275   4.5462   4.6943   4.7437   4.7755   4.8256   4.8929
     4.9212   4.9589   5.0358   5.1455   5.2082   5.2488   5.3566   5.3661
     5.5095   5.5153   5.5384   5.5645   5.6245   5.6466   5.7479   5.7712
     5.7969   5.8488   5.8498   5.8627   6.0261   6.1040   6.1504   6.1787
     6.2507   6.2780   6.2801   6.3145   6.3158   6.3369   6.3459   6.4925
     6.5111   6.5515   6.6096   6.6351   6.6383   6.6736   6.6892   6.7293
     6.7626   6.7895   6.8677   6.9304   6.9546   6.9767   7.0391   7.0471
     7.0830   7.1080   7.1337   7.1350   7.2115   7.2632   7.3354   7.3409
     7.3931   7.4517   7.4951   7.5982   7.6825   7.6922   7.7244   7.8378
     7.8724   7.8808   7.9290   7.9681   8.0049   8.0386   8.0647   8.0734
     8.0915   8.2199   8.3282   8.3987   8.4764   8.5239   8.6514   8.6759
     8.8545   8.8952   8.9199   9.0327   9.0432   9.0847   9.1187   9.1406
     9.2619   9.2768   9.3159   9.3483   9.4640   9.4875   9.6246   9.6254
     9.6409   9.7480   9.8498   9.8756   9.9442  10.0585  10.1160  10.1366
    10.1590  10.1617  10.3358  10.3633  10.4890  10.6048  10.6080  10.6248
    10.6597  10.6820  10.7479  10.7506  10.8343  10.8744  10.9338  10.9619
    11.1679  11.1968  11.3440  11.3586  11.3821  11.3884  11.4061  11.4239
    11.4294  11.4865  11.5803  11.6268  11.6668  11.7592  11.7660  11.7846
    11.8755  11.9358  11.9524  11.9562  12.0277  12.0678  12.0835  12.1852
    12.2193  12.2496  12.2556  12.3495  12.4247  12.4768  12.5159  12.5625
    12.6808  12.7476  12.7788  12.8371  12.8738  12.9265  12.9445  12.9648
    13.0468  13.0977  13.1090  13.2057  13.2381  13.3194  13.3410  13.3618
    13.4036  13.4283  13.4395  13.5304  13.5691  13.6093  13.6236  13.7167
    13.8193  13.8739  13.9030  13.9691  14.0675  14.1411  14.1501  14.2127
    14.2543  14.2639  14.4343  14.4441  14.5251  14.5397  14.5767  14.5891
    14.6145  14.6203  14.6984  14.8698  14.9384  14.9973  15.0220  15.0863
    15.1373  15.1653  15.2073  15.2192  15.2779  15.2782  15.3436  15.4801
    15.5414  15.5574  15.6217  15.6554  15.7815  15.8470  15.8633  15.8962
    15.9270  16.0056  16.0403  16.0445  16.0906  16.1313  16.2384  16.3064
    16.3292  16.3486  16.4884  16.5240  16.5718  16.6319  16.6340  16.6699
    16.6990  16.7405  16.8089  16.8472  16.8920  16.9282  16.9572  16.9953
    17.0810  17.0838  17.1190  17.1215  17.1641  17.2028  17.2695  17.3233
    17.4335  17.4689  17.6233  17.6572  17.6586  17.6885  17.6971  17.7073
    17.7085  17.7182  17.7387  17.7527  17.7947  17.8511  17.9142  17.9760
    18.0569  18.1579  18.2169  18.2326  18.2642  18.2801  18.3483  18.3677
    18.4828  18.5121  18.5256  18.6649  18.7915  18.7975  18.8180  18.8480
    18.9087  18.9206  18.9520  18.9798  19.0127  19.0981  19.2285  19.2475
    19.3240  19.4446  19.6292  19.6407  19.6623  19.6976  19.7587  19.8697
    20.0064  20.0923  20.1196  20.1726  20.1745  20.2254  20.2270  20.2727
    20.3301  20.3314  20.3933  20.4485  20.5063  20.6069  20.6316  20.6748
    20.7025  20.7171  20.7387  20.7592  20.8433  20.8466  20.8678  20.8910
    20.9486  21.0034  21.0245  21.0322  21.0627  21.0729  21.1221  21.1319
    21.1348  21.1439  21.1843  21.2032  21.2355  21.2537  21.2844  21.2953
    21.3530  21.3571  21.4269  21.4627  21.4727  21.4970  21.5334  21.5374
    21.5583  21.5633  21.6156  21.6462  21.6939  21.7164  21.7720  21.8213
    21.8247  21.8697  21.8846  21.9177  21.9718  22.0123  22.0355  22.0545
    22.0969  22.1089  22.1365  22.1894  22.2392  22.2725  22.2802  22.3003
    22.3498  22.3599  22.3713  22.4266

     the Fermi energy is    -1.1484 ev

     Writing output data file AGNR_OH_21.save/

     init_run     :      9.86s CPU     10.15s WALL (       1 calls)
     electrons    :   2667.88s CPU   2690.35s WALL (       1 calls)

     Called by init_run:
     wfcinit      :      0.00s CPU      0.01s WALL (       1 calls)
     potinit      :      0.45s CPU      0.51s WALL (       1 calls)
     hinit0       :      8.37s CPU      8.43s WALL (       1 calls)

     Called by electrons:
     c_bands      :   2667.86s CPU   2690.33s WALL (       1 calls)
     v_of_rho     :      0.35s CPU      0.38s WALL (       1 calls)
     newd         :      0.28s CPU      0.41s WALL (       1 calls)

     Called by c_bands:
     init_us_2    :      0.26s CPU      0.28s WALL (      26 calls)
     cegterg      :   2607.93s CPU   2628.54s WALL (      26 calls)

     Called by sum_band:

     Called by *egterg:
     h_psi        :    429.53s CPU    435.41s WALL (     543 calls)
     s_psi        :     44.47s CPU     44.57s WALL (     543 calls)
     g_psi        :      3.34s CPU      3.35s WALL (     491 calls)
     cdiaghg      :   1506.90s CPU   1510.47s WALL (     517 calls)

     Called by h_psi:
     h_psi:pot    :    426.51s CPU    431.14s WALL (     543 calls)
     h_psi:calbec :     43.31s CPU     44.14s WALL (     543 calls)
     vloc_psi     :    340.57s CPU    344.23s WALL (     543 calls)
     add_vuspsi   :     42.62s CPU     42.77s WALL (     543 calls)

     General routines
     calbec       :     43.31s CPU     44.13s WALL (     543 calls)
     fft          :      0.43s CPU      0.47s WALL (      14 calls)
     ffts         :      0.00s CPU      0.00s WALL (       1 calls)
     fftw         :    302.42s CPU    305.75s WALL (  337656 calls)
     interpolate  :      0.02s CPU      0.02s WALL (       1 calls)
     davcio       :      0.00s CPU      0.99s WALL (      52 calls)

     Parallel routines
     fft_scatt_xy :     52.79s CPU     53.36s WALL (  337671 calls)
     fft_scatt_yz :     86.90s CPU     88.10s WALL (  337671 calls)

     PWSCF        : 44m48.75s CPU    47m25.55s WALL


   This run was terminated on:  23:15:47  21Apr2021            

=------------------------------------------------------------------------------=
   JOB DONE.
=------------------------------------------------------------------------------=
