
     Program PWSCF v.6.3 starts on  2Jan2022 at 17:44:42 

     This program is part of the open-source Quantum ESPRESSO suite
     for quantum simulation of materials; please cite
         "P. Giannozzi et al., J. Phys.:Condens. Matter 21 395502 (2009);
         "P. Giannozzi et al., J. Phys.:Condens. Matter 29 465901 (2017);
          URL http://www.quantum-espresso.org", 
     in publications or presentations arising from this work. More details at
     http://www.quantum-espresso.org/quote

     Parallel version (MPI), running on    16 processors
     R & G space division:  proc/nbgrp/npool/nimage =      16
     Waiting for input...
     Reading input from standard input
     Message from routine read_cards :
     DEPRECATED: no units specified in CELL_PARAMETERS card

     Current dimensions of program PWSCF are:
     Max number of different atomic species (ntypx) = 10
     Max number of k-points (npk) =  40000
     Max angular momentum in pseudopotentials (lmaxx) =  3

     Atomic positions and unit cell read from directory:
     /home/zfwang/scratch/GNRDATASET/AGNR/AGNR_OH_22/AGNR_OH_22.save/


     Subspace diagonalization in iterative solution of the eigenvalue problem:
     a serial algorithm will be used


     Parallelization info
     --------------------
     sticks:   dense  smooth     PW     G-vecs:    dense   smooth      PW
     Min        3231    1077    303               120979    23277    3487
     Max        3233    1079    305               120980    23278    3488
     Sum       51709   17237   4869              1935669   372433   55797



     bravais-lattice index     =            0
     lattice parameter (alat)  =       1.8897  a.u.
     unit-cell volume          =   10901.2056 (a.u.)^3
     number of atoms/cell      =           52
     number of atomic types    =            3
     number of electrons       =       204.00
     number of Kohn-Sham states=          500
     kinetic-energy cutoff     =      40.0000  Ry
     charge density cutoff     =     480.0000  Ry
     Exchange-correlation      = PBE ( 1  4  3  4 0 0)

     celldm(1)=  18.897261  celldm(2)=   3.792000  celldm(3)=   0.426000
     celldm(4)=   0.000000  celldm(5)=   0.000000  celldm(6)=   0.000000

     crystal axes: (cart. coord. in units of alat)
               a(1) = (  10.000000   0.000000   0.000000 )  
               a(2) = (   0.000000  37.920000   0.000000 )  
               a(3) = (   0.000000   0.000000   4.260000 )  

     reciprocal axes: (cart. coord. in units 2 pi/alat)
               b(1) = (  0.100000  0.000000  0.000000 )  
               b(2) = (  0.000000  0.026371  0.000000 )  
               b(3) = (  0.000000  0.000000  0.234742 )  


     PseudoPot. # 1 for C  read from file:
     /home/zfwang/hp_home/MySoftware/qe-6.3/pseudo/C.pbe-n-rrkjus_psl.0.1.UPF
     MD5 check sum: fff530ed632a789b3b184014e67dd7f1
     Pseudo is Ultrasoft + core correction, Zval =  4.0
     Generated using "atomic" code by A. Dal Corso v.5.0.2 svn rev. 9415
     Using radial grid of 1073 points,  4 beta functions with: 
                l(1) =   0
                l(2) =   0
                l(3) =   1
                l(4) =   1
     Q(r) pseudized with 0 coefficients 


     PseudoPot. # 2 for O  read from file:
     /home/zfwang/hp_home/MySoftware/qe-6.3/pseudo/O.pbe-n-rrkjus_psl.0.1.UPF
     MD5 check sum: 73b3d1dec572cf22214b1d95c6304b69
     Pseudo is Ultrasoft + core correction, Zval =  6.0
     Generated using "atomic" code by A. Dal Corso v.6.3MaX
     Using radial grid of 1095 points,  4 beta functions with: 
                l(1) =   0
                l(2) =   0
                l(3) =   1
                l(4) =   1
     Q(r) pseudized with 0 coefficients 


     PseudoPot. # 3 for H  read from file:
     /home/zfwang/hp_home/MySoftware/qe-6.3/pseudo/H.pbe-rrkjus_psl.0.1.UPF
     MD5 check sum: e164a6907b691c6980f16942be34de84
     Pseudo is Ultrasoft, Zval =  1.0
     Generated using "atomic" code by A. Dal Corso v.5.0.2 svn rev. 9415
     Using radial grid of  929 points,  2 beta functions with: 
                l(1) =   0
                l(2) =   0
     Q(r) pseudized with 0 coefficients 


     atomic species   valence    mass     pseudopotential
        C              4.00    12.01070     C ( 1.00)
        O              6.00    18.99840     O ( 1.00)
        H              1.00     1.00794     H ( 1.00)

     No symmetry found



   Cartesian axes

     site n.     atom                  positions (alat units)
         1           C   tau(   1) = (   4.8068522   6.0585784   2.8010258  )
         2           C   tau(   2) = (   4.9434952   7.2399093   3.5502663  )
         3           C   tau(   3) = (   5.1494086   6.0763184   1.4687648  )
         4           C   tau(   4) = (   5.0081052   8.4731889   2.8374729  )
         5           C   tau(   5) = (   5.0155962   9.7096614   3.5509692  )
         6           C   tau(   6) = (   5.0499919   7.2440865   0.7081810  )
         7           C   tau(   7) = (   4.9996651   8.4767271   1.4217479  )
         8           C   tau(   8) = (   5.0072776  10.9410167   2.8414469  )
         9           C   tau(   9) = (   5.0002968  12.1730873   3.5502310  )
        10           C   tau(  10) = (   4.9920263   9.7112364   0.7081588  )
        11           C   tau(  11) = (   4.9963641  10.9420823   1.4182853  )
        12           C   tau(  12) = (   4.9985081  13.4076832   2.8392012  )
        13           C   tau(  13) = (   4.9993393  14.6411596   3.5491807  )
        14           C   tau(  14) = (   4.9997869  12.1734796   0.7096269  )
        15           C   tau(  15) = (   5.0004369  13.4079037   1.4208476  )
        16           C   tau(  16) = (   4.9999955  15.8736577   2.8402773  )
        17           C   tau(  17) = (   5.0000529  17.1083958   3.5505054  )
        18           C   tau(  18) = (   5.0000831  14.6409359   0.7108993  )
        19           C   tau(  19) = (   4.9999478  15.8736466   1.4196489  )
        20           C   tau(  20) = (   4.9999988  18.3424286   2.8403028  )
        21           C   tau(  21) = (   5.0000119  19.5749103   3.5489134  )
        22           C   tau(  22) = (   5.0000033  17.1082181   0.7093103  )
        23           C   tau(  23) = (   5.0000096  18.3423606   1.4192525  )
        24           C   tau(  24) = (   4.9999727  20.8092395   2.8380334  )
        25           C   tau(  25) = (   4.9998668  22.0445667   3.5466936  )
        26           C   tau(  26) = (   4.9999800  19.5749428   0.7099885  )
        27           C   tau(  27) = (   5.0000031  20.8092463   1.4191721  )
        28           C   tau(  28) = (   5.0001585  23.2773846   2.8361803  )
        29           C   tau(  29) = (   5.0010166  24.5115042   3.5444559  )
        30           C   tau(  30) = (   4.9999591  22.0440877   0.7074364  )
        31           C   tau(  31) = (   4.9995318  23.2774901   1.4142634  )
        32           C   tau(  32) = (   5.0002646  25.7465809   2.8327317  )
        33           C   tau(  33) = (   4.9948059  26.9791555   3.5406445  )
        34           C   tau(  34) = (   4.9990911  24.5109199   0.7030273  )
        35           C   tau(  35) = (   5.0005065  25.7460728   1.4131498  )
        36           C   tau(  36) = (   4.9877197  28.2108446   2.8298606  )
        37           C   tau(  37) = (   4.9958860  29.4478888   3.5420243  )
        38           C   tau(  38) = (   5.0054653  26.9780342   0.7038589  )
        39           C   tau(  39) = (   5.0115010  28.2096547   1.4126386  )
        40           C   tau(  40) = (   5.0582659  30.6816451   2.8287874  )
        41           C   tau(  41) = (   5.1875381  31.8647648   3.5769382  )
        42           C   tau(  42) = (   5.0049300  29.4446442   0.6978999  )
        43           C   tau(  43) = (   4.9524587  30.6774585   1.4107291  )
        44           C   tau(  44) = (   4.8458702  31.8445106   0.6493789  )
        45           O   tau(  45) = (   4.4091867   4.8088090   3.1839195  )
        46           O   tau(  46) = (   5.5288368   4.8199039   1.0136300  )
        47           O   tau(  47) = (   4.4529634  33.0979627   1.1022528  )
        48           O   tau(  48) = (   5.5690809  33.1183714   3.1914317  )
        49           H   tau(  49) = (   4.7955657   4.5946337   4.0993090  )
        50           H   tau(  50) = (   5.2576149   4.2469322   1.7862336  )
        51           H   tau(  51) = (   4.7282410  33.6739957   0.3326739  )
        52           H   tau(  52) = (   5.1724668  33.3280687   2.2781576  )

     number of k points=    26  Marzari-Vanderbilt smearing, width (Ry)=  0.0100
                       cart. coord. in units 2pi/alat
        k(    1) = (   0.0000000   0.0000000   0.0000000), wk =   0.0400000
        k(    2) = (   0.0000000   0.0000000   0.0046948), wk =   0.0800000
        k(    3) = (   0.0000000   0.0000000   0.0093897), wk =   0.0800000
        k(    4) = (   0.0000000   0.0000000   0.0140845), wk =   0.0800000
        k(    5) = (   0.0000000   0.0000000   0.0187793), wk =   0.0800000
        k(    6) = (   0.0000000   0.0000000   0.0234742), wk =   0.0800000
        k(    7) = (   0.0000000   0.0000000   0.0281690), wk =   0.0800000
        k(    8) = (   0.0000000   0.0000000   0.0328638), wk =   0.0800000
        k(    9) = (   0.0000000   0.0000000   0.0375587), wk =   0.0800000
        k(   10) = (   0.0000000   0.0000000   0.0422535), wk =   0.0800000
        k(   11) = (   0.0000000   0.0000000   0.0469484), wk =   0.0800000
        k(   12) = (   0.0000000   0.0000000   0.0516432), wk =   0.0800000
        k(   13) = (   0.0000000   0.0000000   0.0563380), wk =   0.0800000
        k(   14) = (   0.0000000   0.0000000   0.0610329), wk =   0.0800000
        k(   15) = (   0.0000000   0.0000000   0.0657277), wk =   0.0800000
        k(   16) = (   0.0000000   0.0000000   0.0704225), wk =   0.0800000
        k(   17) = (   0.0000000   0.0000000   0.0751174), wk =   0.0800000
        k(   18) = (   0.0000000   0.0000000   0.0798122), wk =   0.0800000
        k(   19) = (   0.0000000   0.0000000   0.0845070), wk =   0.0800000
        k(   20) = (   0.0000000   0.0000000   0.0892019), wk =   0.0800000
        k(   21) = (   0.0000000   0.0000000   0.0938967), wk =   0.0800000
        k(   22) = (   0.0000000   0.0000000   0.0985915), wk =   0.0800000
        k(   23) = (   0.0000000   0.0000000   0.1032864), wk =   0.0800000
        k(   24) = (   0.0000000   0.0000000   0.1079812), wk =   0.0800000
        k(   25) = (   0.0000000   0.0000000   0.1126761), wk =   0.0800000
        k(   26) = (   0.0000000   0.0000000  -0.1173709), wk =   0.0400000

     Dense  grid:  1935669 G-vectors     FFT dimensions: ( 135, 500,  60)

     Smooth grid:   372433 G-vectors     FFT dimensions: (  80, 300,  36)

     Estimated max dynamical RAM per process >     534.62 MB

     Estimated total dynamical RAM >       8.35 GB

     Check: negative/imaginary core charge=   -0.000005    0.000000

     The potential is recalculated from file :
     /home/zfwang/scratch/GNRDATASET/AGNR/AGNR_OH_22/AGNR_OH_22.save/charge-density.dat


     negative rho (up, down):  9.282E-04 0.000E+00
     Starting wfcs are  196 randomized atomic wfcs +  304 random wfcs

     Band Structure Calculation
     Davidson diagonalization with overlap

     ethr =  4.90E-09,  avg # of iterations = 18.8

     total cpu time spent up to now is     2849.3 secs

     End of band structure calculation

          k = 0.0000 0.0000 0.0000 ( 46439 PWs)   bands (ev):

   -25.5332 -25.5300 -23.2525 -23.2436 -20.4820 -20.4258 -20.2743 -20.0451
   -19.7439 -19.3705 -18.9311 -18.4187 -17.8507 -17.2334 -16.5841 -15.9388
   -15.3788 -15.2309 -15.2136 -15.0775 -14.9800 -14.8670 -14.6839 -14.5556
   -14.3433 -14.2401 -14.1344 -14.1118 -13.9588 -13.8772 -13.8261 -13.5420
   -13.5373 -13.5091 -13.1028 -12.7379 -12.5005 -12.2012 -11.8446 -11.7875
   -11.6388 -11.2714 -11.2367 -11.1402 -10.7608 -10.7044 -10.4643 -10.2376
   -10.0501  -9.7774  -9.6938  -9.3660  -9.1559  -9.1440  -8.8404  -8.7794
    -8.7022  -8.5832  -8.5076  -8.4221  -8.3049  -8.1095  -8.0713  -8.0698
    -7.8345  -7.7452  -7.6288  -7.5173  -7.5096  -7.3521  -7.1643  -6.9093
    -6.8549  -6.6618  -6.3880  -6.3549  -6.0105  -5.9243  -5.8046  -5.5386
    -5.4691  -5.2121  -5.1202  -5.0718  -4.7448  -4.5921  -4.4794  -4.3710
    -4.1847  -4.1058  -3.7850  -3.2614  -3.1626  -3.0666  -2.9634  -2.6750
    -2.3536  -2.3063  -1.8649  -1.6744  -1.3544  -1.0645  -0.7525  -0.5417
    -0.1616  -0.0961   0.1226   0.3473   0.5213   0.6151   0.6404   0.7101
     1.2139   1.3458   1.4847   2.0420   2.1623   2.1674   2.2523   2.6176
     2.6826   2.8562   2.9752   3.0074   3.2442   3.2995   3.4035   3.5491
     3.6734   3.8084   3.8320   3.8787   4.2188   4.2676   4.2945   4.3546
     4.4600   4.6351   4.7681   4.7744   4.9906   5.0019   5.0655   5.1872
     5.3612   5.4779   5.5064   5.7549   5.7568   5.8036   5.9289   6.0373
     6.4770   6.4931   6.5111   6.6217   6.7429   6.7921   6.8331   6.8993
     6.9514   7.0070   7.0389   7.0651   7.1524   7.3328   7.3474   7.4248
     7.4928   7.4942   7.5296   7.6521   7.7059   7.7426   7.8298   7.8805
     7.9828   8.1059   8.1643   8.1774   8.2139   8.2796   8.3136   8.3152
     8.4518   8.4762   8.5658   8.8542   8.9445   8.9531   8.9796   9.0973
     9.1049   9.1518   9.2392   9.3307   9.3416   9.5553   9.5688   9.5858
     9.6003   9.6241   9.6967   9.7168   9.7316   9.7405   9.8113   9.8454
     9.8858   9.9480   9.9673   9.9770  10.0149  10.0207  10.0231  10.0313
    10.1023  10.1113  10.1614  10.2030  10.2259  10.3264  10.3583  10.3891
    10.3916  10.4226  10.4444  10.4484  10.4635  10.4878  10.5049  10.5082
    10.6152  10.6774  10.7093  10.7208  10.7547  10.7697  10.7772  10.9178
    10.9277  10.9615  11.0020  11.0973  11.1380  11.1488  11.2225  11.2374
    11.2587  11.2774  11.3128  11.3456  11.3641  11.4081  11.4568  11.4732
    11.4770  11.5207  11.5371  11.5441  11.5945  11.6287  11.6786  11.7019
    11.7068  11.7148  11.7358  11.7442  11.7655  11.7827  11.8144  11.8855
    11.8954  11.9178  11.9653  11.9929  11.9952  12.0350  12.0413  12.1050
    12.1087  12.1646  12.1715  12.2031  12.2326  12.2822  12.3351  12.3468
    12.3878  12.3927  12.4197  12.4281  12.4555  12.4855  12.5521  12.5711
    12.6295  12.6329  12.7192  12.7433  12.7755  12.8500  12.8565  12.9129
    12.9334  12.9711  13.0238  13.0384  13.1227  13.1427  13.2221  13.2340
    13.2794  13.2967  13.3104  13.4594  13.4972  13.5277  13.6618  13.7069
    13.7438  13.7793  13.7796  13.8143  13.9199  13.9928  14.0169  14.0224
    14.0266  14.0700  14.1798  14.2319  14.2521  14.2696  14.3072  14.3657
    14.3684  14.4109  14.4984  14.5066  14.5475  14.5516  14.5822  14.7541
    14.7912  14.8315  14.8965  14.8993  15.0462  15.0545  15.0637  15.1165
    15.1530  15.1814  15.2183  15.2345  15.3053  15.3343  15.3647  15.4174
    15.4608  15.6134  15.6804  15.7171  15.7766  15.7908  15.8001  15.8010
    15.8487  15.9205  15.9599  16.0126  16.0287  16.0983  16.1135  16.1290
    16.2449  16.2462  16.3430  16.3572  16.3696  16.4098  16.4540  16.4597
    16.4622  16.5687  16.5768  16.6279  16.6467  16.6804  16.7791  16.8259
    16.8304  16.8423  16.9112  16.9365  16.9675  16.9883  17.0043  17.0251
    17.0490  17.0984  17.1304  17.2380  17.2782  17.3407  17.3424  17.4025
    17.4695  17.5148  17.5364  17.5591  17.6297  17.6672  17.6948  17.7329
    17.7885  17.8665  17.8849  17.9253  17.9659  18.0350  18.0473  18.0571
    18.0684  18.0899  18.1784  18.2321  18.2586  18.2778  18.3122  18.3749
    18.3971  18.4371  18.4660  18.5017  18.5204  18.5415  18.5466  18.5543
    18.5700  18.5797  18.6184  18.6406  18.6604  18.6658  18.6924  18.7081
    18.7119  18.7523  18.7696  18.8074  18.9000  18.9974  19.0003  19.0285
    19.0857  19.1594  19.1624  19.3100  19.3119  19.3283  19.3850  19.4083
    19.4447  19.4742  19.5316  19.5441  19.5685  19.5792  19.6160  19.6816
    19.6925  19.6963  19.7757  19.8302  19.9110  19.9376  19.9593  20.1017
    20.2583  20.2696  20.3040  20.3509  20.3892  20.4056  20.4238  20.4860
    20.5796  20.6110  20.6714  20.6908  20.7520  20.7997  20.8336  20.8635
    20.8942  20.9358  21.0222  21.1013

          k = 0.0000 0.0000 0.0047 ( 46445 PWs)   bands (ev):

   -25.5317 -25.5286 -23.2552 -23.2463 -20.4796 -20.4235 -20.2720 -20.0427
   -19.7416 -19.3682 -18.9288 -18.4165 -17.8485 -17.2312 -16.5820 -15.9376
   -15.3911 -15.2818 -15.2423 -15.1312 -14.9783 -14.8953 -14.7008 -14.5531
   -14.3729 -14.2094 -14.0994 -14.0709 -14.0080 -13.8342 -13.8063 -13.5767
   -13.4786 -13.4460 -13.1117 -12.7460 -12.5046 -12.2069 -11.8450 -11.7823
   -11.6365 -11.2693 -11.2226 -11.1427 -10.7501 -10.7018 -10.4698 -10.2264
   -10.0500  -9.7825  -9.6856  -9.3633  -9.1696  -9.1291  -8.8409  -8.7777
    -8.6959  -8.5809  -8.5053  -8.4229  -8.3036  -8.1076  -8.0809  -8.0561
    -7.8336  -7.7421  -7.6249  -7.5299  -7.5031  -7.3490  -7.1596  -6.9081
    -6.8553  -6.6653  -6.3826  -6.3519  -6.0228  -5.9185  -5.8014  -5.5397
    -5.4708  -5.2138  -5.1308  -5.0629  -4.7539  -4.5937  -4.4774  -4.3792
    -4.1887  -4.1145  -3.7837  -3.2773  -3.1788  -3.0666  -2.9800  -2.6929
    -2.3563  -2.3255  -1.8884  -1.6838  -1.3916  -1.1249  -0.6933  -0.5045
    -0.1377  -0.0894   0.1436   0.3675   0.5412   0.6145   0.6601   0.7297
     1.2174   1.3442   1.4867   2.0452   2.1583   2.1706   2.2555   2.6207
     2.6857   2.8593   2.9752   3.0059   3.2471   3.3024   3.4061   3.5521
     3.6767   3.8058   3.8351   3.8819   4.2198   4.2695   4.2975   4.3576
     4.4629   4.6333   4.7712   4.7765   4.9934   5.0050   5.0685   5.1896
     5.3611   5.4797   5.5051   5.7554   5.7593   5.8078   5.9313   6.0387
     6.4736   6.4925   6.5130   6.6224   6.7424   6.7960   6.8348   6.8995
     6.9475   7.0028   7.0396   7.0662   7.1508   7.3350   7.3565   7.4235
     7.4911   7.4959   7.5252   7.6557   7.7045   7.7327   7.8271   7.8769
     7.9812   8.1042   8.1661   8.1707   8.2128   8.2807   8.3102   8.3161
     8.4531   8.4576   8.5585   8.8563   8.9191   8.9448   8.9774   9.0841
     9.1109   9.1490   9.2464   9.3266   9.3434   9.5462   9.5502   9.5681
     9.5744   9.6287   9.6915   9.7170   9.7233   9.7387   9.7639   9.7833
     9.8049   9.8363   9.8788   9.9426   9.9683   9.9853  10.0306  10.0377
    10.0460  10.0799  10.1772  10.1898  10.3331  10.3501  10.3695  10.3953
    10.4039  10.4129  10.4276  10.4402  10.4789  10.4870  10.5594  10.5918
    10.6186  10.6509  10.6655  10.6911  10.7428  10.7676  10.7972  10.9179
    10.9496  11.0006  11.0466  11.0755  11.0876  11.1374  11.1432  11.1795
    11.2174  11.2331  11.2622  11.3122  11.3611  11.4431  11.4602  11.4862
    11.5161  11.5171  11.5392  11.5835  11.5985  11.6311  11.6682  11.6865
    11.7198  11.7356  11.7447  11.7668  11.8361  11.8695  11.8777  11.8813
    11.9139  11.9476  11.9710  11.9950  12.0430  12.0573  12.0706  12.1034
    12.1224  12.1556  12.1813  12.2170  12.2351  12.2864  12.3027  12.3400
    12.3467  12.3602  12.3734  12.4005  12.4095  12.4535  12.4994  12.5434
    12.5762  12.6217  12.7587  12.7731  12.8067  12.8177  12.8877  12.9140
    12.9417  13.0149  13.0454  13.0617  13.0847  13.1642  13.2148  13.2630
    13.3374  13.3473  13.4063  13.4196  13.4953  13.5221  13.6745  13.6886
    13.7373  13.7583  13.8006  13.8903  13.9065  13.9597  13.9738  13.9797
    14.0658  14.0699  14.1824  14.2348  14.2428  14.2888  14.3019  14.3819
    14.4126  14.4358  14.5079  14.5484  14.5580  14.5753  14.6476  14.7549
    14.7685  14.8088  14.8858  14.9332  15.0328  15.0579  15.0677  15.1076
    15.1224  15.1574  15.1907  15.2146  15.2464  15.3299  15.3743  15.4608
    15.5273  15.5338  15.6498  15.6782  15.7473  15.7804  15.8178  15.8434
    15.8655  15.8730  16.0069  16.0361  16.0528  16.1080  16.1185  16.2287
    16.2665  16.2764  16.3261  16.3441  16.3814  16.3992  16.4250  16.4669
    16.4725  16.4881  16.5147  16.5741  16.6484  16.7383  16.7665  16.8444
    16.8504  16.9041  16.9169  16.9626  17.0007  17.0074  17.0339  17.0479
    17.0729  17.1266  17.1396  17.2390  17.2899  17.2963  17.3520  17.4098
    17.4318  17.4963  17.5325  17.6390  17.6652  17.6729  17.7051  17.7283
    17.8064  17.8290  17.8526  17.8672  17.9193  18.0124  18.0389  18.0525
    18.0909  18.1113  18.1718  18.2107  18.2487  18.2652  18.3264  18.3452
    18.3838  18.3943  18.4087  18.4597  18.4835  18.5078  18.5335  18.5514
    18.5660  18.5805  18.6073  18.6273  18.6543  18.6954  18.7102  18.7116
    18.7483  18.7566  18.7999  18.8237  18.9699  19.0284  19.0429  19.0868
    19.1251  19.1858  19.2077  19.2944  19.3097  19.3372  19.3893  19.4038
    19.4471  19.4709  19.5017  19.5347  19.5525  19.5733  19.6014  19.6288
    19.6996  19.7286  19.8088  19.8338  19.8779  19.9569  19.9998  20.1059
    20.2523  20.2900  20.3171  20.3643  20.4043  20.4483  20.4598  20.4913
    20.5270  20.6206  20.6381  20.7030  20.7713  20.8018  20.8328  20.9179
    20.9379  20.9462  21.0728  21.1219

          k = 0.0000 0.0000 0.0094 ( 46447 PWs)   bands (ev):

   -25.5273 -25.5242 -23.2630 -23.2542 -20.4725 -20.4164 -20.2649 -20.0357
   -19.7346 -19.3613 -18.9219 -18.4096 -17.8417 -17.2246 -16.5759 -15.9342
   -15.4472 -15.3998 -15.3012 -15.2478 -15.0484 -14.9371 -14.7492 -14.5729
   -14.4119 -14.1522 -14.1067 -13.9913 -13.9703 -13.7952 -13.7158 -13.5434
   -13.3683 -13.3453 -13.1361 -12.7701 -12.5155 -12.2231 -11.8519 -11.7643
   -11.6264 -11.2557 -11.2143 -11.1223 -10.7347 -10.6825 -10.4815 -10.1975
   -10.0487  -9.7949  -9.6635  -9.3574  -9.1857  -9.1079  -8.8410  -8.7719
    -8.6816  -8.5716  -8.4983  -8.4265  -8.2991  -8.1077  -8.0835  -8.0347
    -7.8308  -7.7331  -7.6161  -7.5564  -7.4908  -7.3397  -7.1452  -6.9096
    -6.8571  -6.6690  -6.3693  -6.3444  -6.0517  -5.9075  -5.7921  -5.5422
    -5.4777  -5.2215  -5.1463  -5.0493  -4.7798  -4.5997  -4.4720  -4.4035
    -4.2010  -4.1405  -3.7799  -3.3242  -3.2263  -3.0674  -3.0279  -2.7449
    -2.3858  -2.3598  -1.9554  -1.7118  -1.4871  -1.2473  -0.5746  -0.4086
    -0.0707  -0.0687   0.2045   0.4266   0.5995   0.6129   0.7180   0.7874
     1.2277   1.3385   1.4933   2.0549   2.1462   2.1802   2.2651   2.6300
     2.6948   2.8687   2.9697   3.0067   3.2559   3.3112   3.4139   3.5611
     3.6863   3.7975   3.8444   3.8914   4.2231   4.2751   4.3067   4.3665
     4.4715   4.6280   4.7805   4.7833   5.0018   5.0144   5.0774   5.1969
     5.3595   5.4849   5.5025   5.7573   5.7666   5.8199   5.9383   6.0431
     6.4630   6.4905   6.5195   6.6247   6.7414   6.8063   6.8385   6.8989
     6.9370   6.9909   7.0420   7.0701   7.1454   7.3425   7.3817   7.4208
     7.4868   7.4977   7.5159   7.6637   7.6957   7.7083   7.8175   7.8694
     7.9747   8.0906   8.1535   8.1775   8.2108   8.2761   8.3026   8.3219
     8.4122   8.4564   8.5367   8.8219   8.8633   8.9361   8.9696   9.0608
     9.1203   9.1441   9.2600   9.2976   9.3537   9.4272   9.4515   9.5027
     9.5279   9.5785   9.5801   9.6432   9.6597   9.6797   9.7151   9.7348
     9.7495   9.7625   9.8200   9.8611   9.9050   9.9473   9.9799   9.9884
    10.0326  10.1019  10.1241  10.1912  10.2132  10.2803  10.2954  10.3380
    10.3435  10.3848  10.4344  10.4359  10.5069  10.5537  10.6135  10.6220
    10.6420  10.7034  10.7172  10.7243  10.7600  10.8016  10.8410  10.8561
    10.8899  10.9038  10.9728  10.9820  11.0468  11.1200  11.1354  11.1496
    11.1678  11.2550  11.3123  11.3459  11.3585  11.4096  11.4875  11.4926
    11.5280  11.5456  11.5573  11.5869  11.6280  11.6482  11.6534  11.6761
    11.7345  11.7558  11.7819  11.8151  11.8583  11.8815  11.9110  11.9789
    11.9994  12.0135  12.0335  12.0466  12.0811  12.0948  12.1211  12.1404
    12.1541  12.1704  12.1858  12.2211  12.2281  12.2516  12.2647  12.2896
    12.2935  12.3223  12.3559  12.3753  12.3931  12.4290  12.4659  12.5148
    12.5773  12.6404  12.6615  12.7467  12.7821  12.8038  12.8446  12.8933
    12.9492  13.0539  13.0800  13.1221  13.2079  13.2460  13.2788  13.3180
    13.3249  13.3741  13.4084  13.5066  13.6264  13.6515  13.6647  13.6860
    13.7112  13.7818  13.8051  13.8248  13.8704  13.8903  13.9260  14.0656
    14.0886  14.1576  14.1676  14.2000  14.2808  14.2890  14.3571  14.4149
    14.4473  14.5448  14.5560  14.5702  14.5953  14.6218  14.7052  14.7370
    14.7448  14.8413  14.8546  14.9688  14.9958  15.0038  15.0855  15.1109
    15.1152  15.1530  15.1667  15.2068  15.2271  15.2638  15.3477  15.4015
    15.4824  15.5712  15.6007  15.6544  15.7730  15.7913  15.8095  15.8345
    15.8820  15.9219  16.0185  16.0411  16.0887  16.1040  16.1575  16.2058
    16.2662  16.3059  16.3089  16.3593  16.3723  16.3930  16.4166  16.4585
    16.4956  16.5342  16.5403  16.6465  16.6580  16.8102  16.8225  16.8584
    16.8657  16.9029  16.9238  16.9501  17.0106  17.0176  17.0305  17.1193
    17.1486  17.1838  17.2085  17.2212  17.2724  17.3289  17.4360  17.4417
    17.4833  17.4987  17.5712  17.6028  17.6278  17.6489  17.6747  17.7127
    17.7510  17.7784  17.8357  17.8672  17.9051  17.9257  18.0034  18.0299
    18.0942  18.1178  18.1573  18.1774  18.2041  18.2489  18.3010  18.3039
    18.3239  18.3596  18.4149  18.4359  18.4569  18.4681  18.4729  18.4934
    18.5356  18.5526  18.5620  18.6214  18.6584  18.7165  18.7209  18.7356
    18.7539  18.8031  18.9317  18.9937  19.0125  19.0815  19.0963  19.1462
    19.1675  19.2445  19.2604  19.2814  19.2999  19.3413  19.3531  19.3954
    19.4638  19.4792  19.4807  19.5015  19.5302  19.5561  19.6013  19.7028
    19.7360  19.7561  19.8722  19.8879  19.9004  20.0222  20.0523  20.0953
    20.1705  20.2948  20.3049  20.3780  20.4240  20.4652  20.5287  20.5727
    20.6093  20.6530  20.6621  20.7447  20.7807  20.7847  20.8528  20.9288
    21.0120  21.0807  21.0964  21.1093

          k = 0.0000 0.0000 0.0141 ( 46447 PWs)   bands (ev):

   -25.5200 -25.5169 -23.2761 -23.2674 -20.4607 -20.4046 -20.2532 -20.0240
   -19.7230 -19.3497 -18.9104 -18.3983 -17.8305 -17.2137 -16.5658 -15.9300
   -15.5663 -15.5492 -15.4009 -15.3477 -15.1595 -15.0248 -14.7870 -14.6686
   -14.4089 -14.2473 -14.0418 -13.9235 -13.8246 -13.7192 -13.5727 -13.4439
   -13.2612 -13.2181 -13.1570 -12.8102 -12.5303 -12.2469 -11.8749 -11.7295
   -11.6041 -11.2532 -11.2165 -11.0497 -10.7278 -10.6569 -10.4755 -10.1653
   -10.0437  -9.8054  -9.6339  -9.3522  -9.1981  -9.0828  -8.8389  -8.7613
    -8.6674  -8.5493  -8.4858  -8.4355  -8.2898  -8.1140  -8.0730  -8.0047
    -7.8267  -7.7181  -7.6255  -7.5725  -7.4713  -7.3248  -7.1235  -6.9284
    -6.8526  -6.6621  -6.3529  -6.3368  -6.0863  -5.8980  -5.7779  -5.5452
    -5.4931  -5.2385  -5.1525  -5.0407  -4.8193  -4.6123  -4.4651  -4.4409
    -4.2223  -4.1834  -3.7735  -3.3993  -3.3025  -3.1101  -3.0629  -2.8273
    -2.4735  -2.3731  -2.0565  -1.7602  -1.6127  -1.3868  -0.4411  -0.2798
    -0.0377   0.0334   0.3004   0.5208   0.6102   0.6934   0.8115   0.8807
     1.2449   1.3277   1.5060   2.0710   2.1260   2.1961   2.2812   2.6455
     2.7102   2.8845   2.9511   3.0176   3.2708   3.3258   3.4266   3.5763
     3.7023   3.7830   3.8601   3.9073   4.2296   4.2835   4.3221   4.3814
     4.4857   4.6188   4.7951   4.7963   5.0157   5.0300   5.0922   5.2092
     5.3534   5.4936   5.5025   5.7601   5.7791   5.8389   5.9499   6.0513
     6.4447   6.4862   6.5313   6.6287   6.7402   6.8190   6.8383   6.8956
     6.9230   6.9778   7.0455   7.0779   7.1362   7.3553   7.4145   7.4246
     7.4820   7.4874   7.5176   7.6499   7.6749   7.6971   7.7964   7.8632
     7.9571   8.0647   8.1474   8.1782   8.2105   8.2408   8.3073   8.3342
     8.3728   8.4560   8.5021   8.6958   8.8332   8.9098   8.9461   9.0503
     9.1316   9.1391   9.1793   9.1827   9.2545   9.3160   9.3255   9.3529
     9.4070   9.4227   9.5552   9.5754   9.6006   9.6206   9.6755   9.7114
     9.7411   9.7715   9.7823   9.7888   9.8462   9.8780   9.9474   9.9857
    10.0060  10.0340  10.0549  10.1012  10.1451  10.1583  10.1781  10.2824
    10.3175  10.3293  10.3723  10.4443  10.4856  10.4895  10.5104  10.5707
    10.5885  10.6279  10.6407  10.6454  10.6741  10.6835  10.8675  10.8983
    10.9324  10.9378  11.0234  11.0527  11.0681  11.0860  11.1345  11.2260
    11.2587  11.3076  11.3257  11.3504  11.3825  11.4071  11.4478  11.4980
    11.5287  11.5655  11.5696  11.6121  11.6373  11.6695  11.7075  11.7149
    11.7428  11.7481  11.7721  11.8297  11.8633  11.8767  11.8945  11.9476
    11.9727  12.0156  12.0374  12.0427  12.0735  12.1290  12.1386  12.1697
    12.1863  12.2060  12.2292  12.2672  12.2941  12.3029  12.3273  12.3360
    12.3696  12.3740  12.3886  12.4018  12.4098  12.4111  12.4719  12.5036
    12.5496  12.6164  12.6405  12.6984  12.7510  12.8009  12.8410  12.9113
    12.9725  13.0331  13.0648  13.1180  13.1935  13.2444  13.2887  13.3422
    13.4574  13.4980  13.5956  13.6075  13.6339  13.6427  13.6884  13.7058
    13.7470  13.7689  13.8198  13.8563  13.9012  13.9261  13.9740  14.1085
    14.1296  14.1416  14.1970  14.2626  14.2744  14.3417  14.3633  14.4637
    14.5140  14.5454  14.5681  14.6024  14.6331  14.6972  14.7337  14.7643
    14.7728  14.8023  14.9103  14.9199  14.9452  14.9824  15.0710  15.0835
    15.1025  15.1467  15.2067  15.2382  15.2795  15.3075  15.3106  15.4249
    15.4650  15.5081  15.6118  15.6567  15.7358  15.7440  15.7866  15.8185
    15.9025  15.9431  15.9625  16.0001  16.0689  16.1282  16.1447  16.1626
    16.2025  16.2588  16.3442  16.3976  16.4307  16.4635  16.5399  16.5458
    16.5690  16.6206  16.6671  16.7386  16.7458  16.7711  16.8394  16.8603
    16.8658  16.9018  16.9581  16.9895  17.0327  17.0459  17.0577  17.1164
    17.1713  17.2093  17.2719  17.3172  17.3594  17.3670  17.4033  17.4242
    17.5025  17.5046  17.5356  17.5591  17.5979  17.6140  17.6202  17.7142
    17.7436  17.7521  17.7726  17.8057  17.8991  17.9145  17.9869  18.0098
    18.0581  18.0792  18.1396  18.1578  18.1711  18.1853  18.2590  18.2782
    18.3206  18.3308  18.3800  18.3933  18.4128  18.4700  18.5137  18.5400
    18.5514  18.5654  18.5921  18.6454  18.6794  18.7247  18.7314  18.7424
    18.7648  18.8522  18.9663  18.9808  19.0277  19.0813  19.1240  19.1476
    19.1574  19.1791  19.2265  19.2522  19.3146  19.3817  19.4149  19.4202
    19.4853  19.4941  19.5280  19.5778  19.5975  19.6358  19.6986  19.7529
    19.7863  19.8817  19.9516  19.9892  19.9988  20.0120  20.0482  20.1074
    20.1913  20.2879  20.3143  20.3731  20.4239  20.5029  20.6098  20.6397
    20.6628  20.7250  20.7433  20.7567  20.7711  20.8482  20.8639  20.9383
    21.0635  21.1113  21.1372  21.1619

          k = 0.0000 0.0000 0.0188 ( 46467 PWs)   bands (ev):

   -25.5099 -25.5068 -23.2941 -23.2856 -20.4442 -20.3881 -20.2367 -20.0076
   -19.7067 -19.3335 -18.8943 -18.3823 -17.8147 -17.1984 -16.5518 -15.9304
   -15.7199 -15.7101 -15.5605 -15.4396 -15.2382 -15.1583 -14.8366 -14.7776
   -14.4345 -14.3503 -13.9679 -13.8976 -13.6377 -13.5653 -13.4078 -13.3211
   -13.2566 -13.0815 -13.0653 -12.8656 -12.5463 -12.2736 -11.9139 -11.6780
   -11.5699 -11.3093 -11.1563 -10.9524 -10.7202 -10.6666 -10.4173 -10.1469
   -10.0386  -9.7963  -9.6059  -9.3505  -9.2042  -9.0519  -8.8348  -8.7452
    -8.6545  -8.5141  -8.4676  -8.4507  -8.2741  -8.1160  -8.0555  -7.9671
    -7.8259  -7.6980  -7.6675  -7.5563  -7.4435  -7.3044  -7.1062  -6.9608
    -6.8367  -6.6452  -6.3453  -6.3270  -6.1175  -5.8921  -5.7603  -5.5485
    -5.5198  -5.2608  -5.1511  -5.0391  -4.8690  -4.6340  -4.4994  -4.4479
    -4.2542  -4.2415  -3.7648  -3.4989  -3.4032  -3.2120  -3.0638  -2.9347
    -2.5877  -2.3918  -2.1808  -1.8388  -1.7399  -1.5324  -0.3040  -0.1353
     0.0054   0.1625   0.4248   0.6070   0.6450   0.8179   0.9363   1.0057
     1.2690   1.3108   1.5261   2.0914   2.0999   2.2185   2.3039   2.6669
     2.7319   2.9065   2.9210   3.0373   3.2917   3.3463   3.4432   3.5974
     3.7247   3.7624   3.8822   3.9295   4.2403   4.2929   4.3438   4.4021
     4.5057   4.6066   4.8138   4.8177   5.0351   5.0517   5.1128   5.2263
     5.3388   5.5052   5.5100   5.7630   5.7974   5.8640   5.9658   6.0646
     6.4193   6.4782   6.5474   6.6345   6.7366   6.8115   6.8425   6.8761
     6.9206   6.9744   7.0483   7.0900   7.1259   7.3717   7.4191   7.4461
     7.4769   7.4965   7.5278   7.5948   7.6583   7.7023   7.7536   7.8595
     7.9299   8.0530   8.0894   8.1750   8.1962   8.2334   8.3198   8.3471
     8.3629   8.4241   8.4725   8.5550   8.7630   8.8079   8.8962   8.9397
     8.9499   9.0669   9.1181   9.1413   9.1525   9.1738   9.2072   9.2518
     9.2913   9.4092   9.4537   9.4611   9.5780   9.6034   9.6210   9.6315
     9.6730   9.7271   9.8006   9.8091   9.8280   9.8331   9.8684   9.8948
     9.9311   9.9613   9.9847  10.0239  10.0495  10.1574  10.1748  10.1806
    10.2506  10.2556  10.2772  10.2976  10.3191  10.3579  10.3907  10.4042
    10.4712  10.5779  10.5908  10.6054  10.6364  10.6454  10.7426  10.8391
    10.8758  10.9403  10.9803  11.0748  11.1746  11.1988  11.2376  11.2579
    11.2984  11.3260  11.3448  11.3748  11.4249  11.4425  11.4596  11.5161
    11.5189  11.5717  11.5793  11.5987  11.6263  11.6437  11.6776  11.7109
    11.7419  11.7758  11.8147  11.8492  11.8783  11.9294  11.9342  11.9641
    11.9912  11.9986  12.0213  12.0530  12.0664  12.1219  12.1327  12.1779
    12.1973  12.2323  12.2399  12.2626  12.3197  12.3422  12.3564  12.3661
    12.3984  12.4017  12.4360  12.4783  12.4930  12.5111  12.5431  12.5710
    12.6179  12.6565  12.6685  12.7057  12.7760  12.7898  12.8417  12.8758
    12.9601  13.0616  13.1071  13.1582  13.1904  13.2218  13.2475  13.3830
    13.4925  13.5281  13.5599  13.5891  13.6171  13.7101  13.7389  13.7591
    13.8173  13.8833  13.9154  13.9255  13.9699  14.0569  14.0845  14.1258
    14.1681  14.1930  14.2191  14.2469  14.2875  14.3953  14.4206  14.4536
    14.5149  14.5458  14.5784  14.6194  14.6772  14.7480  14.7527  14.8053
    14.8307  14.8507  14.8707  14.8939  14.9580  14.9746  15.0699  15.0868
    15.0928  15.1286  15.2360  15.2868  15.3361  15.3725  15.4208  15.4803
    15.5121  15.5470  15.5903  15.6372  15.6426  15.6638  15.6688  15.7953
    15.8869  15.9348  15.9660  16.0012  16.0440  16.0992  16.1203  16.1876
    16.2198  16.3035  16.3628  16.4480  16.4894  16.5483  16.5803  16.6388
    16.6602  16.6927  16.7282  16.7670  16.8041  16.8377  16.8491  16.8734
    16.9012  16.9929  17.0149  17.0427  17.0697  17.0821  17.0905  17.1709
    17.1902  17.2276  17.2836  17.2925  17.3183  17.3530  17.3846  17.4527
    17.4777  17.4895  17.5018  17.5380  17.5533  17.5771  17.6439  17.6557
    17.6697  17.7267  17.7493  17.7747  17.8319  17.8954  17.9640  18.0266
    18.0698  18.0953  18.1502  18.1632  18.1810  18.1911  18.2039  18.2530
    18.3125  18.3172  18.3790  18.4162  18.4825  18.5031  18.5152  18.5454
    18.5662  18.6173  18.6317  18.6437  18.7086  18.7390  18.7747  18.7929
    18.8244  18.8425  18.8713  18.8819  18.9861  19.0053  19.0531  19.0955
    19.1254  19.1969  19.2159  19.2888  19.3490  19.3912  19.4671  19.4987
    19.5379  19.5438  19.6308  19.7039  19.7276  19.7450  19.7985  19.8217
    19.8677  19.9214  19.9770  20.0310  20.0838  20.1349  20.1639  20.2395
    20.2618  20.3106  20.3268  20.4042  20.4753  20.5018  20.5519  20.6393
    20.6561  20.7541  20.8182  20.8360  20.8705  20.8800  20.9117  20.9868
    21.0597  21.1386  21.1584  21.2105

          k = 0.0000 0.0000 0.0235 ( 46469 PWs)   bands (ev):

   -25.4968 -25.4938 -23.3170 -23.3086 -20.4229 -20.3669 -20.2156 -19.9866
   -19.6858 -19.3127 -18.8737 -18.3619 -17.7946 -17.1787 -16.5343 -15.9660
   -15.8867 -15.8538 -15.7172 -15.5821 -15.3138 -15.2731 -14.9537 -14.8404
   -14.5145 -14.4281 -13.9229 -13.8391 -13.4339 -13.3864 -13.3240 -13.2195
   -13.1808 -12.9635 -12.9206 -12.9008 -12.5630 -12.2983 -11.9593 -11.6178
   -11.5271 -11.3711 -11.0759 -10.8490 -10.7426 -10.6575 -10.3238 -10.1492
   -10.0395  -9.7591  -9.5827  -9.3544  -9.2021  -9.0128  -8.8312  -8.7231
    -8.6377  -8.4972  -8.4442  -8.4429  -8.2509  -8.1087  -8.0341  -7.9243
    -7.8421  -7.7039  -7.6693  -7.5307  -7.4078  -7.2796  -7.1226  -6.9707
    -6.8133  -6.6270  -6.3616  -6.3060  -6.1382  -5.8911  -5.7413  -5.5605
    -5.5488  -5.2837  -5.1508  -5.0429  -4.9248  -4.6671  -4.5647  -4.4330
    -4.3192  -4.2916  -3.7539  -3.6189  -3.5240  -3.3349  -3.0689  -3.0571
    -2.7208  -2.4239  -2.3137  -1.9653  -1.8406  -1.6805  -0.1665   0.0104
     0.0643   0.3095   0.5713   0.6041   0.7936   0.9684   1.0879   1.1580
     1.2874   1.3004   1.5540   2.0610   2.1234   2.2472   2.3331   2.6938
     2.7599   2.8819   2.9348   3.0640   3.3189   3.3726   3.4620   3.6246
     3.7368   3.7536   3.9106   3.9581   4.2564   4.3001   4.3718   4.4286
     4.5311   4.5943   4.8390   4.8454   5.0596   5.0796   5.1387   5.2483
     5.3145   5.5208   5.5263   5.7653   5.8213   5.8945   5.9861   6.0841
     6.3876   6.4642   6.5657   6.6415   6.7214   6.7850   6.8264   6.8561
     6.9414   6.9811   7.0498   7.1050   7.1229   7.3889   7.4225   7.4351
     7.4704   7.5246   7.5448   7.5631   7.6217   7.6856   7.7176   7.8515
     7.9078   7.9856   8.0560   8.1716   8.1935   8.2314   8.3082   8.3438
     8.3555   8.3764   8.4456   8.4563   8.6118   8.6486   8.6791   8.7278
     8.8574   8.9333   9.0222   9.0589   9.0666   9.1327   9.1568   9.2001
     9.2245   9.2974   9.3198   9.3897   9.4986   9.5250   9.5586   9.6009
     9.6487   9.6495   9.7468   9.7801   9.8139   9.8373   9.8418   9.8538
     9.8710   9.9057   9.9283   9.9326  10.0045  10.0412  10.0624  10.0689
    10.0825  10.1279  10.1443  10.1697  10.1751  10.2353  10.2822  10.3193
    10.4772  10.4981  10.5602  10.5909  10.6214  10.6468  10.6663  10.7319
    10.7924  10.8713  10.8945  10.9678  11.1152  11.1472  11.1619  11.2225
    11.2332  11.3047  11.3317  11.3805  11.3953  11.4526  11.4926  11.5700
    11.6006  11.6154  11.6293  11.6610  11.6677  11.6920  11.7168  11.7362
    11.7867  11.8092  11.8211  11.8658  11.8919  11.9480  11.9626  11.9940
    12.0149  12.0289  12.0405  12.0709  12.0971  12.1216  12.1531  12.1704
    12.2229  12.2525  12.2714  12.3204  12.3407  12.3698  12.3881  12.4137
    12.4300  12.4695  12.4830  12.5002  12.5341  12.5465  12.5947  12.6143
    12.6539  12.6925  12.7106  12.7947  12.8049  12.8167  12.8717  12.9235
    12.9999  13.0549  13.1116  13.1472  13.2366  13.2641  13.3119  13.4285
    13.4922  13.5287  13.5462  13.5877  13.5994  13.7044  13.7204  13.8016
    13.8496  13.9291  13.9783  14.0361  14.0629  14.1046  14.1635  14.1930
    14.2076  14.2254  14.3093  14.3376  14.3652  14.4329  14.4478  14.4860
    14.5294  14.5704  14.5999  14.6287  14.6719  14.7645  14.7985  14.8010
    14.8469  14.8789  14.8949  14.9764  15.0252  15.0791  15.1037  15.1161
    15.1425  15.1727  15.1991  15.2598  15.3669  15.3949  15.4200  15.4330
    15.4932  15.5695  15.5914  15.6573  15.6875  15.7304  15.7758  15.7829
    15.8811  15.9323  15.9385  16.0350  16.0464  16.0552  16.0973  16.2476
    16.3059  16.3539  16.3905  16.4367  16.5124  16.5233  16.6489  16.6882
    16.7170  16.7253  16.7725  16.7902  16.8003  16.8685  16.9058  16.9368
    16.9751  17.0086  17.0497  17.0866  17.1117  17.1286  17.1345  17.1663
    17.2293  17.2566  17.2823  17.2970  17.3078  17.3247  17.3790  17.3865
    17.4205  17.4693  17.4826  17.5162  17.5474  17.5819  17.5865  17.6345
    17.6391  17.7210  17.7758  17.8119  17.8744  17.9131  17.9179  17.9408
    18.0142  18.0843  18.1050  18.1307  18.1896  18.2431  18.2997  18.3225
    18.3593  18.3748  18.4219  18.4696  18.4933  18.5269  18.5395  18.5644
    18.5812  18.5929  18.6196  18.6350  18.7396  18.7617  18.7670  18.7964
    18.8104  18.8347  18.8605  18.9056  18.9417  18.9692  19.0370  19.0561
    19.1721  19.1948  19.2704  19.3217  19.4020  19.4554  19.5045  19.5130
    19.5335  19.6270  19.6823  19.7708  19.8057  19.8466  19.8948  19.9090
    19.9606  20.0204  20.0784  20.1524  20.2132  20.2453  20.2526  20.2941
    20.3077  20.3291  20.3961  20.4266  20.4949  20.5943  20.6214  20.6690
    20.6802  20.7434  20.7863  20.8823  20.9297  20.9473  20.9990  21.0512
    21.0717  21.1550  21.1701  21.2042

          k = 0.0000 0.0000 0.0282 ( 46502 PWs)   bands (ev):

   -25.4810 -25.4780 -23.3445 -23.3364 -20.3969 -20.3410 -20.1898 -19.9609
   -19.6602 -19.2873 -18.8485 -18.3369 -17.7700 -17.1549 -16.5142 -16.1018
   -16.0589 -15.9626 -15.8156 -15.7443 -15.4693 -15.3192 -15.0668 -14.9207
   -14.5931 -14.5169 -13.8807 -13.7768 -13.3751 -13.2177 -13.2115 -13.0512
   -13.0482 -13.0007 -12.7902 -12.7360 -12.5785 -12.3175 -11.9989 -11.5808
   -11.4775 -11.4013 -11.0067 -10.7726 -10.7554 -10.6014 -10.2330 -10.1561
   -10.0381  -9.7167  -9.5502  -9.3677  -9.1896  -8.9654  -8.8318  -8.6939
    -8.6136  -8.5167  -8.4136  -8.3927  -8.2197  -8.0945  -8.0119  -7.8884
    -7.8739  -7.7060  -7.6378  -7.5012  -7.3662  -7.2554  -7.1757  -6.9455
    -6.7855  -6.6183  -6.3892  -6.2832  -6.1469  -5.8965  -5.7251  -5.6009
    -5.5552  -5.3071  -5.1634  -5.0506  -4.9778  -4.7136  -4.6416  -4.4157
    -4.4063  -4.3415  -3.7553  -3.7412  -3.6603  -3.4736  -3.2048  -3.0653
    -2.8664  -2.5132  -2.4057  -2.1196  -1.9283  -1.8293  -0.0299   0.1019
     0.1883   0.4678   0.6023   0.7350   0.9617   1.1398   1.2588   1.2624
     1.3337   1.3380   1.5897   2.0179   2.1589   2.2823   2.3689   2.7239
     2.7942   2.8371   2.9695   3.0971   3.3523   3.4047   3.4783   3.6574
     3.7109   3.7888   3.9452   3.9930   4.2784   4.2997   4.4062   4.4609
     4.5618   4.5873   4.8708   4.8791   5.0886   5.1134   5.1687   5.2731
     5.2849   5.5388   5.5516   5.7672   5.8506   5.9299   6.0110   6.1104
     6.3506   6.4397   6.5796   6.6445   6.6861   6.7640   6.7704   6.8586
     6.9725   6.9940   7.0562   7.1160   7.1386   7.3975   7.4180   7.4309
     7.4657   7.4778   7.5559   7.5626   7.5849   7.6712   7.7289   7.7970
     7.8738   7.9417   8.0565   8.1398   8.1603   8.1973   8.2217   8.2966
     8.3488   8.3553   8.3598   8.4046   8.4399   8.5071   8.5328   8.5875
     8.6405   8.8068   8.8739   8.9114   9.0037   9.0602   9.0893   9.1431
     9.1599   9.2170   9.2612   9.3069   9.3630   9.3874   9.5443   9.5552
     9.6172   9.6677   9.6792   9.6841   9.7208   9.7408   9.7601   9.7966
     9.8312   9.8448   9.8659   9.8793   9.9005   9.9027   9.9468   9.9747
     9.9816  10.0010  10.0144  10.0548  10.1052  10.1807  10.2236  10.2980
    10.4332  10.4593  10.5047  10.5367  10.5915  10.6108  10.6577  10.6765
    10.6822  10.7726  10.8217  10.8981  10.9171  10.9743  11.0152  11.1022
    11.1516  11.2158  11.3176  11.3527  11.4190  11.4301  11.4858  11.5368
    11.6039  11.6103  11.6262  11.6548  11.6708  11.7202  11.7779  11.7844
    11.7978  11.8733  11.8778  11.8953  11.9624  11.9912  11.9972  12.0090
    12.0624  12.0661  12.0946  12.1484  12.1806  12.1937  12.1968  12.2319
    12.2558  12.3152  12.3476  12.3548  12.3929  12.4114  12.4287  12.4587
    12.4681  12.4913  12.5309  12.5513  12.5881  12.5949  12.6192  12.6262
    12.6643  12.6970  12.7369  12.7750  12.8084  12.8397  12.9154  13.0082
    13.0254  13.0536  13.1356  13.1957  13.2483  13.3062  13.4503  13.4914
    13.5103  13.5372  13.5601  13.5887  13.6738  13.7186  13.7497  13.7755
    13.8627  13.9202  13.9741  14.0339  14.0575  14.0999  14.1422  14.1734
    14.3042  14.3332  14.3918  14.4390  14.4711  14.5092  14.5253  14.5664
    14.5850  14.6638  14.6826  14.6942  14.7422  14.7579  14.7944  14.8995
    14.9113  14.9358  14.9642  14.9706  15.0624  15.0755  15.0813  15.1309
    15.1493  15.1751  15.2768  15.3112  15.3433  15.3988  15.4533  15.4653
    15.5367  15.6009  15.6290  15.6926  15.7159  15.7910  15.8542  15.8956
    15.9178  15.9356  15.9918  16.0256  16.0660  16.0912  16.1130  16.2460
    16.3776  16.4178  16.4348  16.4913  16.5174  16.5819  16.5883  16.6358
    16.7156  16.7549  16.7859  16.8052  16.8328  16.8855  16.9155  16.9504
    16.9909  17.0301  17.0722  17.0964  17.1010  17.1071  17.1280  17.1539
    17.2018  17.2556  17.2719  17.2828  17.3154  17.3291  17.3642  17.3929
    17.4568  17.4612  17.4793  17.5395  17.5786  17.5967  17.6611  17.6985
    17.7137  17.7344  17.7778  17.8056  17.8275  17.9092  17.9695  17.9802
    18.0092  18.0400  18.0987  18.1700  18.2137  18.2522  18.2557  18.3401
    18.3561  18.3612  18.3892  18.4430  18.5205  18.5319  18.5748  18.5779
    18.6375  18.6440  18.6687  18.6963  18.7430  18.7717  18.7950  18.8093
    18.8200  18.8500  18.9033  18.9316  18.9700  19.0203  19.0840  19.1198
    19.2123  19.2412  19.3179  19.3246  19.4113  19.5000  19.5402  19.6042
    19.6079  19.6791  19.7491  19.8102  19.8469  19.8986  19.9346  19.9989
    20.0175  20.1117  20.1217  20.2222  20.2861  20.3196  20.3656  20.3929
    20.4084  20.4143  20.4576  20.5257  20.5337  20.6415  20.6726  20.7142
    20.7552  20.7788  20.7918  20.9304  20.9404  20.9556  21.0543  21.0761
    21.0856  21.1284  21.1878  21.2112

          k = 0.0000 0.0000 0.0329 ( 46530 PWs)   bands (ev):

   -25.4625 -25.4596 -23.3763 -23.3684 -20.3662 -20.3104 -20.1593 -19.9305
   -19.6300 -19.2573 -18.8187 -18.3074 -17.7410 -17.1271 -16.4943 -16.2738
   -16.2301 -16.1184 -15.9127 -15.8406 -15.6173 -15.4093 -15.1334 -15.0323
   -14.6559 -14.6187 -13.8359 -13.7314 -13.4146 -13.1213 -13.0745 -12.9909
   -12.8959 -12.8272 -12.6635 -12.5734 -12.5549 -12.3249 -12.0240 -11.6130
   -11.4155 -11.3570 -11.0131 -10.7211 -10.6847 -10.5284 -10.2075 -10.0995
   -10.0279  -9.6891  -9.4933  -9.3916  -9.1634  -8.9196  -8.8358  -8.6573
    -8.5829  -8.5263  -8.3787  -8.3342  -8.1805  -8.0851  -8.0008  -7.9162
    -7.8301  -7.6862  -7.6009  -7.4685  -7.3246  -7.2774  -7.1918  -6.9076
    -6.7585  -6.6282  -6.4117  -6.2650  -6.1456  -5.9104  -5.7266  -5.6289
    -5.5623  -5.3327  -5.1980  -5.0810  -4.9999  -4.7758  -4.7276  -4.5080
    -4.4068  -4.3857  -3.9037  -3.8115  -3.7245  -3.6240  -3.3577  -3.0806
    -3.0088  -2.6632  -2.4498  -2.2822  -2.0182  -1.9775   0.1051   0.1678
     0.3453   0.5902   0.6462   0.9110   1.1449   1.2248   1.3302   1.3819
     1.4555   1.5287   1.6331   1.9682   2.2010   2.3238   2.4111   2.7385
     2.8060   2.8349   3.0103   3.1363   3.3918   3.4427   3.4823   3.6903
     3.7000   3.8304   3.9862   4.0342   4.2851   4.3072   4.4469   4.4989
     4.5913   4.5983   4.9091   4.9183   5.1195   5.1530   5.1948   5.2563
     5.3061   5.5568   5.5854   5.7702   5.8847   5.9693   6.0403   6.1436
     6.3089   6.3970   6.5582   6.6257   6.6713   6.7100   6.7595   6.8501
     7.0063   7.0185   7.0753   7.1275   7.1655   7.3825   7.4007   7.4117
     7.4644   7.4671   7.4880   7.5255   7.5769   7.6553   7.7602   7.7759
     7.8211   7.9507   7.9729   8.0355   8.0827   8.1163   8.1400   8.1794
     8.2110   8.2275   8.3197   8.3963   8.4282   8.4505   8.4663   8.4829
     8.5191   8.6463   8.7094   8.7419   8.8659   8.9132   8.9667   9.0525
     9.1099   9.1558   9.2312   9.2365   9.3089   9.3327   9.4062   9.4502
     9.5080   9.5253   9.5882   9.5986   9.6096   9.6244   9.6869   9.7030
     9.7163   9.7241   9.7888   9.8005   9.8355   9.8472   9.8902   9.9346
     9.9560   9.9646   9.9902  10.0050  10.0701  10.1334  10.1556  10.2853
    10.3098  10.3783  10.4303  10.4496  10.5006  10.5386  10.6315  10.6589
    10.6778  10.7071  10.7244  10.7738  10.7953  10.8324  10.9121  11.0055
    11.0365  11.1081  11.2140  11.2992  11.3396  11.3873  11.4550  11.5269
    11.5285  11.5702  11.6272  11.6490  11.6706  11.7305  11.7525  11.7883
    11.8193  11.8450  11.8808  11.9208  11.9328  12.0026  12.0294  12.0636
    12.1279  12.1410  12.1862  12.2157  12.2739  12.3052  12.3185  12.3494
    12.3655  12.3808  12.3948  12.4302  12.4418  12.4506  12.4883  12.5150
    12.5211  12.5247  12.5440  12.5654  12.5719  12.6151  12.6369  12.6531
    12.6906  12.7140  12.7607  12.8140  12.8686  12.8951  12.9567  13.0148
    13.0191  13.1296  13.1854  13.2072  13.2739  13.3654  13.4213  13.4545
    13.5082  13.5286  13.5833  13.6702  13.7171  13.7890  13.8150  13.8445
    13.8791  13.9096  13.9735  14.0123  14.0250  14.1367  14.1880  14.2060
    14.2814  14.3886  14.4183  14.4923  14.5352  14.5802  14.6153  14.6284
    14.6967  14.7428  14.7719  14.8189  14.8470  14.8579  14.8923  14.9007
    14.9244  14.9451  14.9628  15.0041  15.0459  15.1158  15.1341  15.1876
    15.2028  15.2447  15.3032  15.3409  15.4145  15.4709  15.5514  15.5605
    15.5964  15.6269  15.6605  15.7252  15.7587  15.8434  15.8739  15.9247
    15.9494  16.0020  16.0204  16.0622  16.1149  16.1374  16.1866  16.2925
    16.3745  16.4585  16.4775  16.5083  16.5431  16.5830  16.5952  16.7069
    16.7268  16.7323  16.7913  16.8226  16.8821  16.8950  16.9032  16.9156
    16.9345  16.9963  17.0256  17.0449  17.0704  17.0864  17.1477  17.1577
    17.1705  17.1961  17.2414  17.2572  17.3149  17.3423  17.3730  17.4120
    17.4673  17.5365  17.5567  17.5868  17.6314  17.6753  17.6940  17.7269
    17.7560  17.7954  17.8534  17.8672  17.8925  17.9116  17.9390  18.0187
    18.0395  18.0925  18.1236  18.1290  18.1576  18.1749  18.2805  18.3114
    18.3199  18.3678  18.4269  18.4931  18.5281  18.5385  18.5999  18.6089
    18.6640  18.6911  18.7062  18.7549  18.7897  18.7974  18.8168  18.8275
    18.8619  18.8793  18.9347  19.0058  19.0889  19.1289  19.1855  19.2038
    19.3143  19.3520  19.3671  19.3827  19.4653  19.5215  19.5568  19.5671
    19.6497  19.7655  19.7945  19.8473  19.8900  19.9301  20.0003  20.0763
    20.0991  20.1298  20.1964  20.2802  20.3238  20.3572  20.4238  20.4673
    20.5135  20.5323  20.5594  20.5676  20.6026  20.6777  20.6898  20.7480
    20.7702  20.8373  20.8709  20.9058  20.9176  20.9647  21.0048  21.0319
    21.1189  21.1543  21.1663  21.1831

          k = 0.0000 0.0000 0.0376 ( 46488 PWs)   bands (ev):

   -25.4413 -25.4385 -23.4121 -23.4045 -20.3308 -20.2751 -20.1241 -19.8955
   -19.5952 -19.2227 -18.7844 -18.2735 -17.7077 -17.0954 -16.4959 -16.4500
   -16.3791 -16.2883 -16.0799 -15.8948 -15.7149 -15.5407 -15.1651 -15.1584
   -14.7431 -14.6966 -13.7981 -13.7020 -13.4427 -13.1864 -13.0190 -12.7740
   -12.7368 -12.6374 -12.6024 -12.4638 -12.3915 -12.2869 -12.0329 -11.6717
   -11.3442 -11.2763 -11.0746 -10.6521 -10.6015 -10.4603 -10.1713 -10.0733
    -9.9714  -9.6618  -9.4496  -9.3921  -9.1273  -8.9041  -8.8184  -8.6154
    -8.5501  -8.5069  -8.3395  -8.2785  -8.1358  -8.1075  -7.9925  -7.8990
    -7.7836  -7.6565  -7.5591  -7.4328  -7.3652  -7.2667  -7.1565  -6.8680
    -6.7510  -6.6438  -6.4197  -6.2614  -6.1322  -5.9341  -5.7616  -5.6269
    -5.5709  -5.3626  -5.2540  -5.1380  -4.9870  -4.8561  -4.8205  -4.6163
    -4.4711  -4.3637  -4.0616  -3.9688  -3.7834  -3.7086  -3.5177  -3.2008
    -3.0538  -2.8267  -2.4920  -2.4464  -2.1236  -2.1124   0.2352   0.2382
     0.5053   0.5960   0.8141   1.0963   1.1884   1.3382   1.4351   1.5324
     1.6633   1.6838   1.7401   1.9131   2.2496   2.3714   2.4598   2.6951
     2.8327   2.8809   3.0574   3.1815   3.4374   3.4623   3.4865   3.6997
     3.7401   3.8783   4.0333   4.0817   4.2542   4.3415   4.4937   4.5427
     4.6124   4.6375   4.9537   4.9620   5.1368   5.1978   5.1993   5.2728
     5.3383   5.5733   5.6262   5.7772   5.9220   6.0108   6.0724   6.1817
     6.2635   6.3317   6.4770   6.6045   6.6618   6.6871   6.7558   6.8428
     7.0389   7.0559   7.1065   7.1407   7.1947   7.3314   7.3607   7.3815
     7.4403   7.4530   7.4738   7.4865   7.5391   7.5950   7.7128   7.7791
     7.7962   7.8452   7.8923   7.8984   7.9624   8.0056   8.0382   8.1113
     8.1317   8.1792   8.2349   8.2791   8.3834   8.4310   8.4453   8.4673
     8.5050   8.5218   8.5634   8.6133   8.6853   8.7477   8.8700   8.9288
     8.9762   9.0350   9.1547   9.1878   9.2499   9.2867   9.2992   9.3421
     9.3611   9.3663   9.3768   9.4198   9.4588   9.4984   9.6208   9.6418
     9.6586   9.6636   9.7656   9.7687   9.7711   9.7953   9.8456   9.8761
     9.9373   9.9759   9.9962  10.0039  10.0294  10.0537  10.1382  10.1704
    10.1885  10.2877  10.3240  10.3487  10.3954  10.4516  10.4932  10.5880
    10.6290  10.6960  10.7235  10.7502  10.7643  10.7750  10.8016  10.8965
    10.9144  11.0444  11.1087  11.1478  11.2280  11.2620  11.4389  11.4752
    11.5087  11.5562  11.5871  11.6296  11.6700  11.6955  11.7639  11.7833
    11.7944  11.8290  11.8909  11.9231  11.9898  11.9960  12.0607  12.0967
    12.1910  12.1934  12.2262  12.2435  12.2737  12.2895  12.3055  12.3408
    12.3803  12.3891  12.4122  12.4489  12.4846  12.4894  12.5219  12.5571
    12.5645  12.5908  12.6233  12.6559  12.6891  12.7036  12.7322  12.7738
    12.7850  12.7957  12.8220  12.8468  12.9498  12.9796  13.0109  13.0670
    13.0909  13.1053  13.2180  13.2328  13.2616  13.3166  13.3555  13.4285
    13.4801  13.4976  13.5949  13.6679  13.7181  13.7838  13.8174  13.8823
    13.9055  13.9756  14.0404  14.1195  14.1303  14.2062  14.2161  14.2901
    14.3184  14.4091  14.4728  14.4998  14.5581  14.5913  14.5967  14.6535
    14.7105  14.7625  14.8026  14.8559  14.9083  14.9200  14.9645  14.9928
    15.0215  15.0408  15.0818  15.0921  15.1721  15.2142  15.2529  15.2960
    15.3331  15.3392  15.3792  15.4117  15.4552  15.4867  15.5330  15.5459
    15.5855  15.6654  15.8089  15.8231  15.8278  15.8941  15.9398  15.9688
    15.9956  16.0053  16.0834  16.1137  16.1382  16.1575  16.2012  16.2992
    16.3974  16.4821  16.5238  16.5314  16.5385  16.6285  16.6449  16.6943
    16.6988  16.7326  16.7394  16.8065  16.8368  16.8934  16.9051  16.9661
    16.9909  17.0038  17.0184  17.0343  17.0598  17.0825  17.1155  17.1393
    17.1840  17.2217  17.2444  17.3124  17.3282  17.3748  17.4056  17.4164
    17.4666  17.4889  17.5496  17.6126  17.6414  17.6714  17.7482  17.7676
    17.7963  17.8326  17.8468  17.9002  17.9482  17.9623  17.9764  18.0161
    18.0918  18.1290  18.1408  18.1886  18.2251  18.2506  18.2663  18.2856
    18.3617  18.3900  18.4168  18.5177  18.6116  18.6168  18.6401  18.6684
    18.7196  18.7339  18.7638  18.7696  18.7889  18.8036  18.8347  18.8927
    18.9153  18.9359  19.0095  19.0832  19.1225  19.2368  19.3237  19.3801
    19.4118  19.4136  19.4253  19.5255  19.5406  19.5582  19.5862  19.6094
    19.6708  19.6999  19.8326  19.9226  19.9449  19.9812  20.0234  20.0798
    20.2210  20.2408  20.2867  20.3271  20.3533  20.3763  20.4386  20.5209
    20.5377  20.5581  20.5877  20.6152  20.6687  20.7159  20.7310  20.7610
    20.7748  20.8176  20.8770  20.8961  20.9757  20.9890  21.0409  21.0468
    21.0779  21.0918  21.1400  21.2333

          k = 0.0000 0.0000 0.0423 ( 46520 PWs)   bands (ev):

   -25.4176 -25.4149 -23.4515 -23.4442 -20.2906 -20.2352 -20.0843 -19.8559
   -19.5557 -19.1835 -18.7455 -18.2351 -17.6701 -17.0605 -16.6281 -16.6100
   -16.4627 -16.4153 -16.2373 -16.0235 -15.7330 -15.6879 -15.3020 -15.1775
   -14.8522 -14.7548 -13.7812 -13.6686 -13.4815 -13.2249 -13.0175 -12.7083
   -12.5389 -12.4954 -12.4403 -12.3722 -12.1981 -12.1642 -12.0304 -11.7187
   -11.2861 -11.1872 -11.1262 -10.6730 -10.4704 -10.3735 -10.1385 -10.0481
    -9.8874  -9.6395  -9.4442  -9.3316  -9.1000  -8.9015  -8.7791  -8.5745
    -8.5110  -8.4605  -8.2997  -8.2376  -8.1474  -8.0787  -7.9622  -7.8579
    -7.7385  -7.6270  -7.5147  -7.4419  -7.3912  -7.2208  -7.1113  -6.8314
    -6.7926  -6.6286  -6.4176  -6.2802  -6.1048  -5.9674  -5.8141  -5.6239
    -5.5713  -5.3988  -5.3240  -5.2026  -4.9747  -4.9486  -4.9148  -4.7278
    -4.5470  -4.3351  -4.2261  -4.1329  -3.9477  -3.7059  -3.6683  -3.3644
    -3.0617  -2.9935  -2.6123  -2.5391  -2.2641  -2.2112   0.3059   0.3678
     0.6004   0.6652   0.9905   1.1495   1.2881   1.4810   1.5535   1.7292
     1.7583   1.8512   1.8865   1.9645   2.3047   2.4245   2.5148   2.6295
     2.8826   2.9317   3.1103   3.2321   3.4189   3.4887   3.5360   3.7306
     3.7863   3.9327   4.0862   4.1354   4.2095   4.3807   4.5465   4.5924
     4.6480   4.6799   5.0029   5.0067   5.1156   5.2269   5.2482   5.3175
     5.3694   5.5879   5.6727   5.7902   5.9584   6.0445   6.0993   6.1974
     6.2425   6.2597   6.3734   6.5789   6.6312   6.6817   6.7721   6.8448
     7.0714   7.0936   7.1388   7.1558   7.2108   7.2490   7.3184   7.3373
     7.3987   7.4182   7.4415   7.4541   7.5064   7.5360   7.5884   7.6166
     7.6679   7.7197   7.8275   7.8672   7.8714   7.9711   7.9947   8.0181
     8.1042   8.1281   8.1506   8.1799   8.2917   8.3392   8.3470   8.3787
     8.4841   8.5235   8.5541   8.5683   8.5893   8.6311   8.7299   8.7921
     8.8123   8.9213   9.0093   9.0419   9.0807   9.1027   9.1203   9.2021
     9.2257   9.2795   9.3314   9.3570   9.4086   9.4282   9.4445   9.5218
     9.5651   9.5948   9.7181   9.7582   9.7740   9.8095   9.8138   9.8233
     9.8734   9.8779   9.9165   9.9692  10.0176  10.0559  10.0674  10.0858
    10.1303  10.1651  10.1915  10.2543  10.2791  10.3499  10.4486  10.5257
    10.6152  10.6222  10.6623  10.6885  10.7214  10.7967  10.8038  10.8294
    10.8586  10.9525  10.9976  11.0167  11.0615  11.1870  11.3357  11.4206
    11.4808  11.4982  11.5656  11.6421  11.6864  11.7099  11.7405  11.7670
    11.8094  11.8626  11.8882  11.9069  11.9544  12.0322  12.0582  12.0735
    12.1465  12.1728  12.1905  12.2145  12.2800  12.2911  12.3162  12.3334
    12.3588  12.3874  12.4233  12.4517  12.4763  12.4936  12.5065  12.5181
    12.6390  12.6653  12.6890  12.7191  12.7751  12.8081  12.8549  12.8775
    12.9161  12.9331  12.9574  13.0201  13.0352  13.0505  13.0605  13.0989
    13.1409  13.1577  13.1702  13.2056  13.2283  13.2889  13.3215  13.4051
    13.4670  13.5109  13.6235  13.6556  13.6949  13.7867  13.8181  13.9183
    13.9288  14.0247  14.0696  14.1321  14.1993  14.2153  14.2851  14.3406
    14.4241  14.4466  14.4944  14.5303  14.5666  14.5864  14.6014  14.7319
    14.7808  14.8162  14.8686  14.8934  14.9578  14.9902  14.9981  15.1080
    15.1241  15.1638  15.2225  15.2734  15.3001  15.3162  15.3273  15.3644
    15.3878  15.4192  15.4362  15.4569  15.5235  15.5485  15.5750  15.5999
    15.6474  15.6795  15.8127  15.8882  15.9383  15.9800  15.9881  16.0101
    16.0438  16.0530  16.1025  16.1412  16.1649  16.2074  16.2805  16.2887
    16.3723  16.4344  16.5032  16.5169  16.5752  16.6101  16.6158  16.7001
    16.7087  16.7322  16.7606  16.7845  16.8112  16.8627  16.9593  16.9811
    17.0026  17.0338  17.0564  17.0888  17.0932  17.1479  17.1827  17.1978
    17.2550  17.2626  17.2949  17.3075  17.3450  17.3870  17.4115  17.4284
    17.4739  17.5446  17.5840  17.6201  17.6372  17.6510  17.6942  17.7338
    17.7468  17.7940  17.8710  17.9094  17.9884  17.9957  18.0251  18.0917
    18.1200  18.1453  18.1923  18.2680  18.2883  18.3289  18.3562  18.3839
    18.4304  18.4650  18.5380  18.5843  18.6343  18.6520  18.6796  18.7346
    18.7558  18.7689  18.7908  18.8233  18.8381  18.8667  18.8858  18.9314
    18.9590  19.1071  19.1210  19.1494  19.2056  19.3170  19.3313  19.3811
    19.4188  19.4668  19.5502  19.5638  19.6055  19.6440  19.7060  19.7479
    19.7854  19.8478  19.8788  19.9319  19.9686  20.0060  20.0490  20.1357
    20.2041  20.2658  20.3185  20.3349  20.3784  20.4046  20.4429  20.4609
    20.5189  20.5945  20.6657  20.7048  20.7207  20.7541  20.7760  20.8111
    20.8480  20.8792  20.9264  20.9405  20.9671  20.9777  20.9886  21.0063
    21.0606  21.0665  21.1517  21.2735

          k = 0.0000 0.0000 0.0469 ( 46584 PWs)   bands (ev):

   -25.3915 -25.3889 -23.4942 -23.4871 -20.2458 -20.1905 -20.0398 -19.8116
   -19.5117 -19.1398 -18.7022 -18.1923 -17.6284 -17.0246 -16.8008 -16.7749
   -16.6307 -16.4694 -16.3261 -16.1775 -15.8429 -15.7232 -15.4375 -15.2101
   -14.9467 -14.8208 -13.7814 -13.6224 -13.5479 -13.2242 -13.0589 -12.6856
   -12.5196 -12.3030 -12.2236 -12.1998 -12.0275 -12.0112 -11.9912 -11.7298
   -11.3003 -11.0988 -11.0942 -10.7342 -10.3538 -10.2620 -10.1575  -9.9544
    -9.8064  -9.6421  -9.3919  -9.2814  -9.0926  -8.8643  -8.7416  -8.5358
    -8.4664  -8.4012  -8.2803  -8.2165  -8.1283  -8.0237  -7.9195  -7.8065
    -7.6976  -7.6254  -7.4950  -7.4523  -7.3483  -7.1768  -7.0619  -6.8674
    -6.7954  -6.5942  -6.4121  -6.3206  -6.0697  -6.0054  -5.8746  -5.6473
    -5.5569  -5.4446  -5.3964  -5.2695  -5.0787  -5.0380  -4.9177  -4.8372
    -4.6303  -4.3954  -4.3042  -4.3001  -4.1157  -3.8561  -3.6678  -3.5326
    -3.1633  -3.0691  -2.7729  -2.6022  -2.3932  -2.3130   0.3789   0.4898
     0.6132   0.8235   1.1102   1.1693   1.4840   1.5460   1.7606   1.7905
     1.8039   1.9725   2.1156   2.2001   2.3662   2.4780   2.5618   2.5766
     2.9415   2.9846   3.1684   3.2851   3.3664   3.5454   3.5914   3.7784
     3.8321   3.9934   4.1371   4.1654   4.1962   4.4227   4.6049   4.6483
     4.6951   4.7222   5.0204   5.0615   5.1131   5.2714   5.3005   5.3704
     5.3954   5.6055   5.7232   5.8025   5.9751   6.0211   6.1193   6.1922
     6.2024   6.2729   6.2986   6.5432   6.6001   6.6750   6.7969   6.8525
     7.0797   7.0941   7.1231   7.1684   7.1745   7.2086   7.2803   7.2962
     7.3196   7.3374   7.3707   7.3847   7.4533   7.4708   7.4861   7.5286
     7.5364   7.6559   7.7072   7.7485   7.8424   7.9095   7.9234   7.9456
     8.0431   8.0769   8.1127   8.1316   8.1723   8.2296   8.2731   8.3432
     8.4043   8.4491   8.5343   8.5573   8.6051   8.6162   8.6309   8.6629
     8.7207   8.7710   8.8304   8.8770   8.8819   8.8953   8.9379   9.0646
     9.1139   9.1760   9.1990   9.2107   9.3683   9.3950   9.4274   9.4660
     9.5016   9.5178   9.5792   9.6563   9.6655   9.6719   9.7727   9.8340
     9.8408   9.8654   9.8803   9.8956   9.9029   9.9605  10.0123  10.0265
    10.0558  10.1208  10.1481  10.1862  10.2572  10.3055  10.3672  10.4793
    10.5273  10.5395  10.5911  10.6609  10.7031  10.7355  10.7718  10.8176
    10.8679  10.8807  10.9016  10.9308  10.9476  11.1624  11.1889  11.3755
    11.4285  11.5002  11.5279  11.6097  11.6919  11.7183  11.7218  11.7681
    11.7780  11.8459  11.8885  11.9155  11.9274  11.9374  11.9720  12.0332
    12.0749  12.1333  12.1863  12.1998  12.2475  12.3057  12.3626  12.3844
    12.3887  12.4221  12.4385  12.4654  12.4858  12.4921  12.5088  12.5337
    12.6221  12.6890  12.7100  12.7438  12.8262  12.8762  12.8872  12.9131
    12.9188  12.9534  12.9869  12.9917  13.0915  13.1237  13.1349  13.1715
    13.1859  13.2042  13.2158  13.2835  13.3418  13.3556  13.3910  13.4028
    13.5148  13.5860  13.6176  13.6569  13.7578  13.7784  13.8262  13.9222
    13.9925  14.0227  14.0393  14.1092  14.1279  14.1715  14.2600  14.3651
    14.4623  14.5067  14.5405  14.5723  14.5901  14.7118  14.7537  14.8011
    14.8406  14.9022  14.9389  15.0199  15.0545  15.1079  15.1289  15.1645
    15.1856  15.2365  15.2458  15.2806  15.3083  15.3651  15.3837  15.4164
    15.4568  15.4641  15.5222  15.5720  15.6286  15.6732  15.7099  15.7472
    15.7605  15.7865  15.8435  15.8824  15.9590  15.9886  16.0192  16.0374
    16.0611  16.0881  16.1363  16.1541  16.1627  16.2755  16.2906  16.3295
    16.3712  16.3949  16.4535  16.4990  16.5967  16.6082  16.6326  16.6643
    16.7047  16.7493  16.7716  16.8089  16.8770  16.8990  16.9722  17.0123
    17.0295  17.0373  17.1040  17.1428  17.1760  17.2076  17.2117  17.2615
    17.3107  17.3398  17.3468  17.3708  17.4046  17.4161  17.4192  17.4453
    17.4974  17.5528  17.5858  17.6013  17.6224  17.6369  17.6791  17.7660
    17.8338  17.8700  17.8943  17.9252  18.0163  18.0539  18.0796  18.1092
    18.1667  18.2220  18.2323  18.2783  18.3235  18.3793  18.4183  18.4766
    18.4915  18.5623  18.6024  18.6717  18.6958  18.7018  18.7673  18.8136
    18.8210  18.8314  18.8466  18.8836  18.8926  18.9537  19.0088  19.0120
    19.1038  19.1432  19.1912  19.2366  19.2600  19.3203  19.3812  19.4111
    19.4777  19.5443  19.6093  19.6518  19.6814  19.6871  19.7478  19.8760
    19.8853  19.9153  19.9746  20.0001  20.0233  20.0434  20.0922  20.1483
    20.1591  20.2429  20.3256  20.3399  20.3690  20.4213  20.4738  20.4817
    20.5320  20.5878  20.6977  20.7203  20.7593  20.8076  20.8158  20.8304
    20.8479  20.8878  20.9487  20.9542  20.9909  21.0650  21.0755  21.1051
    21.1515  21.1737  21.2180  21.2301

          k = 0.0000 0.0000 0.0516 ( 46608 PWs)   bands (ev):

   -25.3632 -25.3607 -23.5396 -23.5329 -20.1963 -20.1412 -19.9906 -19.7627
   -19.4631 -19.0916 -18.6544 -18.1452 -17.5829 -17.0132 -16.9545 -16.9369
   -16.7925 -16.6132 -16.3428 -16.3081 -15.9936 -15.7347 -15.5461 -15.2795
   -15.0070 -14.8983 -13.7840 -13.6282 -13.5718 -13.2186 -13.1050 -12.6611
   -12.5624 -12.1398 -12.0342 -12.0073 -11.9835 -11.8470 -11.7867 -11.6775
   -11.3549 -11.0162 -11.0064 -10.8046 -10.3335 -10.1528 -10.0840  -9.8756
    -9.7455  -9.6120  -9.3126  -9.2726  -9.0582  -8.8110  -8.7082  -8.4965
    -8.4328  -8.3430  -8.2649  -8.1703  -8.0785  -7.9686  -7.8681  -7.7497
    -7.7028  -7.6325  -7.4718  -7.4012  -7.3011  -7.1411  -7.0115  -6.9446
    -6.7669  -6.5598  -6.4062  -6.3766  -6.0697  -6.0078  -5.9440  -5.6917
    -5.5740  -5.4894  -5.4514  -5.3319  -5.2180  -5.1484  -4.9507  -4.8755
    -4.7197  -4.5668  -4.4713  -4.2877  -4.2664  -4.0250  -3.7031  -3.6485
    -3.3296  -3.0901  -2.9215  -2.6892  -2.5005  -2.4169   0.4539   0.5732
     0.6659   0.9728   1.0787   1.3486   1.6053   1.6814   1.7354   1.8741
     1.9781   2.2019   2.3548   2.4341   2.4431   2.4634   2.5669   2.6439
     3.0074   3.0322   3.2261   3.2994   3.3656   3.6066   3.6526   3.8369
     3.8668   4.0601   4.1094   4.2154   4.2623   4.4630   4.6681   4.7100
     4.7502   4.7598   5.0009   5.1225   5.1612   5.3187   5.3447   5.4131
     5.4353   5.6343   5.7635   5.7799   5.9459   5.9660   6.1251   6.1734
     6.2191   6.2584   6.3453   6.4971   6.5856   6.6560   6.7933   6.8588
     6.9610   6.9954   7.0800   7.1198   7.1367   7.1810   7.2000   7.2405
     7.2708   7.3078   7.3253   7.3391   7.3545   7.3840   7.4041   7.5126
     7.5296   7.5810   7.6135   7.6547   7.7623   7.7878   7.8266   7.8705
     7.9035   7.9792   8.0632   8.0804   8.1493   8.1973   8.2454   8.2677
     8.3567   8.3669   8.4134   8.5159   8.5229   8.5673   8.6270   8.6337
     8.6477   8.6550   8.6981   8.7236   8.7335   8.7640   8.8781   8.9038
     8.9683   9.0048   9.0360   9.1126   9.2590   9.3281   9.3463   9.3995
     9.4239   9.4356   9.5084   9.5554   9.5611   9.6019   9.6186   9.6754
     9.7146   9.7779   9.8304   9.8849   9.9010   9.9335   9.9469   9.9601
    10.0732  10.0928  10.1396  10.1661  10.1947  10.2457  10.3611  10.4424
    10.4511  10.4692  10.5077  10.5441  10.6398  10.6567  10.7390  10.7674
    10.7846  10.8981  10.9091  10.9195  10.9713  11.0612  11.1901  11.3125
    11.3781  11.4395  11.4959  11.5537  11.6091  11.6592  11.7077  11.7173
    11.7469  11.7849  11.8068  11.8963  11.9065  11.9683  11.9803  11.9967
    12.0305  12.1017  12.1820  12.2012  12.2785  12.2878  12.3770  12.3894
    12.4239  12.4281  12.4394  12.4702  12.5093  12.5380  12.5481  12.5615
    12.6129  12.6551  12.7194  12.7451  12.7729  12.8272  12.8547  12.8774
    12.8826  12.9360  12.9470  13.0377  13.0693  13.1218  13.1480  13.1997
    13.2254  13.2841  13.2897  13.4280  13.4556  13.4792  13.5264  13.5407
    13.6051  13.6280  13.6543  13.7328  13.7422  13.7949  13.8629  13.8743
    13.9478  14.0060  14.0399  14.0690  14.1292  14.2111  14.2628  14.3978
    14.4912  14.5427  14.5679  14.6100  14.6560  14.7676  14.8251  14.8415
    14.9733  14.9925  15.0199  15.0991  15.1123  15.1285  15.1638  15.1865
    15.2013  15.2771  15.3145  15.3913  15.4172  15.4234  15.4450  15.4711
    15.5633  15.5749  15.5902  15.6855  15.7448  15.7752  15.7828  15.8295
    15.8523  15.8824  15.9013  15.9464  15.9692  15.9858  16.0078  16.0560
    16.0744  16.1033  16.1169  16.1596  16.1840  16.1908  16.2998  16.3648
    16.3871  16.4018  16.4910  16.5215  16.6381  16.6640  16.6822  16.7069
    16.7155  16.7624  16.7869  16.8240  16.9278  16.9388  16.9519  17.0196
    17.0467  17.0726  17.1686  17.1775  17.2113  17.2375  17.2535  17.2965
    17.3291  17.3784  17.4202  17.4354  17.4600  17.4847  17.5050  17.5109
    17.5691  17.5929  17.6011  17.6477  17.6603  17.6859  17.7477  17.8367
    17.8771  17.9294  17.9549  17.9598  17.9982  18.1368  18.2006  18.2327
    18.2377  18.2736  18.2815  18.3400  18.3559  18.4029  18.4731  18.5513
    18.5765  18.5835  18.6062  18.6933  18.7373  18.7676  18.7855  18.8443
    18.8548  18.9318  18.9583  19.0288  19.0358  19.0631  19.0893  19.1022
    19.1737  19.2494  19.3036  19.3133  19.3616  19.3712  19.4197  19.4824
    19.5428  19.6344  19.6596  19.7105  19.7197  19.7638  19.7768  19.8462
    19.8565  19.9533  19.9768  20.0172  20.0485  20.0762  20.1284  20.2368
    20.2681  20.2843  20.3048  20.3376  20.3867  20.5000  20.5155  20.5342
    20.5895  20.6521  20.6899  20.7238  20.7450  20.7649  20.7909  20.8407
    20.8873  20.9144  20.9930  21.0069  21.0320  21.1163  21.1327  21.1849
    21.2278  21.2866  21.3582  21.3913

          k = 0.0000 0.0000 0.0563 ( 46592 PWs)   bands (ev):

   -25.3328 -25.3304 -23.5874 -23.5810 -20.1421 -20.0873 -19.9369 -19.7092
   -19.4099 -19.0388 -18.6022 -18.0939 -17.5342 -17.1531 -17.1100 -17.0007
   -16.8892 -16.7712 -16.4953 -16.2939 -16.1289 -15.8161 -15.5803 -15.3839
   -15.0367 -14.9865 -13.7882 -13.7012 -13.5275 -13.2577 -13.1035 -12.6555
   -12.5978 -12.0779 -12.0312 -11.7844 -11.7623 -11.6732 -11.5862 -11.5524
   -11.3948 -10.9689 -10.9130 -10.8383 -10.3946 -10.0359  -9.9754  -9.8306
    -9.6609  -9.5464  -9.2940  -9.2161  -8.9850  -8.7814  -8.6678  -8.4599
    -8.4033  -8.2853  -8.2084  -8.1124  -8.0240  -7.9146  -7.8089  -7.7756
    -7.6824  -7.5911  -7.4277  -7.3451  -7.2504  -7.1327  -7.0052  -6.9588
    -6.7431  -6.5394  -6.4530  -6.3827  -6.1193  -6.0250  -5.9612  -5.7557
    -5.6615  -5.5324  -5.4791  -5.3966  -5.3462  -5.2565  -5.0563  -4.8408
    -4.8084  -4.7390  -4.6420  -4.4554  -4.2319  -4.1938  -3.8709  -3.6359
    -3.4887  -3.1612  -3.0202  -2.8025  -2.5830  -2.5213   0.5306   0.6011
     0.7762   1.0132   1.1558   1.5268   1.6141   1.7355   1.8711   1.9590
     2.1985   2.3818   2.4404   2.5085   2.6009   2.6357   2.6974   2.7172
     3.0491   3.0809   3.2497   3.3240   3.4292   3.6694   3.7194   3.8627
     3.9085   4.1000   4.1348   4.2867   4.3349   4.4920   4.7317   4.7769
     4.7861   4.8148   4.9963   5.1851   5.2270   5.3428   5.3751   5.4597
     5.4961   5.6455   5.6819   5.8225   5.8662   5.9686   6.1057   6.2015
     6.2281   6.2958   6.3944   6.4756   6.5741   6.6072   6.6803   6.7894
     6.8765   6.9124   6.9292   7.0401   7.0836   7.1133   7.1292   7.1508
     7.1994   7.2895   7.3042   7.3154   7.3537   7.3560   7.3817   7.4174
     7.5332   7.5595   7.5630   7.5893   7.6107   7.6891   7.7084   7.7306
     7.8731   7.9192   7.9815   8.0110   8.0420   8.0541   8.2012   8.2707
     8.2874   8.3044   8.3608   8.3872   8.4052   8.4224   8.4468   8.5362
     8.6051   8.6171   8.6497   8.7114   8.7451   8.7714   8.8011   8.8197
     8.8389   8.8762   8.9288   8.9733   9.1211   9.1805   9.2345   9.2479
     9.2837   9.3226   9.3892   9.4287   9.4839   9.5578   9.5650   9.5918
     9.6187   9.6535   9.7391   9.7917   9.8718   9.8911   9.9501  10.0021
    10.0168  10.0445  10.1063  10.2033  10.2055  10.2290  10.2683  10.3066
    10.3780  10.4346  10.4391  10.5065  10.5628  10.6001  10.6854  10.7169
    10.7768  10.8837  10.9229  10.9556  11.0332  11.0669  11.1718  11.2141
    11.3477  11.3548  11.4257  11.4532  11.4785  11.5589  11.5903  11.6280
    11.7228  11.7987  11.8181  11.8539  11.9003  11.9722  12.0096  12.0374
    12.0564  12.0747  12.1732  12.1940  12.2454  12.3237  12.3458  12.3718
    12.3975  12.4123  12.4495  12.5044  12.5056  12.5397  12.5520  12.5683
    12.5696  12.6617  12.6699  12.7175  12.7513  12.7703  12.8262  12.8658
    12.8831  12.9436  12.9616  13.0218  13.0753  13.1063  13.1622  13.2177
    13.2506  13.3301  13.3831  13.4408  13.4832  13.5300  13.5841  13.6044
    13.6490  13.6692  13.7563  13.7660  13.7937  13.8408  13.8887  13.9141
    13.9662  13.9934  14.0586  14.0906  14.2341  14.2743  14.2784  14.4724
    14.5460  14.5653  14.6284  14.6482  14.6562  14.7547  14.8305  14.9120
    14.9557  14.9680  15.0039  15.0736  15.1027  15.1695  15.2161  15.2564
    15.3486  15.4275  15.4351  15.4542  15.4712  15.5007  15.5163  15.5891
    15.6292  15.7047  15.7124  15.7283  15.7466  15.7674  15.8350  15.8557
    15.8851  15.8942  15.9269  15.9622  15.9934  16.0267  16.0444  16.0720
    16.1025  16.1359  16.1543  16.1711  16.1822  16.2700  16.3719  16.3912
    16.4269  16.4499  16.5318  16.6044  16.6263  16.7084  16.7394  16.7452
    16.7535  16.7800  16.8260  16.8750  16.8828  16.9365  16.9693  17.0555
    17.1230  17.1350  17.1573  17.2043  17.2430  17.2585  17.2711  17.3310
    17.3838  17.4473  17.4657  17.5023  17.5364  17.5692  17.6057  17.6330
    17.6682  17.6822  17.6918  17.7311  17.7774  17.7907  17.8271  17.8549
    17.9411  17.9617  18.0070  18.0417  18.1357  18.1671  18.2343  18.2469
    18.2784  18.3068  18.3728  18.3890  18.4862  18.5315  18.5608  18.5981
    18.6530  18.6639  18.7220  18.7532  18.7759  18.8201  18.8377  18.8514
    18.8563  18.9655  18.9953  19.0248  19.0942  19.1571  19.1941  19.2238
    19.2900  19.3185  19.4294  19.4813  19.4882  19.5088  19.5263  19.5528
    19.6199  19.6617  19.6785  19.7050  19.7543  19.7631  19.7723  19.7859
    19.8968  19.9281  19.9908  20.0090  20.0437  20.1896  20.2330  20.2424
    20.2647  20.2957  20.3554  20.3824  20.4437  20.5335  20.5941  20.6153
    20.6434  20.6654  20.6850  20.7456  20.7631  20.8040  20.8149  20.8771
    20.9579  20.9803  21.0518  21.0709  21.1169  21.1584  21.2628  21.2776
    21.3238  21.3429  21.3790  21.3938

          k = 0.0000 0.0000 0.0610 ( 46576 PWs)   bands (ev):

   -25.3005 -25.2983 -23.6371 -23.6310 -20.0832 -20.0287 -19.8785 -19.6511
   -19.3522 -18.9816 -18.5456 -18.0385 -17.4852 -17.3170 -17.2693 -17.1455
   -16.9341 -16.8603 -16.6458 -16.3520 -16.1790 -15.9441 -15.5663 -15.5043
   -15.0833 -15.0552 -13.8208 -13.7320 -13.5093 -13.3029 -13.0793 -12.6926
   -12.5928 -12.0636 -12.0419 -11.6004 -11.5418 -11.4949 -11.4535 -11.3737
   -11.3219 -11.0012 -10.8355 -10.7795 -10.4597 -10.0323  -9.8400  -9.7216
    -9.5461  -9.5322  -9.2435  -9.1341  -8.9236  -8.7565  -8.6234  -8.4330
    -8.3436  -8.2191  -8.1356  -8.0512  -7.9819  -7.8613  -7.8282  -7.7434
    -7.6158  -7.5421  -7.3813  -7.2948  -7.2041  -7.1662  -7.0074  -6.9182
    -6.7241  -6.5502  -6.5198  -6.3518  -6.1802  -6.1149  -5.9111  -5.8438
    -5.7711  -5.6030  -5.5549  -5.5205  -5.3696  -5.3323  -5.1611  -4.9258
    -4.9047  -4.8117  -4.7826  -4.6235  -4.3621  -4.1939  -4.0360  -3.6906
    -3.5772  -3.2956  -3.0564  -2.9305  -2.6513  -2.6245   0.6082   0.6197
     0.8982   0.9811   1.3064   1.5587   1.6998   1.8095   1.9974   2.1082
     2.3054   2.4214   2.5892   2.6766   2.7165   2.7948   2.8519   2.9558
     3.0117   3.1602   3.2853   3.3964   3.5031   3.7156   3.7905   3.8379
     3.9829   4.1380   4.2141   4.3646   4.4135   4.4938   4.7785   4.8305
     4.8484   4.8817   5.0225   5.2336   5.2986   5.3407   5.3996   5.4788
     5.5333   5.5770   5.7333   5.7564   5.8676   6.0189   6.0952   6.1849
     6.2444   6.3477   6.4284   6.4829   6.4956   6.5063   6.5707   6.6784
     6.7433   6.8453   6.8660   6.9466   6.9796   7.0187   7.0577   7.1153
     7.1451   7.1868   7.2270   7.2504   7.3563   7.3765   7.4087   7.4202
     7.4491   7.4714   7.5141   7.5370   7.5835   7.6199   7.6271   7.6741
     7.8009   7.8267   7.8662   7.8880   7.9608   8.0004   8.0602   8.1410
     8.1663   8.1998   8.2095   8.2662   8.3191   8.3765   8.4245   8.5173
     8.5273   8.5550   8.5800   8.6196   8.6678   8.6987   8.7558   8.7996
     8.8324   8.8741   8.8980   8.9742   9.0057   9.0224   9.0664   9.0780
     9.1345   9.1591   9.2552   9.2767   9.3814   9.4310   9.4721   9.4852
     9.6396   9.6723   9.7045   9.7278   9.7581   9.7863   9.8469  10.0279
    10.0545  10.0655  10.0826  10.0905  10.1005  10.2065  10.2415  10.2942
    10.3249  10.3306  10.4461  10.5170  10.5451  10.5579  10.6376  10.6559
    10.7887  10.9094  10.9344  10.9718  11.0559  11.1006  11.1278  11.1532
    11.2419  11.2567  11.3122  11.3666  11.4078  11.4280  11.5352  11.5794
    11.6450  11.7711  11.8128  11.8828  11.9131  11.9696  12.0053  12.0576
    12.0833  12.1296  12.1865  12.1894  12.2094  12.2473  12.2901  12.3122
    12.3505  12.3582  12.4309  12.4728  12.5158  12.5208  12.5392  12.5567
    12.6094  12.6287  12.6757  12.6942  12.7428  12.8140  12.8342  12.8658
    12.8965  12.9179  12.9630  13.0098  13.1107  13.1271  13.1786  13.2146
    13.2936  13.3240  13.3725  13.4185  13.4308  13.4833  13.5370  13.5748
    13.6775  13.7285  13.7845  13.8504  13.8693  13.9027  13.9428  13.9845
    14.0248  14.1211  14.1524  14.1667  14.2947  14.3253  14.3555  14.5044
    14.5700  14.5928  14.6377  14.6665  14.6977  14.7636  14.8293  14.8642
    14.9348  14.9597  14.9690  15.0711  15.1707  15.1984  15.2822  15.3377
    15.4085  15.4582  15.4982  15.5270  15.5402  15.5560  15.5636  15.6136
    15.6584  15.6690  15.6783  15.7154  15.7888  15.8105  15.8383  15.8736
    15.9018  15.9371  15.9595  16.0091  16.0489  16.0542  16.0918  16.1256
    16.1390  16.1949  16.2314  16.2599  16.2867  16.3041  16.3708  16.4160
    16.5223  16.5755  16.6306  16.6638  16.6988  16.7323  16.7703  16.7811
    16.8015  16.8479  16.8557  16.8736  16.8799  16.9827  17.0084  17.0863
    17.1340  17.1858  17.2091  17.2577  17.2890  17.3241  17.3279  17.4126
    17.4641  17.4995  17.5308  17.5638  17.6062  17.6271  17.6499  17.6638
    17.7286  17.7785  17.8208  17.8651  17.9010  17.9306  17.9570  17.9762
    18.0356  18.0855  18.1042  18.1386  18.1467  18.1710  18.2495  18.3168
    18.3383  18.3811  18.4306  18.4528  18.5437  18.5689  18.6831  18.6966
    18.7661  18.7874  18.8214  18.8288  18.8477  18.8510  18.8860  18.9073
    18.9455  18.9607  18.9951  19.0548  19.1722  19.2228  19.2730  19.3357
    19.4333  19.4355  19.4805  19.4976  19.5111  19.5441  19.5755  19.6292
    19.6352  19.6855  19.7422  19.7758  19.7933  19.8274  19.8337  19.8971
    19.9153  19.9503  19.9892  20.0111  20.1019  20.1593  20.2443  20.2592
    20.2740  20.3575  20.4388  20.4884  20.5126  20.5428  20.5499  20.6059
    20.6437  20.6721  20.7444  20.7963  20.8477  20.8800  20.9930  21.0083
    21.0401  21.0869  21.1096  21.1688  21.1781  21.2161  21.2950  21.3555
    21.4096  21.4350  21.4452  21.4544

          k = 0.0000 0.0000 0.0657 ( 46580 PWs)   bands (ev):

   -25.2666 -25.2645 -23.6880 -23.6823 -20.0197 -19.9654 -19.8154 -19.5884
   -19.2900 -18.9199 -18.4847 -17.9794 -17.4836 -17.4700 -17.3855 -17.3009
   -17.0872 -16.8605 -16.7505 -16.4850 -16.1504 -16.0801 -15.6369 -15.5350
   -15.1838 -15.0761 -13.8749 -13.7291 -13.5358 -13.3076 -13.0660 -12.7240
   -12.5842 -12.0678 -12.0526 -11.5374 -11.4467 -11.2834 -11.2685 -11.1577
   -11.1280 -11.0330 -10.7923 -10.7032 -10.4916 -10.0796  -9.7003  -9.5805
    -9.5633  -9.4052  -9.1447  -9.0604  -8.9127  -8.6748  -8.5869  -8.4091
    -8.2589  -8.1461  -8.0589  -8.0176  -7.9607  -7.8240  -7.7995  -7.6735
    -7.5466  -7.4896  -7.3575  -7.2846  -7.1926  -7.1286  -6.9881  -6.8942
    -6.7126  -6.6077  -6.5523  -6.3244  -6.2469  -6.2018  -5.9612  -5.9133
    -5.8336  -5.7490  -5.6700  -5.5803  -5.4556  -5.3225  -5.2426  -5.0866
    -5.0188  -4.9777  -4.7889  -4.7321  -4.5269  -4.2125  -4.1401  -3.8390
    -3.5698  -3.4445  -3.0823  -3.0607  -2.7244  -2.7143   0.6400   0.6853
     0.9491   1.0208   1.4600   1.4920   1.8477   1.9251   2.0614   2.2454
     2.3039   2.6432   2.6767   2.8007   2.8625   2.9213   2.9535   3.1091
     3.2187   3.2468   3.3530   3.4799   3.5825   3.6833   3.8583   3.8783
     4.0632   4.2012   4.3001   4.4468   4.4588   4.5003   4.8177   4.8961
     4.9202   4.9510   5.0682   5.2223   5.3067   5.3739   5.3875   5.4181
     5.5913   5.6308   5.7148   5.7972   5.8814   6.0631   6.0964   6.1200
     6.2291   6.2973   6.3613   6.3905   6.4607   6.5074   6.5787   6.6029
     6.6370   6.7333   6.7717   6.8670   6.9035   6.9412   6.9921   7.0186
     7.0762   7.1264   7.1444   7.1926   7.2726   7.2966   7.3678   7.3987
     7.4347   7.4560   7.4950   7.5130   7.5455   7.6138   7.6206   7.6528
     7.6841   7.7083   7.7785   7.8092   7.8485   7.9145   7.9484   7.9788
     8.0038   8.0440   8.0683   8.2498   8.2839   8.3134   8.3408   8.3734
[...]
     5.4179   5.5909   5.6174   5.6882   5.7610   5.7998   5.8428   5.8565
     5.9634   5.9784   6.1482   6.1766   6.2527   6.2631   6.3115   6.3509
     6.3727   6.4053   6.4438   6.4912   6.5188   6.5643   6.5797   6.6218
     6.6388   6.6816   6.7175   6.7348   6.7696   6.8027   6.8348   6.8871
     6.9124   6.9938   7.0270   7.0450   7.0688   7.0989   7.1286   7.1737
     7.2288   7.2836   7.3188   7.3642   7.3931   7.4142   7.4301   7.4511
     7.4656   7.4745   7.5534   7.5741   7.6566   7.7148   7.8070   7.8944
     7.9330   7.9694   8.0288   8.0863   8.1642   8.2305   8.2561   8.3344
     8.3535   8.3940   8.4189   8.4434   8.4728   8.5042   8.5085   8.6039
     8.6821   8.7361   8.9560   9.0275   9.0748   9.0948   9.1455   9.2575
     9.2930   9.3755   9.4024   9.4722   9.4901   9.5168   9.5546   9.6974
     9.7270   9.8006   9.8389   9.8820   9.9182   9.9634  10.0655  10.1117
    10.1596  10.2311  10.3588  10.4595  10.4813  10.5056  10.5600  10.5959
    10.6503  10.6821  10.7380  10.7958  10.8779  10.8913  10.9174  11.0170
    11.0301  11.0720  11.0866  11.1474  11.2473  11.2829  11.2953  11.3737
    11.4404  11.5007  11.5436  11.6281  11.6778  11.7698  11.7968  11.8060
    11.8808  11.9009  11.9150  11.9591  11.9771  12.0320  12.0782  12.1246
    12.1520  12.1931  12.2414  12.2893  12.3560  12.3968  12.4056  12.4676
    12.5667  12.6016  12.6585  12.7142  12.8273  12.8430  12.8661  12.8992
    12.9161  12.9698  12.9745  13.0250  13.0567  13.0902  13.1965  13.2664
    13.3025  13.3573  13.4116  13.4447  13.5580  13.5706  13.6144  13.6486
    13.7078  13.7441  13.7911  13.8427  13.8666  13.9103  13.9266  14.0210
    14.0436  14.1150  14.1961  14.2101  14.2908  14.3117  14.3916  14.4371
    14.5526  14.5874  14.6514  14.6784  14.6936  14.7823  14.8633  14.8970
    15.0137  15.0420  15.0534  15.1098  15.1277  15.1711  15.2114  15.2713
    15.2882  15.3457  15.3565  15.4412  15.4587  15.4867  15.5431  15.5846
    15.6788  15.6984  15.7421  15.8283  15.8801  15.9432  16.0262  16.0623
    16.0806  16.0931  16.1425  16.1838  16.2233  16.2441  16.3908  16.4531
    16.4761  16.5540  16.5705  16.5937  16.6570  16.6640  16.6867  16.8269
    16.8526  16.9282  16.9645  16.9905  17.0469  17.0667  17.0970  17.2384
    17.2467  17.2747  17.3041  17.3675  17.4120  17.4338  17.4701  17.4772
    17.5571  17.5800  17.6426  17.6911  17.7054  17.7575  17.7910  17.7964
    17.8447  17.8636  17.8940  17.9643  17.9822  18.0226  18.0352  18.0912
    18.1017  18.1535  18.1824  18.2259  18.3342  18.3602  18.3921  18.4273
    18.4954  18.5651  18.6156  18.7901  18.8098  18.8535  18.8711  18.9185
    18.9513  19.0175  19.0396  19.0876  19.2324  19.3227  19.3424  19.3605
    19.4426  19.4886  19.5258  19.5530  19.5724  19.6414  19.6649  19.7081
    19.7284  19.7844  19.8041  19.8251  19.8902  19.9370  19.9579  20.0129
    20.0769  20.0972  20.1388  20.1651  20.2174  20.2490  20.3073  20.3512
    20.3954  20.4790  20.5398  20.6075  20.6426  20.6616  20.7139  20.7727
    20.7993  20.8027  20.8257  20.8440  20.8998  20.9593  21.0011  21.0454
    21.1118  21.1397  21.1706  21.1783  21.1925  21.2124  21.2590  21.2717
    21.3369  21.3626  21.4103  21.4130  21.4517  21.5169  21.5619  21.5766
    21.5958  21.6139  21.6308  21.6649  21.7447  21.7816  21.7944  21.8098
    21.8497  21.9247  21.9317  21.9465

          k = 0.0000 0.0000 0.1080 ( 46634 PWs)   bands (ev):

   -24.9803 -24.9795 -24.0780 -24.0748 -19.2413 -19.1921 -19.0465 -18.8332
   -18.7706 -18.7304 -18.5840 -18.5289 -18.3534 -18.1719 -18.0549 -17.7621
   -17.6749 -17.3101 -17.2042 -16.8126 -16.6635 -16.2777 -16.0837 -15.7379
   -15.5254 -15.3335 -14.1143 -13.9439 -13.6453 -13.3761 -13.0103 -12.7506
   -12.4365 -12.1225 -11.9399 -11.5465 -11.4217 -11.2685 -11.1331 -10.8061
   -10.4818 -10.1119  -9.7574  -9.4581  -9.1790  -9.0556  -8.9662  -8.9195
    -8.8832  -8.5369  -8.3644  -8.2575  -8.0881  -8.0467  -7.9883  -7.9349
    -7.8881  -7.8835  -7.7733  -7.7593  -7.6431  -7.5773  -7.4850  -7.4284
    -7.3920  -7.3676  -7.3186  -7.3040  -7.2755  -7.2645  -7.1789  -7.0931
    -7.0119  -6.9451  -6.8316  -6.8090  -6.7362  -6.5930  -6.5256  -6.4911
    -6.4305  -6.3979  -6.3252  -6.2939  -6.1101  -6.0439  -5.9990  -5.8381
    -5.7535  -5.4971  -5.4433  -5.0835  -5.0765  -4.6767  -4.6000  -4.2394
    -4.0959  -3.8111  -3.6172  -3.4582  -3.1543  -3.1136   0.7991   0.8879
     1.0780   1.3324   1.5629   1.9529   2.1496   2.6190   2.7837   2.9006
     3.1446   3.3271   3.4340   3.6203   3.7504   3.8219   3.8711   3.9694
     3.9724   4.1341   4.2810   4.3720   4.4098   4.4502   4.5092   4.5977
     4.6215   4.7061   4.7968   4.8219   4.8824   4.9544   5.0347   5.1196
     5.1573   5.1748   5.2758   5.3068   5.3453   5.3832   5.4871   5.5199
     5.5345   5.5612   5.5975   5.6198   5.7378   5.7908   5.8675   5.9438
     5.9679   6.0200   6.0470   6.0801   6.1650   6.2021   6.2440   6.2770
     6.3816   6.4369   6.4532   6.4901   6.5352   6.5432   6.5773   6.5864
     6.6109   6.6223   6.6622   6.7074   6.7186   6.7438   6.7911   6.8561
     6.8822   6.9031   6.9349   6.9997   7.0289   7.1012   7.1198   7.1584
     7.1919   7.2398   7.2646   7.3154   7.3277   7.3488   7.3967   7.4756
     7.4988   7.5250   7.5356   7.5543   7.5916   7.7246   7.7555   7.8430
     7.8945   7.9565   7.9958   8.0290   8.1000   8.1500   8.2431   8.2633
     8.2760   8.3218   8.4361   8.4953   8.5439   8.5729   8.5952   8.6345
     8.7233   8.7689   8.9198   8.9877   8.9968   9.0764   9.1332   9.1722
     9.2520   9.2608   9.3285   9.3780   9.5503   9.6080   9.6160   9.6702
     9.7245   9.8176   9.8549   9.9471   9.9678  10.0063  10.0668  10.1041
    10.1506  10.1972  10.3053  10.3195  10.3873  10.4750  10.5028  10.5657
    10.6663  10.7117  10.7294  10.7755  10.8146  10.8260  10.8986  11.0267
    11.0592  11.1445  11.1503  11.2700  11.3487  11.3777  11.4054  11.4122
    11.4722  11.5120  11.5792  11.6135  11.6429  11.6947  11.7007  11.7399
    11.8323  11.8584  11.8831  11.9134  11.9395  11.9908  12.0396  12.1037
    12.1394  12.1837  12.2598  12.2657  12.2882  12.3239  12.4042  12.4403
    12.5167  12.5762  12.6974  12.7522  12.7768  12.8328  12.8772  12.9084
    12.9468  12.9701  13.0254  13.0305  13.1312  13.1706  13.2246  13.2917
    13.3312  13.3743  13.4057  13.5065  13.5378  13.5765  13.5930  13.6506
    13.6854  13.7338  13.7607  13.7920  13.8226  13.8484  13.8798  13.8895
    14.1040  14.1140  14.1642  14.2111  14.2689  14.3130  14.3730  14.4651
    14.5120  14.5491  14.6068  14.6192  14.6771  14.8185  14.8834  14.9251
    15.0343  15.0625  15.0878  15.1236  15.1585  15.1631  15.2134  15.2610
    15.2948  15.3149  15.3828  15.4025  15.4537  15.5595  15.6066  15.6401
    15.6698  15.7495  15.7802  15.8198  15.9215  15.9760  15.9928  16.0411
    16.0704  16.1202  16.2137  16.2383  16.2652  16.3084  16.3597  16.3920
    16.4574  16.5025  16.5608  16.6086  16.6543  16.7144  16.7311  16.7944
    16.8568  16.9182  16.9464  16.9766  17.0155  17.0773  17.1233  17.1615
    17.2361  17.2692  17.2870  17.3613  17.3900  17.4310  17.4597  17.4733
    17.5782  17.5953  17.6445  17.6667  17.6967  17.7751  17.8029  17.8124
    17.8688  17.8986  17.9133  17.9489  17.9573  17.9663  17.9949  18.0289
    18.1058  18.1453  18.1715  18.2436  18.3354  18.3754  18.3885  18.4416
    18.5105  18.5237  18.6932  18.7353  18.7638  18.7828  18.8477  18.8981
    18.9101  19.0131  19.1053  19.1855  19.2918  19.3563  19.3622  19.4650
    19.4803  19.5428  19.5879  19.6267  19.6950  19.7190  19.7365  19.7621
    19.8411  19.9052  19.9370  19.9828  20.0017  20.0163  20.0784  20.1006
    20.1690  20.2627  20.3045  20.3317  20.3654  20.3819  20.4212  20.4562
    20.5027  20.5546  20.6479  20.6804  20.8093  20.8372  20.8550  20.8826
    20.9028  20.9513  20.9674  21.0222  21.0466  21.0668  21.0761  21.1227
    21.1348  21.1666  21.1973  21.2391  21.2517  21.2678  21.3206  21.3373
    21.3546  21.3850  21.4007  21.4311  21.4737  21.4859  21.5411  21.5795
    21.5933  21.6049  21.6428  21.6689  21.6984  21.7304  21.7589  21.8169
    21.8234  21.8614  21.8685  21.9234

          k = 0.0000 0.0000 0.1127 ( 46594 PWs)   bands (ev):

   -24.9679 -24.9671 -24.0934 -24.0903 -19.1327 -19.0852 -18.9448 -18.8993
   -18.8466 -18.7393 -18.6781 -18.5009 -18.3991 -18.1982 -18.0435 -17.8332
   -17.6179 -17.4059 -17.1227 -16.9126 -16.5782 -16.3749 -16.0038 -15.8209
   -15.4729 -15.3697 -14.0926 -13.9990 -13.5861 -13.4421 -12.9503 -12.8085
   -12.3893 -12.1613 -11.8979 -11.5516 -11.4181 -11.3082 -11.1201 -10.8496
   -10.4472 -10.1427  -9.7147  -9.4568  -9.0994  -8.9461  -8.8200  -8.7234
    -8.6550  -8.5839  -8.3515  -8.2750  -8.2041  -8.1361  -8.1018  -8.0980
    -7.7794  -7.7650  -7.6813  -7.6456  -7.5779  -7.5242  -7.4641  -7.4422
    -7.4358  -7.4268  -7.4189  -7.3802  -7.3701  -7.3378  -7.2132  -7.0254
    -6.9548  -6.9199  -6.8029  -6.7381  -6.7086  -6.6715  -6.5836  -6.5574
    -6.4859  -6.3683  -6.3321  -6.3094  -6.1371  -6.0874  -6.0758  -5.8455
    -5.7697  -5.5493  -5.4009  -5.1899  -4.9831  -4.7780  -4.5169  -4.3271
    -4.0329  -3.8779  -3.5848  -3.4952  -3.1547  -3.1311   0.8155   0.8630
     1.1321   1.2653   1.6525   1.8518   2.2686   2.5070   2.9083   3.0014
     3.2098   3.2499   3.5088   3.5483   3.7572   3.9001   3.9065   4.0083
     4.1128   4.1879   4.2520   4.3045   4.3996   4.4377   4.4943   4.6014
     4.7047   4.7712   4.7789   4.8557   4.8890   4.9146   5.0354   5.0720
     5.1333   5.2431   5.2753   5.3365   5.3934   5.4202   5.4935   5.5282
     5.6061   5.6522   5.6655   5.6820   5.7266   5.7282   5.8474   5.9416
     5.9855   6.0340   6.0569   6.1117   6.1254   6.1452   6.1972   6.2488
     6.3211   6.3499   6.4226   6.4369   6.5123   6.5219   6.5467   6.5626
     6.5758   6.6129   6.6516   6.6688   6.7261   6.7713   6.7942   6.8234
     6.8512   6.8733   6.9453   6.9856   7.0121   7.0324   7.0833   7.1346
     7.1475   7.1697   7.2109   7.2971   7.3364   7.3600   7.3785   7.4316
     7.4887   7.5195   7.5612   7.5766   7.6357   7.7625   7.7962   7.8142
     7.8616   7.9140   7.9591   7.9729   8.0008   8.1163   8.1381   8.1515
     8.2783   8.3142   8.4807   8.5460   8.5770   8.6517   8.6955   8.7167
     8.7938   8.8180   8.8688   8.9156   8.9486   9.0172   9.0460   9.1180
     9.1500   9.1801   9.3184   9.4347   9.5048   9.6433   9.6587   9.7101
     9.7589   9.7827   9.9003   9.9325   9.9833  10.0793  10.1001  10.1359
    10.1738  10.2200  10.2373  10.2716  10.2993  10.4014  10.4510  10.5121
    10.5943  10.6032  10.6755  10.7635  10.8338  10.9091  10.9702  11.0509
    11.1011  11.2394  11.2636  11.2984  11.3308  11.4129  11.4338  11.4783
    11.4906  11.5135  11.5530  11.5628  11.6190  11.6930  11.7275  11.7419
    11.7635  11.8503  11.8632  11.8768  11.9332  11.9638  11.9894  12.0518
    12.1230  12.1467  12.1755  12.2400  12.2830  12.3985  12.4208  12.4467
    12.4858  12.5651  12.6214  12.7136  12.7557  12.7696  12.8495  12.8649
    13.0210  13.0507  13.1084  13.1335  13.2203  13.2282  13.2623  13.2821
    13.3331  13.3814  13.4424  13.4541  13.5097  13.5186  13.5607  13.6146
    13.6398  13.6791  13.7338  13.7778  13.8249  13.8731  13.9029  13.9178
    14.0269  14.1081  14.1516  14.1826  14.2339  14.3206  14.4038  14.4094
    14.4769  14.5339  14.6213  14.6487  14.7237  14.8518  14.8833  14.9055
    15.0211  15.0422  15.0779  15.0990  15.1477  15.1740  15.1952  15.2495
    15.3036  15.3283  15.3886  15.4636  15.5275  15.6037  15.6365  15.6487
    15.7018  15.7809  15.8139  15.8452  15.8790  15.9196  15.9872  16.0542
    16.0982  16.1163  16.1861  16.2435  16.2631  16.3412  16.3634  16.4057
    16.4813  16.5329  16.5545  16.6422  16.6612  16.7575  16.7714  16.7981
    16.8190  16.8362  16.8862  16.9406  17.0178  17.0365  17.1216  17.1890
    17.2201  17.2778  17.2912  17.3497  17.3899  17.4550  17.4738  17.5065
    17.5869  17.5998  17.6269  17.6603  17.6683  17.7188  17.7652  17.7791
    17.8251  17.8613  17.9108  17.9518  17.9860  17.9934  18.0187  18.0622
    18.1105  18.1836  18.2155  18.2738  18.3011  18.3356  18.3804  18.4605
    18.4882  18.4971  18.5921  18.6644  18.6674  18.7552  18.8746  18.9273
    19.0171  19.0518  19.1103  19.2043  19.3130  19.3781  19.3895  19.4138
    19.5426  19.5831  19.6394  19.6562  19.6774  19.7133  19.7296  19.8396
    19.9300  19.9687  20.0133  20.0758  20.1312  20.1894  20.2620  20.2788
    20.3092  20.3914  20.4094  20.4304  20.4590  20.4636  20.5248  20.5466
    20.5787  20.7022  20.7630  20.7976  20.8687  20.8839  20.9163  20.9466
    20.9905  21.0012  21.0463  21.0962  21.1110  21.1351  21.1720  21.1925
    21.2101  21.2327  21.2587  21.2643  21.2739  21.2822  21.2953  21.3073
    21.3140  21.3781  21.3911  21.4383  21.4426  21.5077  21.5198  21.5392
    21.5623  21.5992  21.6112  21.6383  21.6550  21.6934  21.7072  21.7568
    21.7758  21.8315  21.8912  21.9139

          k = 0.0000 0.0000-0.1174 ( 46576 PWs)   bands (ev):

   -24.9636 -24.9629 -24.0987 -24.0956 -19.0277 -19.0187 -18.9783 -18.9598
   -18.8338 -18.8120 -18.6134 -18.5872 -18.3199 -18.2890 -17.9592 -17.9239
   -17.5340 -17.4950 -17.0404 -16.9990 -16.5005 -16.4559 -15.9349 -15.8908
   -15.4297 -15.4065 -14.0656 -14.0380 -13.5296 -13.5011 -12.8971 -12.8611
   -12.3657 -12.1815 -11.8813 -11.5540 -11.4157 -11.3261 -11.1094 -10.8691
   -10.4317 -10.1572  -9.6973  -9.4605  -9.0758  -8.9154  -8.7102  -8.6701
    -8.5006  -8.4871  -8.4000  -8.3968  -8.2683  -8.2630  -8.1359  -8.1332
    -7.6502  -7.6413  -7.6075  -7.6022  -7.5565  -7.5427  -7.5040  -7.5004
    -7.4816  -7.4619  -7.4402  -7.4195  -7.4078  -7.4004  -7.1158  -7.1137
    -6.8703  -6.8611  -6.8132  -6.7675  -6.7161  -6.6276  -6.6224  -6.5905
    -6.5376  -6.3703  -6.3322  -6.2412  -6.2114  -6.1197  -6.0569  -5.8905
    -5.7162  -5.6122  -5.3211  -5.2753  -4.8859  -4.8787  -4.4291  -4.4171
    -3.9650  -3.9467  -3.5476  -3.5322  -3.1471  -3.1442   0.8372   0.8375
     1.1957   1.1971   1.7494   1.7519   2.3869   2.3905   2.9938   3.0241
     3.2004   3.2287   3.4993   3.5610   3.7923   3.8012   4.0531   4.0574
     4.1453   4.1672   4.2541   4.2580   4.3609   4.3777   4.5863   4.6077
     4.7429   4.7466   4.7927   4.7993   4.9250   4.9644   5.0128   5.0340
     5.1617   5.2103   5.2625   5.2999   5.4476   5.4726   5.5682   5.5730
     5.5891   5.6164   5.6561   5.6658   5.7628   5.7753   5.8444   5.8561
     6.0024   6.0222   6.0947   6.1192   6.1767   6.1952   6.2310   6.2756
     6.2785   6.3008   6.3128   6.3152   6.4593   6.4641   6.5276   6.5399
     6.6631   6.6728   6.6779   6.6984   6.7080   6.7310   6.7717   6.7759
     6.9015   6.9017   6.9459   6.9742   6.9987   7.0259   7.0717   7.0789
     7.0970   7.1472   7.2297   7.2466   7.3580   7.3739   7.4289   7.4380
     7.4712   7.4723   7.5284   7.5656   7.7411   7.7867   7.8172   7.8254
     7.8658   7.8711   7.9274   7.9337   7.9940   8.0183   8.1101   8.1450
     8.2452   8.3340   8.5480   8.5822   8.5933   8.5949   8.7796   8.8009
     8.8031   8.8423   8.8455   8.8854   8.9338   8.9644   9.0470   9.0524
     9.0848   9.1295   9.3942   9.4009   9.5524   9.5871   9.6582   9.6915
     9.7821   9.8224   9.9486   9.9496  10.0058  10.0169  10.1063  10.1457
    10.1720  10.1985  10.2751  10.2953  10.3488  10.3501  10.4012  10.4166
    10.5690  10.5953  10.6258  10.7462  10.8533  10.9008  11.1005  11.1102
    11.1653  11.1845  11.2404  11.2563  11.4088  11.4097  11.4177  11.4324
    11.4911  11.5349  11.5705  11.6038  11.6084  11.6635  11.7113  11.7354
    11.7990  11.8047  11.8856  11.8915  11.9223  11.9623  12.0158  12.0363
    12.0986  12.1049  12.1481  12.1614  12.3187  12.3547  12.4749  12.4974
    12.5299  12.5304  12.6133  12.6456  12.6985  12.7243  12.8645  12.8763
    13.0910  13.0985  13.1625  13.1647  13.1885  13.2187  13.3044  13.3105
    13.3692  13.3759  13.3812  13.4397  13.4975  13.5074  13.5765  13.5954
    13.5987  13.6303  13.7173  13.7302  13.8701  13.9282  13.9347  13.9652
    14.0124  14.0413  14.1074  14.1305  14.3029  14.3375  14.3631  14.3771
    14.4681  14.5231  14.6538  14.6944  14.7812  14.7974  14.8903  14.8974
    15.0064  15.0086  15.0742  15.1168  15.1300  15.1541  15.1885  15.2464
    15.3190  15.3210  15.4579  15.5055  15.5558  15.5578  15.6412  15.6740
    15.7065  15.7574  15.8516  15.8548  15.9132  15.9151  15.9903  16.0033
    16.1025  16.1141  16.1446  16.1794  16.2822  16.3482  16.4431  16.4490
    16.5160  16.5317  16.5608  16.6090  16.6856  16.6873  16.7460  16.8129
    16.8581  16.8850  16.9033  16.9091  16.9446  16.9765  17.1412  17.1699
    17.2702  17.2865  17.3094  17.3203  17.4073  17.4543  17.4836  17.5167
    17.5935  17.5941  17.6572  17.6602  17.6684  17.6736  17.7263  17.7443
    17.7942  17.8316  17.9086  17.9494  17.9976  18.0136  18.0349  18.0943
    18.1770  18.1897  18.2337  18.2494  18.3050  18.3502  18.3822  18.3873
    18.4812  18.4900  18.6059  18.6141  18.6392  18.6909  18.9063  18.9337
    19.0426  19.0708  19.1848  19.2182  19.2907  19.3026  19.4062  19.4109
    19.5716  19.5749  19.6365  19.6502  19.6848  19.7198  19.7361  19.9100
    20.0139  20.0323  20.0514  20.1052  20.1582  20.2090  20.2684  20.2933
    20.3141  20.3915  20.4558  20.4822  20.5378  20.5436  20.6188  20.6950
    20.7404  20.7484  20.7759  20.8332  20.8971  20.9049  20.9115  20.9186
    20.9873  21.0151  21.0241  21.0737  21.1109  21.1153  21.1866  21.2147
    21.2325  21.2387  21.2489  21.2595  21.2759  21.2767  21.3167  21.3228
    21.3482  21.3610  21.4061  21.4386  21.4761  21.4794  21.5045  21.5073
    21.5259  21.5765  21.6016  21.6040  21.7094  21.7152  21.7505  21.7738
    21.8247  21.8448  21.8641  21.8846

     the Fermi energy is    -0.9854 ev

     Writing output data file AGNR_OH_22.save/

     init_run     :     10.34s CPU     10.58s WALL (       1 calls)
     electrons    :   2813.27s CPU   2837.69s WALL (       1 calls)

     Called by init_run:
     wfcinit      :      0.00s CPU      0.01s WALL (       1 calls)
     potinit      :      0.48s CPU      0.52s WALL (       1 calls)
     hinit0       :      8.73s CPU      8.81s WALL (       1 calls)

     Called by electrons:
     c_bands      :   2813.25s CPU   2837.66s WALL (       1 calls)
     v_of_rho     :      0.38s CPU      0.40s WALL (       1 calls)
     newd         :      0.36s CPU      0.44s WALL (       1 calls)

     Called by c_bands:
     init_us_2    :      0.24s CPU      0.29s WALL (      26 calls)
     cegterg      :   2747.85s CPU   2764.81s WALL (      26 calls)

     Called by sum_band:

     Called by *egterg:
     h_psi        :    469.17s CPU    474.62s WALL (     540 calls)
     s_psi        :     56.03s CPU     56.15s WALL (     540 calls)
     g_psi        :      3.77s CPU      3.78s WALL (     488 calls)
     cdiaghg      :   1492.79s CPU   1494.88s WALL (     514 calls)

     Called by h_psi:
     h_psi:pot    :    464.58s CPU    469.06s WALL (     540 calls)
     h_psi:calbec :     54.36s CPU     55.34s WALL (     540 calls)
     vloc_psi     :    353.52s CPU    356.80s WALL (     540 calls)
     add_vuspsi   :     56.69s CPU     56.90s WALL (     540 calls)

     General routines
     calbec       :     54.35s CPU     55.34s WALL (     540 calls)
     fft          :      0.30s CPU      0.33s WALL (      14 calls)
     ffts         :      0.00s CPU      0.00s WALL (       1 calls)
     fftw         :    315.40s CPU    318.39s WALL (  341480 calls)
     interpolate  :      0.02s CPU      0.03s WALL (       1 calls)
     davcio       :      0.00s CPU      6.58s WALL (      52 calls)

     Parallel routines
     fft_scatt_xy :     53.18s CPU     53.66s WALL (  341495 calls)
     fft_scatt_yz :     83.20s CPU     84.07s WALL (  341495 calls)

     PWSCF        : 47m13.84s CPU    50m14.13s WALL


   This run was terminated on:  18:34:56   2Jan2022            

=------------------------------------------------------------------------------=
   JOB DONE.
=------------------------------------------------------------------------------=
