
     Program PWSCF v.6.3 starts on 22Apr2021 at 10:26: 9 

     This program is part of the open-source Quantum ESPRESSO suite
     for quantum simulation of materials; please cite
         "P. Giannozzi et al., J. Phys.:Condens. Matter 21 395502 (2009);
         "P. Giannozzi et al., J. Phys.:Condens. Matter 29 465901 (2017);
          URL http://www.quantum-espresso.org", 
     in publications or presentations arising from this work. More details at
     http://www.quantum-espresso.org/quote

     Parallel version (MPI), running on    16 processors
     R & G space division:  proc/nbgrp/npool/nimage =      16
     Waiting for input...
     Reading input from standard input
     Message from routine read_cards :
     DEPRECATED: no units specified in CELL_PARAMETERS card

     Current dimensions of program PWSCF are:
     Max number of different atomic species (ntypx) = 10
     Max number of k-points (npk) =  40000
     Max angular momentum in pseudopotentials (lmaxx) =  3

     Atomic positions and unit cell read from directory:
     /home/zfwang/scratch/GNRDATASET/AGNR/AGNR_OH_23/AGNR_OH_23.save/


     Subspace diagonalization in iterative solution of the eigenvalue problem:
     a serial algorithm will be used


     Parallelization info
     --------------------
     sticks:   dense  smooth     PW     G-vecs:    dense   smooth      PW
     Min        3335    1111    312               124890    24043    3599
     Max        3337    1113    314               124891    24044    3600
     Sum       53377   17797   5015              1998253   384693   57595



     bravais-lattice index     =            0
     lattice parameter (alat)  =       1.8897  a.u.
     unit-cell volume          =   11254.8048 (a.u.)^3
     number of atoms/cell      =           54
     number of atomic types    =            3
     number of electrons       =       212.00
     number of Kohn-Sham states=          500
     kinetic-energy cutoff     =      40.0000  Ry
     charge density cutoff     =     480.0000  Ry
     Exchange-correlation      = PBE ( 1  4  3  4 0 0)

     celldm(1)=  18.897261  celldm(2)=   3.915000  celldm(3)=   0.426000
     celldm(4)=   0.000000  celldm(5)=   0.000000  celldm(6)=   0.000000

     crystal axes: (cart. coord. in units of alat)
               a(1) = (  10.000000   0.000000   0.000000 )  
               a(2) = (   0.000000  39.150000   0.000000 )  
               a(3) = (   0.000000   0.000000   4.260000 )  

     reciprocal axes: (cart. coord. in units 2 pi/alat)
               b(1) = (  0.100000  0.000000  0.000000 )  
               b(2) = (  0.000000  0.025543  0.000000 )  
               b(3) = (  0.000000  0.000000  0.234742 )  


     PseudoPot. # 1 for C  read from file:
     /home/zfwang/hp_home/MySoftware/qe-6.3/pseudo/C.pbe-n-rrkjus_psl.0.1.UPF
     MD5 check sum: fff530ed632a789b3b184014e67dd7f1
     Pseudo is Ultrasoft + core correction, Zval =  4.0
     Generated using "atomic" code by A. Dal Corso v.5.0.2 svn rev. 9415
     Using radial grid of 1073 points,  4 beta functions with: 
                l(1) =   0
                l(2) =   0
                l(3) =   1
                l(4) =   1
     Q(r) pseudized with 0 coefficients 


     PseudoPot. # 2 for O  read from file:
     /home/zfwang/hp_home/MySoftware/qe-6.3/pseudo/O.pbe-n-rrkjus_psl.0.1.UPF
     MD5 check sum: 73b3d1dec572cf22214b1d95c6304b69
     Pseudo is Ultrasoft + core correction, Zval =  6.0
     Generated using "atomic" code by A. Dal Corso v.6.3MaX
     Using radial grid of 1095 points,  4 beta functions with: 
                l(1) =   0
                l(2) =   0
                l(3) =   1
                l(4) =   1
     Q(r) pseudized with 0 coefficients 


     PseudoPot. # 3 for H  read from file:
     /home/zfwang/hp_home/MySoftware/qe-6.3/pseudo/H.pbe-rrkjus_psl.0.1.UPF
     MD5 check sum: e164a6907b691c6980f16942be34de84
     Pseudo is Ultrasoft, Zval =  1.0
     Generated using "atomic" code by A. Dal Corso v.5.0.2 svn rev. 9415
     Using radial grid of  929 points,  2 beta functions with: 
                l(1) =   0
                l(2) =   0
     Q(r) pseudized with 0 coefficients 


     atomic species   valence    mass     pseudopotential
        C              4.00    12.01070     C ( 1.00)
        O              6.00    18.99840     O ( 1.00)
        H              1.00     1.00794     H ( 1.00)

     No symmetry found



   Cartesian axes

     site n.     atom                  positions (alat units)
         1           C   tau(   1) = (   4.8070491   6.0604324   2.8017777  )
         2           C   tau(   2) = (   4.9448668   7.2409207   3.5496239  )
         3           C   tau(   3) = (   5.1505075   6.0783714   1.4678861  )
         4           C   tau(   4) = (   5.0098187   8.4745618   2.8374936  )
         5           C   tau(   5) = (   5.0147141   9.7104882   3.5504197  )
         6           C   tau(   6) = (   5.0500490   7.2448310   0.7086073  )
         7           C   tau(   7) = (   4.9992238   8.4774300   1.4221407  )
         8           C   tau(   8) = (   5.0057917  10.9402833   2.8419265  )
         9           C   tau(   9) = (   5.0004277  12.1735426   3.5505203  )
        10           C   tau(  10) = (   4.9931732   9.7113847   0.7093473  )
        11           C   tau(  11) = (   4.9972479  10.9407614   1.4181327  )
        12           C   tau(  12) = (   4.9994284  13.4084054   2.8404126  )
        13           C   tau(  13) = (   4.9997726  14.6405285   3.5487696  )
        14           C   tau(  14) = (   4.9994123  12.1736047   0.7097009  )
        15           C   tau(  15) = (   5.0000518  13.4087050   1.4197222  )
        16           C   tau(  16) = (   5.0000437  15.8737619   2.8399249  )
        17           C   tau(  17) = (   5.0001746  17.1079922   3.5493499  )
        18           C   tau(  18) = (   5.0003457  14.6404430   0.7112307  )
        19           C   tau(  19) = (   5.0004000  15.8740660   1.4199877  )
        20           C   tau(  20) = (   5.0002243  18.3406655   2.8408858  )
        21           C   tau(  21) = (   5.0001950  19.5747615   3.5498549  )
        22           C   tau(  22) = (   5.0002726  17.1081527   0.7105791  )
        23           C   tau(  23) = (   5.0001793  18.3406041   1.4190872  )
        24           C   tau(  24) = (   5.0001801  20.8092991   2.8408481  )
        25           C   tau(  25) = (   5.0002779  22.0419284   3.5492241  )
        26           C   tau(  26) = (   5.0001960  19.5751549   0.7100850  )
        27           C   tau(  27) = (   5.0002249  20.8093435   1.4190362  )
        28           C   tau(  28) = (   5.0004010  23.2761051   2.8395526  )
        29           C   tau(  29) = (   5.0003208  24.5097255   3.5478237  )
        30           C   tau(  30) = (   5.0001749  22.0420128   0.7104908  )
        31           C   tau(  31) = (   5.0000428  23.2763469   1.4195866  )
        32           C   tau(  32) = (   5.0000146  25.7413694   2.8387453  )
        33           C   tau(  33) = (   4.9994589  26.9765585   3.5480992  )
        34           C   tau(  34) = (   4.9997655  24.5096616   0.7102871  )
        35           C   tau(  35) = (   4.9994136  25.7417592   1.4180702  )
        36           C   tau(  36) = (   4.9974293  28.2092470   2.8387508  )
        37           C   tau(  37) = (   4.9933332  29.4388549   3.5464972  )
        38           C   tau(  38) = (   5.0004516  26.9763979   0.7072796  )
        39           C   tau(  39) = (   5.0059184  28.2097846   1.4149602  )
        40           C   tau(  40) = (   4.9991562  30.6727826   2.8328219  )
        41           C   tau(  41) = (   5.0496397  31.9056120   3.5453279  )
        42           C   tau(  42) = (   5.0148331  29.4394279   0.7055203  )
        43           C   tau(  43) = (   5.0097041  30.6755418   1.4173227  )
        44           C   tau(  44) = (   5.1492657  33.0718630   2.7850422  )
        45           C   tau(  45) = (   4.9446295  31.9086905   0.7042136  )
        46           C   tau(  46) = (   4.8067148  33.0893112   1.4508589  )
        47           O   tau(  47) = (   4.4084260   4.8107414   3.1839720  )
        48           O   tau(  48) = (   5.5305257   4.8217717   1.0138132  )
        49           O   tau(  49) = (   5.5296943  34.3292874   3.2366407  )
        50           O   tau(  50) = (   4.4102621  34.3387891   1.0662499  )
        51           H   tau(  51) = (   5.2550578   4.2500854   1.7860153  )
        52           H   tau(  52) = (   4.7956124   4.5940375   4.0991813  )
        53           H   tau(  53) = (   4.7990833  34.5548604   0.1506415  )
        54           H   tau(  54) = (   5.2524228  34.8989933   2.4626655  )

     number of k points=    26  Marzari-Vanderbilt smearing, width (Ry)=  0.0100
                       cart. coord. in units 2pi/alat
        k(    1) = (   0.0000000   0.0000000   0.0000000), wk =   0.0400000
        k(    2) = (   0.0000000   0.0000000   0.0046948), wk =   0.0800000
        k(    3) = (   0.0000000   0.0000000   0.0093897), wk =   0.0800000
        k(    4) = (   0.0000000   0.0000000   0.0140845), wk =   0.0800000
        k(    5) = (   0.0000000   0.0000000   0.0187793), wk =   0.0800000
        k(    6) = (   0.0000000   0.0000000   0.0234742), wk =   0.0800000
        k(    7) = (   0.0000000   0.0000000   0.0281690), wk =   0.0800000
        k(    8) = (   0.0000000   0.0000000   0.0328638), wk =   0.0800000
        k(    9) = (   0.0000000   0.0000000   0.0375587), wk =   0.0800000
        k(   10) = (   0.0000000   0.0000000   0.0422535), wk =   0.0800000
        k(   11) = (   0.0000000   0.0000000   0.0469484), wk =   0.0800000
        k(   12) = (   0.0000000   0.0000000   0.0516432), wk =   0.0800000
        k(   13) = (   0.0000000   0.0000000   0.0563380), wk =   0.0800000
        k(   14) = (   0.0000000   0.0000000   0.0610329), wk =   0.0800000
        k(   15) = (   0.0000000   0.0000000   0.0657277), wk =   0.0800000
        k(   16) = (   0.0000000   0.0000000   0.0704225), wk =   0.0800000
        k(   17) = (   0.0000000   0.0000000   0.0751174), wk =   0.0800000
        k(   18) = (   0.0000000   0.0000000   0.0798122), wk =   0.0800000
        k(   19) = (   0.0000000   0.0000000   0.0845070), wk =   0.0800000
        k(   20) = (   0.0000000   0.0000000   0.0892019), wk =   0.0800000
        k(   21) = (   0.0000000   0.0000000   0.0938967), wk =   0.0800000
        k(   22) = (   0.0000000   0.0000000   0.0985915), wk =   0.0800000
        k(   23) = (   0.0000000   0.0000000   0.1032864), wk =   0.0800000
        k(   24) = (   0.0000000   0.0000000   0.1079812), wk =   0.0800000
        k(   25) = (   0.0000000   0.0000000   0.1126761), wk =   0.0800000
        k(   26) = (   0.0000000   0.0000000  -0.1173709), wk =   0.0400000

     Dense  grid:  1998253 G-vectors     FFT dimensions: ( 135, 540,  60)

     Smooth grid:   384693 G-vectors     FFT dimensions: (  80, 300,  36)

     Estimated max dynamical RAM per process >     547.61 MB

     Estimated total dynamical RAM >       8.56 GB

     Check: negative/imaginary core charge=   -0.000005    0.000000

     The potential is recalculated from file :
     /home/zfwang/scratch/GNRDATASET/AGNR/AGNR_OH_23/AGNR_OH_23.save/charge-density.dat


     negative rho (up, down):  9.318E-04 0.000E+00
     Starting wfcs are  204 randomized atomic wfcs +  296 random wfcs

     Band Structure Calculation
     Davidson diagonalization with overlap

     ethr =  4.72E-09,  avg # of iterations = 18.8

     total cpu time spent up to now is     2907.8 secs

     End of band structure calculation

          k = 0.0000 0.0000 0.0000 ( 47959 PWs)   bands (ev):

   -25.5279 -25.5248 -23.2505 -23.2449 -20.4624 -20.4155 -20.2759 -20.0677
   -19.7891 -19.4476 -19.0438 -18.5790 -18.0497 -17.4757 -16.8639 -16.2359
   -15.6395 -15.2292 -15.2034 -15.1569 -15.0655 -14.9237 -14.7789 -14.6830
   -14.4233 -14.3867 -14.1822 -14.0884 -14.0538 -14.0309 -13.8254 -13.7799
   -13.6568 -13.4890 -13.4805 -13.2384 -12.8512 -12.5808 -12.3338 -11.9790
   -11.7871 -11.7294 -11.4150 -11.2473 -11.2386 -10.9622 -10.6887 -10.6464
   -10.4739 -10.0284 -10.0068  -9.9627  -9.4450  -9.3964  -9.3337  -8.9609
    -8.8486  -8.7912  -8.7507  -8.6016  -8.5007  -8.3346  -8.3180  -8.2409
    -8.1161  -7.9818  -7.8508  -7.8032  -7.7604  -7.5476  -7.4783  -7.3666
    -7.3177  -7.0950  -6.9313  -6.7002  -6.6071  -6.4308  -6.2359  -6.0291
    -5.8424  -5.8168  -5.4874  -5.4629  -5.3134  -5.0580  -5.0424  -4.7503
    -4.6583  -4.5366  -4.3086  -4.1573  -4.1007  -4.0598  -3.4163  -3.2470
    -3.1602  -2.9781  -2.7271  -2.7124  -2.3750  -2.0485  -1.9664  -1.4938
    -1.4180  -0.9541  -0.8455  -0.3921  -0.3339  -0.0535   0.2065   0.3288
     0.4149   0.5746   0.6831   0.7477   1.0354   1.2179   1.4635   1.7905
     2.0623   2.1730   2.2556   2.5467   2.6366   2.6523   2.8417   2.9919
     3.1952   3.2665   3.3143   3.4729   3.5056   3.6926   3.8398   3.8841
     4.0510   4.0785   4.2646   4.3093   4.3276   4.3879   4.7606   4.7802
     4.9237   4.9308   5.0108   5.0584   5.1016   5.2766   5.2827   5.5554
     5.6711   5.6984   5.7993   5.8750   6.1447   6.3518   6.3629   6.5423
     6.5642   6.6388   6.6569   6.7036   6.7773   6.8831   6.9813   6.9982
     7.0386   7.2309   7.2693   7.4002   7.4190   7.4839   7.5079   7.5396
     7.5798   7.6645   7.7013   7.7542   7.8585   7.9056   7.9131   7.9513
     7.9712   8.0629   8.1021   8.1411   8.3041   8.5139   8.5260   8.5532
     8.5972   8.7910   8.8363   8.8484   8.8837   9.0249   9.0575   9.1250
     9.2083   9.3683   9.3864   9.4275   9.4359   9.5809   9.5878   9.5908
     9.6251   9.6411   9.6538   9.7457   9.7559   9.7992   9.8344   9.8599
     9.9362   9.9582  10.0140  10.0415  10.0425  10.0747  10.0789  10.0956
    10.1119  10.1711  10.1985  10.2010  10.2306  10.2772  10.3160  10.3361
    10.3778  10.3892  10.3946  10.4470  10.4800  10.4829  10.5040  10.6227
    10.6424  10.6802  10.7089  10.7316  10.8551  10.8601  10.8629  10.8765
    10.9180  10.9294  11.0580  11.1000  11.1086  11.1281  11.1701  11.2022
    11.2298  11.2750  11.3058  11.3273  11.3615  11.3636  11.4104  11.4706
    11.4754  11.4832  11.5053  11.5082  11.5270  11.6219  11.6240  11.6918
    11.6978  11.7192  11.7379  11.7431  11.7691  11.7742  11.7901  11.8340
    11.8518  11.9082  11.9329  11.9457  11.9548  11.9584  11.9999  12.0426
    12.0433  12.0510  12.0851  12.1255  12.1467  12.1770  12.3009  12.3081
    12.3130  12.3237  12.3480  12.3679  12.3999  12.4089  12.4980  12.5803
    12.6179  12.6283  12.6506  12.6741  12.7244  12.7315  12.7430  12.8024
    12.8564  12.8617  12.9750  12.9849  13.0307  13.0423  13.0951  13.1941
    13.2116  13.2642  13.2651  13.2888  13.3044  13.3523  13.4452  13.4728
    13.4881  13.5308  13.6345  13.6394  13.7039  13.7473  13.8280  13.8289
    13.8821  13.9024  13.9416  13.9682  14.0310  14.1865  14.2100  14.2501
    14.3198  14.3513  14.4108  14.4308  14.4322  14.4367  14.4853  14.5884
    14.6095  14.6229  14.6464  14.6713  14.7509  14.8390  14.8879  14.9018
    14.9340  15.0167  15.0672  15.0924  15.1437  15.1937  15.2302  15.2576
    15.3048  15.4138  15.4393  15.4622  15.5204  15.5471  15.6148  15.6327
    15.6650  15.6732  15.7267  15.8500  15.8585  15.8880  15.9231  16.0094
    16.0256  16.0876  16.1115  16.1414  16.1671  16.2266  16.2849  16.3107
    16.3415  16.3792  16.3912  16.4352  16.4640  16.4713  16.5321  16.5484
    16.5641  16.5671  16.5819  16.6407  16.7175  16.7425  16.7936  16.8274
    16.8317  16.9809  17.0700  17.0830  17.1178  17.1567  17.2454  17.2849
    17.3144  17.3809  17.3906  17.4081  17.4146  17.4512  17.4606  17.5117
    17.5443  17.5485  17.5754  17.5754  17.6087  17.6466  17.7178  17.7457
    17.8637  17.8984  17.9335  17.9882  18.0227  18.1025  18.1246  18.1575
    18.1747  18.2257  18.2489  18.2557  18.2644  18.3239  18.3570  18.4396
    18.4744  18.4947  18.5088  18.5197  18.5496  18.5840  18.5937  18.5951
    18.5989  18.6711  18.6833  18.6840  18.7072  18.7077  18.7593  18.7701
    18.7762  18.8092  18.8310  18.8731  18.9014  18.9111  18.9291  18.9700
    19.1375  19.1408  19.1486  19.1948  19.2086  19.2179  19.3144  19.3543
    19.4302  19.4550  19.4762  19.5031  19.5851  19.5880  19.6856  19.7316
    19.7499  19.8286  19.9705  20.0214  20.0569  20.0729  20.1190  20.1657
    20.1917  20.2118  20.2628  20.2954

          k = 0.0000 0.0000 0.0047 ( 47953 PWs)   bands (ev):

   -25.5265 -25.5233 -23.2531 -23.2475 -20.4600 -20.4132 -20.2736 -20.0654
   -19.7868 -19.4453 -19.0415 -18.5767 -18.0475 -17.4735 -16.8618 -16.2340
   -15.6401 -15.2765 -15.2595 -15.1529 -15.1042 -14.9516 -14.7928 -14.6936
   -14.4454 -14.3845 -14.1427 -14.0919 -14.0249 -14.0210 -13.8156 -13.7611
   -13.6566 -13.4530 -13.4184 -13.2421 -12.8610 -12.5864 -12.3382 -11.9861
   -11.7832 -11.7215 -11.4165 -11.2463 -11.2281 -10.9508 -10.6877 -10.6518
   -10.4612 -10.0273 -10.0152  -9.9502  -9.4462  -9.3913  -9.3326  -8.9638
    -8.8422  -8.7925  -8.7433  -8.6035  -8.4980  -8.3333  -8.3166  -8.2356
    -8.1143  -7.9849  -7.8529  -7.8007  -7.7537  -7.5457  -7.4750  -7.3644
    -7.3258  -7.0892  -6.9285  -6.7007  -6.6077  -6.4326  -6.2306  -6.0286
    -5.8531  -5.8104  -5.4870  -5.4626  -5.3131  -5.0833  -5.0239  -4.7485
    -4.6685  -4.5371  -4.3173  -4.1611  -4.0995  -4.0681  -3.4155  -3.2629
    -3.1762  -2.9948  -2.7360  -2.7217  -2.3939  -2.0540  -1.9870  -1.5266
    -1.4314  -1.0695  -0.7312  -0.3625  -0.3196  -0.0309   0.2271   0.3302
     0.4350   0.5943   0.7027   0.7672   1.0332   1.2213   1.4669   1.7867
     2.0655   2.1762   2.2589   2.5453   2.6365   2.6554   2.8448   2.9949
     3.1983   3.2663   3.3171   3.4718   3.5087   3.6958   3.8429   3.8873
     4.0498   4.0808   4.2678   4.3091   4.3306   4.3906   4.7635   4.7832
     4.9259   4.9339   5.0103   5.0586   5.1036   5.2792   5.2853   5.5540
     5.6741   5.7013   5.8020   5.8770   6.1423   6.3521   6.3659   6.5408
     6.5659   6.6411   6.6582   6.7044   6.7791   6.8833   6.9753   6.9947
     7.0367   7.2303   7.2720   7.4086   7.4186   7.4825   7.5031   7.5467
     7.5731   7.6662   7.6991   7.7568   7.8586   7.9025   7.9142   7.9495
     7.9686   8.0534   8.0965   8.1456   8.2920   8.4925   8.5191   8.5570
     8.6083   8.7875   8.8191   8.8335   8.8839   9.0241   9.0644   9.1134
     9.2215   9.3608   9.3867   9.4047   9.4176   9.5462   9.5742   9.5881
     9.5947   9.6598   9.6643   9.7516   9.7597   9.7908   9.7934   9.8030
     9.8281   9.8424   9.9438   9.9696  10.0088  10.0293  10.0474  10.0826
    10.1200  10.1491  10.1874  10.1951  10.2748  10.3064  10.3394  10.3757
    10.3907  10.3974  10.4165  10.4376  10.4618  10.5383  10.5750  10.6195
    10.6387  10.6510  10.7065  10.7377  10.7910  10.8442  10.8501  10.9055
    10.9439  11.0094  11.0664  11.0792  11.0907  11.1174  11.1403  11.1612
    11.1684  11.2064  11.2232  11.3281  11.3537  11.3819  11.3970  11.4527
    11.4889  11.5103  11.5258  11.5538  11.5796  11.6043  11.6367  11.6722
    11.6794  11.7225  11.7404  11.7482  11.7823  11.8059  11.8306  11.8738
    11.8959  11.9186  11.9356  11.9587  11.9826  12.0235  12.0378  12.0563
    12.0719  12.0890  12.1052  12.1233  12.1470  12.1632  12.2905  12.3058
    12.3145  12.3198  12.3595  12.3731  12.3877  12.3938  12.4309  12.4403
    12.5298  12.5674  12.6038  12.6867  12.7231  12.7475  12.7553  12.8154
    12.8997  12.9134  12.9706  13.0350  13.0523  13.0876  13.1210  13.1930
    13.2336  13.2677  13.2904  13.3125  13.3494  13.3927  13.3944  13.4578
    13.4772  13.5316  13.6129  13.6392  13.6823  13.7447  13.8348  13.8494
    13.8814  13.8933  13.9576  14.0209  14.0524  14.1750  14.2161  14.2686
    14.3047  14.3739  14.3921  14.4261  14.4941  14.5092  14.5276  14.5979
    14.6222  14.6318  14.6601  14.6702  14.7187  14.8098  14.8514  14.9070
    14.9194  14.9670  15.0355  15.1236  15.1556  15.1985  15.2249  15.2505
    15.3489  15.3886  15.4237  15.4597  15.5119  15.5542  15.5958  15.6120
    15.7046  15.7222  15.7405  15.7690  15.8277  15.9029  15.9438  15.9947
    16.0659  16.0950  16.1099  16.1276  16.1719  16.1889  16.2354  16.2476
    16.3263  16.3755  16.3859  16.4183  16.4305  16.4806  16.5851  16.5897
    16.6341  16.6513  16.6942  16.7281  16.7475  16.7590  16.7851  16.8468
    16.8678  16.9412  16.9878  17.0806  17.1214  17.1831  17.2273  17.2546
    17.3151  17.3422  17.3914  17.4089  17.4407  17.4547  17.4811  17.5056
    17.5223  17.5471  17.5670  17.6002  17.6327  17.6696  17.7046  17.7455
    17.8378  17.8820  17.9198  17.9645  18.0005  18.0841  18.1030  18.1818
    18.1982  18.2278  18.2539  18.2727  18.2790  18.2915  18.3529  18.3640
    18.4457  18.4788  18.4950  18.4991  18.5499  18.5530  18.5739  18.5953
    18.6108  18.6333  18.6814  18.7081  18.7162  18.7244  18.7639  18.7793
    18.8012  18.8400  18.8486  18.9125  18.9333  18.9569  18.9642  19.0256
    19.0762  19.1091  19.1762  19.1820  19.2004  19.2318  19.3044  19.3552
    19.4162  19.4643  19.4779  19.4872  19.5792  19.6013  19.6329  19.7532
    19.7644  19.8789  19.9601  20.0062  20.0426  20.1100  20.1429  20.1608
    20.1875  20.2194  20.2760  20.2995

          k = 0.0000 0.0000 0.0094 ( 47973 PWs)   bands (ev):

   -25.5221 -25.5190 -23.2610 -23.2554 -20.4529 -20.4061 -20.2665 -20.0584
   -19.7798 -19.4383 -19.0346 -18.5698 -18.0407 -17.4668 -16.8554 -16.2286
   -15.6442 -15.3895 -15.3729 -15.2383 -15.1589 -15.0132 -14.8738 -14.6900
   -14.5377 -14.3456 -14.1719 -14.0435 -13.9644 -13.9274 -13.8260 -13.6847
   -13.5773 -13.3555 -13.3076 -13.2464 -12.8900 -12.6023 -12.3503 -12.0085
   -11.7709 -11.6963 -11.4308 -11.2371 -11.1920 -10.9243 -10.6879 -10.6572
   -10.4269 -10.0332 -10.0278  -9.9162  -9.4524  -9.3803  -9.3240  -8.9701
    -8.8265  -8.7935  -8.7250  -8.6066  -8.4901  -8.3287  -8.3113  -8.2240
    -8.1087  -7.9925  -7.8562  -7.7934  -7.7357  -7.5399  -7.4660  -7.3731
    -7.3326  -7.0730  -6.9194  -6.7103  -6.6039  -6.4341  -6.2187  -6.0282
    -5.8729  -5.8018  -5.4864  -5.4619  -5.3133  -5.1190  -5.0080  -4.7436
    -4.6963  -4.5411  -4.3428  -4.1731  -4.1025  -4.0865  -3.4131  -3.3095
    -3.2235  -3.0435  -2.7846  -2.7264  -2.4487  -2.0786  -2.0377  -1.6131
    -1.4729  -1.2265  -0.5773  -0.2903  -0.2704   0.0339   0.2871   0.3346
     0.4937   0.6525   0.7604   0.8248   1.0264   1.2316   1.4773   1.7751
     2.0752   2.1856   2.2687   2.5392   2.6381   2.6649   2.8541   3.0041
     3.2077   3.2648   3.3257   3.4692   3.5177   3.7054   3.8524   3.8968
     4.0455   4.0877   4.2771   4.3092   4.3398   4.3987   4.7723   4.7920
     4.9321   4.9433   5.0072   5.0615   5.1094   5.2872   5.2929   5.5500
     5.6830   5.7101   5.8100   5.8831   6.1355   6.3532   6.3747   6.5354
     6.5707   6.6467   6.6634   6.7072   6.7843   6.8835   6.9580   6.9844
     7.0306   7.2283   7.2794   7.4177   7.4329   7.4804   7.4933   7.5530
     7.5644   7.6601   7.7013   7.7645   7.8596   7.8883   7.9129   7.9511
     7.9642   8.0144   8.0966   8.1564   8.2531   8.4524   8.4899   8.5664
     8.6317   8.7350   8.7762   8.8268   8.8888   9.0159   9.0757   9.0929
     9.2502   9.2676   9.3655   9.3820   9.4090   9.4269   9.4838   9.5281
     9.5932   9.5985   9.6062   9.6501   9.6973   9.7037   9.7181   9.7695
     9.7856   9.8075   9.8172   9.9067   9.9554   9.9880  10.0171  10.0449
    10.0915  10.1093  10.1441  10.1718  10.2105  10.2482  10.2787  10.3425
    10.3514  10.3993  10.4088  10.4302  10.4693  10.5648  10.5789  10.6540
    10.6986  10.7171  10.7298  10.7561  10.7673  10.8298  10.8585  10.8984
    10.9323  10.9429  10.9699  11.0334  11.0558  11.0588  11.1017  11.1485
    11.1728  11.2352  11.2954  11.3211  11.3600  11.3890  11.3950  11.4480
    11.4538  11.4900  11.5438  11.5582  11.5812  11.6088  11.6744  11.6925
    11.7144  11.7360  11.7555  11.7952  11.8158  11.8407  11.8577  11.9208
    11.9441  11.9517  11.9774  12.0001  12.0299  12.0443  12.0608  12.1110
    12.1256  12.1353  12.1448  12.1637  12.1757  12.1960  12.2325  12.2581
    12.2773  12.3168  12.3258  12.3327  12.3409  12.3965  12.4376  12.4785
    12.4979  12.5172  12.5655  12.6556  12.6958  12.7108  12.7363  12.7563
    12.8278  12.9495  13.0408  13.0640  13.1393  13.1562  13.2016  13.2068
    13.2614  13.2885  13.3198  13.3325  13.3539  13.3903  13.4629  13.4836
    13.5285  13.5751  13.6156  13.6524  13.6670  13.6928  13.7784  13.8156
    13.8806  14.0323  14.0426  14.0745  14.1410  14.1738  14.2311  14.2795
    14.3263  14.3317  14.4322  14.4965  14.5222  14.5382  14.5640  14.6069
    14.6427  14.6859  14.6915  14.7252  14.7761  14.7896  14.8099  14.8811
    14.9143  14.9441  14.9986  15.1046  15.1372  15.1504  15.1953  15.2085
    15.3235  15.3342  15.4704  15.5090  15.5416  15.5735  15.5834  15.6234
    15.6540  15.7075  15.7812  15.7959  15.8515  15.8594  15.8776  15.9480
    15.9851  16.0117  16.0736  16.1343  16.1454  16.1973  16.2745  16.3300
    16.3509  16.3816  16.4548  16.4740  16.5269  16.5367  16.6021  16.6466
    16.6811  16.6988  16.7346  16.7572  16.7646  16.7875  16.8334  16.9178
    16.9562  16.9913  17.0299  17.1015  17.1302  17.1461  17.2116  17.2467
    17.2743  17.2869  17.3034  17.3306  17.4073  17.4789  17.5127  17.5195
    17.5498  17.5634  17.5968  17.6424  17.6501  17.6964  17.7089  17.7910
    17.8136  17.8402  17.8899  17.9537  17.9887  18.0249  18.0620  18.0832
    18.1479  18.1545  18.2054  18.2617  18.2917  18.3111  18.3486  18.4052
    18.4237  18.4373  18.4625  18.4807  18.5276  18.5595  18.5634  18.5728
    18.5997  18.6451  18.6768  18.6890  18.7121  18.7569  18.7732  18.7842
    18.7875  18.8757  18.8880  18.9210  18.9794  19.0099  19.0193  19.0343
    19.0919  19.1355  19.1778  19.2004  19.2509  19.2632  19.3188  19.3588
    19.3745  19.4456  19.5346  19.5579  19.5905  19.6149  19.6343  19.7402
    19.8013  19.8280  19.9076  20.0207  20.0637  20.1229  20.1908  20.2272
    20.2504  20.2731  20.3281  20.3588

          k = 0.0000 0.0000 0.0141 ( 47979 PWs)   bands (ev):

   -25.5148 -25.5117 -23.2740 -23.2685 -20.4411 -20.3943 -20.2548 -20.0466
   -19.7681 -19.4267 -19.0231 -18.5584 -18.0294 -17.4557 -16.8447 -16.2198
   -15.6643 -15.5344 -15.5071 -15.3768 -15.2642 -15.0578 -14.9995 -14.7159
   -14.6342 -14.3463 -14.2380 -13.9889 -13.9276 -13.7935 -13.7226 -13.5577
   -13.4448 -13.2954 -13.1938 -13.1719 -12.9360 -12.6267 -12.3666 -12.0453
   -11.7501 -11.6535 -11.4657 -11.2169 -11.1226 -10.9066 -10.6916 -10.6361
   -10.3841 -10.0468 -10.0332  -9.8685  -9.4626  -9.3781  -9.2951  -8.9773
    -8.8063  -8.7901  -8.7036  -8.6036  -8.4768  -8.3197  -8.3007  -8.2163
    -8.0985  -7.9976  -7.8557  -7.7811  -7.7101  -7.5300  -7.4591  -7.4066
    -7.3130  -7.0502  -6.9042  -6.7385  -6.5889  -6.4292  -6.2084  -6.0308
    -5.8907  -5.7957  -5.4868  -5.4617  -5.3165  -5.1548  -5.0017  -4.7483
    -4.7249  -4.5522  -4.3838  -4.1940  -4.1411  -4.0834  -3.4094  -3.3841
    -3.2990  -3.1212  -2.8652  -2.7310  -2.5344  -2.1597  -2.0737  -1.7347
    -1.5390  -1.3866  -0.4220  -0.2252  -0.1586   0.1337   0.3416   0.3825
     0.5875   0.7459   0.8535   0.9178   1.0155   1.2488   1.4946   1.7561
     2.0913   2.2012   2.2850   2.5246   2.6456   2.6806   2.8696   3.0193
     3.2233   3.2595   3.3401   3.4678   3.5325   3.7214   3.8682   3.9127
     4.0363   4.0993   4.2925   4.3118   4.3551   4.4119   4.7870   4.8065
     4.9397   4.9586   5.0001   5.0714   5.1188   5.3009   5.3055   5.5436
     5.6976   5.7244   5.8229   5.8936   6.1245   6.3549   6.3890   6.5244
     6.5774   6.6532   6.6754   6.7129   6.7916   6.8816   6.9308   6.9694
     7.0195   7.2249   7.2902   7.4183   7.4685   7.4810   7.4850   7.5292
     7.5834   7.6328   7.7184   7.7755   7.8502   7.8639   7.9087   7.9458
     7.9635   7.9716   8.1074   8.1654   8.1879   8.4098   8.4446   8.5742
     8.6152   8.6642   8.7413   8.8224   8.8965   8.9727   9.0617   9.0790
     9.1436   9.1991   9.2313   9.2753   9.3120   9.3532   9.3905   9.4224
     9.4560   9.4854   9.5620   9.6112   9.6261   9.6410   9.6806   9.7682
     9.7963   9.8082   9.8272   9.8414   9.8522   9.9233   9.9822   9.9935
    10.0084  10.0362  10.0568  10.0789  10.1393  10.2066  10.2363  10.3218
    10.3223  10.3547  10.3848  10.3966  10.4252  10.4406  10.5005  10.5199
    10.5996  10.6434  10.6499  10.6822  10.6923  10.6979  10.9007  10.9224
    10.9721  11.0176  11.0266  11.0828  11.0954  11.1119  11.1570  11.1776
    11.1914  11.2302  11.2951  11.3197  11.3266  11.3656  11.4040  11.4365
    11.5333  11.5685  11.5835  11.5925  11.6221  11.6512  11.6671  11.7008
    11.7237  11.7622  11.7713  11.7955  11.8035  11.8404  11.8470  11.9039
    11.9353  11.9389  11.9567  11.9729  12.0081  12.0329  12.0824  12.0934
    12.1247  12.1456  12.1837  12.1923  12.2117  12.2547  12.2669  12.3091
    12.3273  12.3714  12.3892  12.3961  12.4152  12.4370  12.4385  12.4768
    12.5041  12.5752  12.6099  12.6333  12.6434  12.7057  12.7496  12.7659
    12.8788  12.9313  12.9585  12.9757  13.1002  13.1353  13.1983  13.2434
    13.2779  13.3133  13.3223  13.4029  13.4304  13.4520  13.4932  13.5060
    13.5781  13.5853  13.6304  13.6733  13.7559  13.7744  13.8546  13.9008
    13.9269  14.0461  14.0842  14.1524  14.1642  14.2318  14.2604  14.2846
    14.3422  14.3657  14.4225  14.4750  14.5008  14.5818  14.6453  14.6599
    14.6800  14.6971  14.7594  14.7753  14.7961  14.8624  14.8960  14.9016
    14.9418  14.9481  15.0020  15.0259  15.0825  15.1084  15.1195  15.1743
    15.2865  15.3198  15.5107  15.5255  15.5565  15.5871  15.5903  15.6092
    15.6280  15.6704  15.7160  15.7738  15.7814  15.8020  15.8613  15.8870
    15.9435  16.0667  16.1433  16.1749  16.1810  16.2775  16.3285  16.3736
    16.4268  16.4836  16.4959  16.5439  16.5745  16.5939  16.6274  16.6576
    16.6700  16.6807  16.7494  16.7677  16.8039  16.8543  16.9064  16.9495
    16.9959  17.0315  17.0546  17.1016  17.1490  17.1617  17.1843  17.2494
    17.2575  17.2791  17.3473  17.3597  17.4361  17.4605  17.4895  17.5468
    17.5615  17.5862  17.5981  17.6259  17.6482  17.6713  17.7265  17.7712
    17.8270  17.8533  17.8805  17.9272  17.9639  17.9790  18.0051  18.0754
    18.0950  18.1303  18.1806  18.2409  18.2471  18.2993  18.3316  18.3618
    18.3767  18.3981  18.4203  18.4554  18.4920  18.5427  18.5620  18.5853
    18.6144  18.6281  18.6469  18.6911  18.7118  18.7544  18.7808  18.7877
    18.8147  18.8526  18.8668  18.9343  18.9468  19.0459  19.0539  19.0747
    19.1437  19.2064  19.2308  19.2595  19.2798  19.2953  19.3328  19.4332
    19.4697  19.4890  19.5716  19.6230  19.6572  19.6890  19.7375  19.7670
    19.8063  19.8234  19.8665  19.9728  20.0931  20.1499  20.2018  20.2160
    20.2661  20.3504  20.3910  20.4157

          k = 0.0000 0.0000 0.0188 ( 47977 PWs)   bands (ev):

   -25.5047 -25.5016 -23.2920 -23.2866 -20.4246 -20.3778 -20.2383 -20.0303
   -19.7518 -19.4105 -19.0069 -18.5424 -18.0135 -17.4401 -16.8298 -16.2083
   -15.7489 -15.6953 -15.6233 -15.5036 -15.4121 -15.1609 -15.0803 -14.8132
   -14.6992 -14.4096 -14.2957 -13.9701 -13.8678 -13.6129 -13.5509 -13.4124
   -13.2999 -13.2830 -13.0537 -13.0409 -12.9882 -12.6573 -12.3845 -12.0889
   -11.7295 -11.5983 -11.5043 -11.1926 -11.0259 -10.9114 -10.6927 -10.5754
   -10.3540 -10.0458 -10.0335  -9.8189  -9.4732  -9.3808  -9.2520  -8.9859
    -8.7863  -8.7775  -8.6878  -8.5836  -8.4585  -8.3080  -8.2852  -8.2205
    -8.0814  -7.9902  -7.8484  -7.7639  -7.6828  -7.5197  -7.4858  -7.4095
    -7.2803  -7.0268  -6.8903  -6.7737  -6.5674  -6.4164  -6.2073  -6.0396
    -5.8979  -5.7930  -5.4900  -5.4656  -5.3241  -5.1851  -5.0067  -4.7969
    -4.7170  -4.5734  -4.4388  -4.2246  -4.2004  -4.0728  -3.4836  -3.4093
    -3.3937  -3.2236  -2.9710  -2.7403  -2.6425  -2.2797  -2.1046  -1.8772
    -1.6238  -1.5473  -0.2679  -0.1510  -0.0202   0.2597   0.3527   0.5062
     0.7114   0.8701   0.9780   1.0007   1.0424   1.2727   1.5188   1.7300
     2.1140   2.2229   2.3078   2.4992   2.6616   2.7024   2.8912   3.0405
     3.2447   3.2473   3.3602   3.4716   3.5530   3.7438   3.8903   3.9350
     4.0198   4.1158   4.3128   4.3206   4.3764   4.4300   4.8076   4.8257
     4.9393   4.9795   4.9987   5.0895   5.1312   5.3206   5.3230   5.5355
     5.7178   5.7440   5.8401   5.9092   6.1102   6.3566   6.4085   6.5061
     6.5839   6.6603   6.6943   6.7215   6.7976   6.8683   6.9000   6.9572
     7.0035   7.2195   7.3021   7.4219   7.4691   7.4786   7.5073   7.5293
     7.5856   7.6108   7.7417   7.7683   7.8110   7.8659   7.8795   7.9134
     7.9585   7.9913   8.0899   8.1271   8.1859   8.3449   8.3900   8.5211
     8.5643   8.6697   8.6795   8.8024   8.8880   8.8992   8.9287   8.9389
     8.9719   9.1020   9.1405   9.1463   9.1941   9.2369   9.3065   9.3577
     9.3870   9.4347   9.5005   9.5327   9.5678   9.6346   9.6499   9.6700
     9.7395   9.7605   9.8192   9.8400   9.8519   9.8618   9.8857   9.9162
     9.9410   9.9832  10.0020  10.0187  10.1132  10.1680  10.1763  10.1852
    10.2385  10.2733  10.2798  10.3123  10.3363  10.3465  10.4119  10.4178
    10.4332  10.4887  10.5463  10.6062  10.6273  10.6637  10.7931  10.8352
    10.8588  11.0064  11.0560  11.0919  11.1534  11.1783  11.1972  11.2113
    11.2233  11.3131  11.3345  11.3818  11.4273  11.4376  11.4779  11.4845
    11.5325  11.5398  11.5731  11.5991  11.6053  11.6485  11.6528  11.6796
    11.7280  11.7525  11.7786  11.7884  11.8066  11.8362  11.8564  11.8842
    11.9056  11.9263  11.9884  12.0046  12.0342  12.0576  12.0793  12.1057
    12.1072  12.1430  12.1786  12.2035  12.2675  12.2982  12.3078  12.3412
    12.3733  12.4004  12.4451  12.4559  12.4887  12.5022  12.5149  12.5289
    12.5887  12.5972  12.6753  12.6993  12.7054  12.7244  12.7536  12.8509
    12.8936  12.9170  12.9472  12.9891  13.0671  13.1340  13.1412  13.1722
    13.2610  13.2703  13.3441  13.3480  13.4148  13.4727  13.5130  13.5335
    13.5859  13.6837  13.7491  13.7905  13.8616  13.9160  13.9387  13.9917
    14.0055  14.0864  14.1243  14.1651  14.2088  14.2239  14.2440  14.2949
    14.3967  14.4281  14.4717  14.4797  14.5531  14.6189  14.6737  14.6771
    14.6887  14.7588  14.7954  14.8253  14.8492  14.8927  14.9070  14.9314
    14.9540  14.9767  15.0119  15.0404  15.0831  15.1517  15.1665  15.2161
    15.2597  15.3414  15.3770  15.4338  15.4669  15.4982  15.5888  15.6371
    15.6507  15.6604  15.7316  15.7665  15.7790  15.8291  15.8935  15.9102
    15.9891  16.0864  16.1555  16.2096  16.2903  16.3060  16.3863  16.4099
    16.4729  16.5188  16.5381  16.5598  16.6144  16.6458  16.6755  16.7022
    16.7118  16.7305  16.7432  16.7625  16.8180  16.8849  16.9031  16.9695
    17.0089  17.0438  17.0678  17.0761  17.1624  17.1730  17.2211  17.2873
    17.3088  17.3401  17.3560  17.4534  17.4638  17.4837  17.5069  17.5179
    17.5379  17.5516  17.5632  17.5989  17.6211  17.6671  17.7389  17.7561
    17.7978  17.8421  17.9127  17.9396  17.9553  18.0298  18.0564  18.0764
    18.1042  18.1336  18.1435  18.1600  18.1972  18.2361  18.2721  18.3371
    18.3513  18.3644  18.3965  18.4313  18.4845  18.4922  18.5178  18.5741
    18.5754  18.6107  18.6309  18.6376  18.7220  18.7484  18.7811  18.8020
    18.8262  18.8624  18.9023  18.9397  19.0272  19.0303  19.0711  19.1049
    19.1808  19.2372  19.2750  19.3381  19.3611  19.4002  19.4195  19.4623
    19.5145  19.5824  19.6190  19.6956  19.7325  19.7807  19.8268  19.8379
    19.8929  19.9114  19.9558  19.9700  20.0567  20.0707  20.1954  20.2428
    20.3166  20.3713  20.4379  20.5039

          k = 0.0000 0.0000 0.0235 ( 47971 PWs)   bands (ev):

   -25.4917 -25.4886 -23.3148 -23.3095 -20.4033 -20.3566 -20.2172 -20.0092
   -19.7309 -19.3897 -18.9862 -18.5219 -17.9932 -17.4202 -16.8109 -16.1962
   -15.9023 -15.8626 -15.7626 -15.5755 -15.5603 -15.3082 -15.1529 -14.9003
   -14.7934 -14.4703 -14.3904 -13.9179 -13.8174 -13.4168 -13.3637 -13.3322
   -13.2059 -13.1313 -13.0618 -12.9139 -12.8739 -12.6860 -12.4038 -12.1282
   -11.7347 -11.5396 -11.5091 -11.1851 -10.9318 -10.8851 -10.7002 -10.4879
   -10.3401 -10.0651  -9.9863  -9.7751  -9.4879  -9.3704  -9.2068  -8.9961
    -8.7704  -8.7516  -8.6746  -8.5464  -8.4359  -8.3087  -8.2675  -8.2188
    -8.0572  -7.9663  -7.8349  -7.7424  -7.6687  -7.5407  -7.4882  -7.3856
    -7.2396  -7.0145  -6.8957  -6.7830  -6.5475  -6.3982  -6.2201  -6.0526
    -5.8908  -5.7944  -5.5011  -5.4771  -5.3327  -5.2062  -5.0243  -4.8581
    -4.7020  -4.6057  -4.5065  -4.2769  -4.2638  -4.0588  -3.6031  -3.5208
    -3.3964  -3.3459  -3.0967  -2.7950  -2.7263  -2.4194  -2.1420  -2.0317
    -1.7219  -1.7072  -0.1155  -0.0677   0.1312   0.3618   0.4103   0.6529
     0.8601   0.9821   1.0208   1.1293   1.1944   1.3033   1.5498   1.6975
     2.1431   2.2502   2.3370   2.4640   2.6863   2.7300   2.9188   3.0675
     3.2238   3.2734   3.3859   3.4843   3.5786   3.7726   3.9186   3.9636
     3.9943   4.1372   4.3313   4.3445   4.4036   4.4525   4.8340   4.8458
     4.9247   5.0050   5.0156   5.1151   5.1452   5.3450   5.3463   5.5271
     5.7434   5.7681   5.8603   5.9303   6.0944   6.3570   6.4324   6.4799
     6.5866   6.6676   6.7170   6.7293   6.7957   6.8302   6.8822   6.9577
     6.9853   7.2119   7.3126   7.4282   7.4601   7.4681   7.5044   7.5410
     7.5939   7.6299   7.6878   7.7740   7.8107   7.8239   7.8562   7.9132
     7.9420   8.0156   8.0318   8.1484   8.1953   8.2176   8.3431   8.4584
     8.5125   8.5652   8.6344   8.6515   8.7172   8.7517   8.8157   8.8733
     8.8846   8.9287   9.0509   9.0633   9.1154   9.1871   9.2019   9.3051
     9.3255   9.3297   9.3723   9.4623   9.5250   9.5659   9.5993   9.6564
     9.6656   9.6811   9.7711   9.7875   9.8276   9.8598   9.8746   9.8888
     9.9130   9.9224   9.9395   9.9702   9.9797  10.0261  10.0762  10.0952
    10.1182  10.1488  10.1919  10.2010  10.2013  10.2157  10.2733  10.3217
    10.4164  10.4530  10.4807  10.5356  10.6002  10.6372  10.6713  10.7353
    10.7701  10.8876  10.9763  10.9904  11.1114  11.1727  11.1825  11.1943
    11.2405  11.2684  11.3262  11.3924  11.4029  11.4432  11.4652  11.5037
    11.5438  11.5708  11.6064  11.6115  11.6231  11.6665  11.6994  11.7023
    11.7501  11.7932  11.8123  11.8191  11.8360  11.8465  11.8520  11.8844
    11.9476  11.9607  11.9748  12.0516  12.0841  12.1032  12.1437  12.1508
    12.1845  12.1879  12.2128  12.2381  12.2873  12.3066  12.3544  12.3936
    12.4033  12.4309  12.4505  12.4921  12.5104  12.5220  12.5553  12.5657
    12.5850  12.6740  12.7123  12.7472  12.7626  12.7982  12.8333  12.8672
    12.9476  12.9772  13.0113  13.0353  13.0598  13.0965  13.1549  13.1668
    13.2332  13.2585  13.2838  13.3751  13.4226  13.5270  13.5362  13.6047
    13.6268  13.7254  13.7861  13.7998  13.8302  13.9221  14.0071  14.0525
    14.1093  14.1577  14.1999  14.2109  14.2416  14.2695  14.3509  14.3896
    14.4204  14.4710  14.4841  14.5693  14.6285  14.6450  14.6642  14.7238
    14.7390  14.7690  14.8229  14.8565  14.8696  14.9291  14.9599  14.9704
    14.9922  15.0183  15.0510  15.0598  15.1054  15.1189  15.1910  15.2515
    15.2707  15.3442  15.3708  15.4185  15.4829  15.5222  15.5690  15.6290
    15.6505  15.6724  15.7430  15.7530  15.8336  15.8560  15.9862  16.0196
    16.0444  16.0889  16.1757  16.2249  16.2970  16.3318  16.3536  16.4334
    16.4732  16.5071  16.5194  16.5986  16.6235  16.6585  16.6908  16.7271
    16.7576  16.7784  16.8222  16.8396  16.8587  16.9609  16.9660  16.9799
    17.0034  17.0502  17.0751  17.1288  17.1692  17.2322  17.2569  17.3222
    17.3320  17.3467  17.3542  17.3745  17.4000  17.4310  17.4485  17.4778
    17.5115  17.5606  17.5732  17.6487  17.6765  17.7646  17.7761  17.7910
    17.8328  17.8661  17.8763  17.9418  17.9933  18.0126  18.0240  18.0384
    18.0578  18.0991  18.1169  18.1549  18.1676  18.2561  18.2667  18.2912
    18.3395  18.3737  18.3981  18.4226  18.4394  18.4943  18.5506  18.5657
    18.5921  18.6016  18.6282  18.6507  18.6930  18.7848  18.8055  18.8125
    18.8316  18.8922  18.9019  18.9273  18.9497  19.0920  19.1377  19.2325
    19.2473  19.2517  19.3003  19.3688  19.4374  19.4558  19.5030  19.5220
    19.5517  19.6571  19.7179  19.7367  19.7817  19.8186  19.8522  19.8670
    19.9483  20.0366  20.0583  20.1049  20.1268  20.2125  20.2679  20.2833
    20.3898  20.4007  20.4240  20.5030

          k = 0.0000 0.0000 0.0282 ( 48012 PWs)   bands (ev):

   -25.4759 -25.4729 -23.3422 -23.3370 -20.3773 -20.3308 -20.1913 -19.9835
   -19.7053 -19.3642 -18.9610 -18.4968 -17.9684 -17.3959 -16.7881 -16.1932
   -16.0746 -16.0230 -15.9301 -15.7434 -15.6083 -15.4290 -15.2717 -14.9515
   -14.9149 -14.5344 -14.4933 -13.8583 -13.7795 -13.3480 -13.2073 -13.1666
   -13.1421 -12.9966 -12.9787 -12.8256 -12.7042 -12.6645 -12.4260 -12.1535
   -11.7768 -11.4867 -11.4600 -11.2130 -10.8692 -10.7749 -10.7188 -10.4114
   -10.3038 -10.0927  -9.9205  -9.7343  -9.5094  -9.3396  -9.1687  -9.0017
    -8.7529  -8.7212  -8.6541  -8.5014  -8.4112  -8.3305  -8.2423  -8.1922
    -8.0285  -7.9298  -7.8191  -7.7238  -7.6896  -7.5393  -7.4652  -7.3539
    -7.1943  -7.0397  -6.8996  -6.7588  -6.5369  -6.3781  -6.2433  -6.0662
    -5.8719  -5.8012  -5.5323  -5.4897  -5.3390  -5.2177  -5.0560  -4.9253
    -4.6897  -4.6450  -4.5852  -4.3659  -4.3145  -4.0420  -3.7388  -3.6570
    -3.4846  -3.3893  -3.2365  -2.9321  -2.7445  -2.5718  -2.1968  -2.1841
    -1.8657  -1.8288   0.0218   0.0349   0.2898   0.3809   0.5683   0.8172
     0.9610   1.0288   1.1924   1.3029   1.3408   1.3697   1.5877   1.6592
     2.1787   2.2815   2.3728   2.4221   2.7188   2.7627   2.9517   3.0997
     3.1911   3.3078   3.4173   3.5074   3.6083   3.8078   3.9507   3.9620
     3.9985   4.1634   4.3545   4.3783   4.4367   4.4785   4.8489   4.8662
     4.9210   5.0343   5.0464   5.1473   5.1589   5.3709   5.3781   5.5214
     5.7741   5.7955   5.8810   5.9569   6.0807   6.3540   6.4402   6.4641
     6.5776   6.6629   6.7226   6.7457   6.7645   6.8154   6.8775   6.9565
     6.9854   7.2014   7.3188   7.4309   7.4503   7.4581   7.4990   7.5191
     7.5937   7.6421   7.6724   7.7386   7.7538   7.8239   7.8573   7.9234
     7.9315   8.0091   8.0385   8.0923   8.1641   8.1977   8.2653   8.3463
     8.3883   8.4311   8.4409   8.4737   8.6097   8.6586   8.6785   8.7594
     8.7871   8.8714   8.9244   9.0180   9.0475   9.0625   9.1387   9.1779
     9.2232   9.2753   9.2935   9.3386   9.4520   9.5007   9.5811   9.5965
     9.6269   9.6600   9.6911   9.7123   9.7470   9.7622   9.7786   9.8162
     9.8209   9.8782   9.8990   9.9052   9.9240   9.9347   9.9739   9.9944
    10.0038  10.0245  10.0476  10.0918  10.1139  10.2136  10.2470  10.3236
    10.3370  10.3771  10.4022  10.4526  10.4876  10.5500  10.6706  10.6762
    10.7436  10.7691  10.8801  10.9174  10.9634  11.0076  11.0612  11.1525
    11.1756  11.2269  11.2452  11.3250  11.3594  11.3830  11.4225  11.4855
    11.4966  11.5144  11.6003  11.6059  11.6344  11.6895  11.7147  11.7279
    11.7677  11.8086  11.8511  11.8907  11.8914  11.9252  11.9433  11.9692
    12.0106  12.0591  12.0960  12.1089  12.1366  12.1660  12.1757  12.2032
    12.2410  12.2589  12.2710  12.2870  12.3524  12.3625  12.3778  12.3975
    12.4330  12.4563  12.4784  12.4968  12.5129  12.5438  12.5567  12.6388
    12.6786  12.6827  12.7392  12.7658  12.7832  12.8367  12.8692  12.8974
    12.9353  12.9755  13.0148  13.0515  13.0973  13.1685  13.1805  13.1985
    13.2542  13.3271  13.4167  13.4347  13.4732  13.5362  13.5814  13.5919
    13.6850  13.7135  13.7593  13.8079  13.8575  13.8805  13.9867  14.0812
    14.1115  14.1919  14.2026  14.2372  14.2799  14.3530  14.4550  14.4959
    14.5412  14.5846  14.6387  14.6442  14.6709  14.7016  14.7225  14.7658
    14.7881  14.8120  14.8231  14.8919  14.9047  14.9198  14.9486  14.9684
    14.9745  15.0300  15.0552  15.0831  15.1656  15.2064  15.2431  15.2694
    15.3519  15.3862  15.4828  15.5083  15.5169  15.5332  15.6056  15.6306
    15.6914  15.7033  15.7428  15.8249  15.8626  15.8777  15.9922  16.0507
    16.0714  16.1739  16.2016  16.2590  16.3158  16.3482  16.4034  16.4365
    16.4399  16.4638  16.5267  16.5814  16.6286  16.6531  16.6699  16.7666
    16.8154  16.8266  16.8404  16.8732  16.9366  16.9584  16.9756  17.0415
    17.0606  17.1200  17.1381  17.1501  17.1857  17.1939  17.2070  17.2941
    17.2998  17.3229  17.3766  17.4026  17.4221  17.4289  17.4487  17.4795
    17.4971  17.5905  17.6265  17.6766  17.6885  17.7049  17.7998  17.8159
    17.8348  17.8620  17.8847  17.9373  17.9490  17.9942  18.0108  18.0322
    18.0433  18.0566  18.1037  18.1263  18.1694  18.1987  18.2399  18.2803
    18.3425  18.4000  18.4818  18.5417  18.5856  18.5904  18.6140  18.6201
    18.6390  18.6590  18.6677  18.6785  18.6937  18.7071  18.7710  18.8182
    18.8345  18.8765  18.8904  19.0015  19.0477  19.1216  19.1510  19.2464
    19.2712  19.3434  19.3724  19.4014  19.4597  19.4755  19.5095  19.5638
    19.6068  19.6344  19.7234  19.8093  19.8716  19.8979  19.9211  20.0100
    20.0350  20.1311  20.1788  20.2292  20.2841  20.3054  20.3148  20.3776
    20.4086  20.4507  20.4917  20.5086

          k = 0.0000 0.0000 0.0329 ( 48028 PWs)   bands (ev):

   -25.4575 -25.4545 -23.3739 -23.3689 -20.3466 -20.3001 -20.1608 -19.9531
   -19.6750 -19.3341 -18.9311 -18.4672 -17.9392 -17.3674 -16.7620 -16.2633
   -16.2506 -16.1174 -16.1014 -15.9078 -15.7217 -15.4772 -15.4166 -15.0585
   -14.9784 -14.6342 -14.5677 -13.8137 -13.7390 -13.3725 -13.2022 -12.9937
   -12.9622 -12.9153 -12.7957 -12.7503 -12.5567 -12.5272 -12.4434 -12.1593
   -11.8308 -11.4475 -11.3839 -11.2494 -10.8014 -10.7579 -10.6267 -10.3639
   -10.2428 -10.1004  -9.8619  -9.6955  -9.5207  -9.3043  -9.1432  -8.9884
    -8.7347  -8.6903  -8.6241  -8.4659  -8.3849  -8.3341  -8.2097  -8.1532
    -7.9973  -7.8922  -7.8163  -7.7430  -7.6747  -7.5050  -7.4364  -7.3173
    -7.1534  -7.0973  -6.8779  -6.7231  -6.5455  -6.3597  -6.2620  -6.0824
    -5.8449  -5.8154  -5.5808  -5.5027  -5.3476  -5.2190  -5.1027  -4.9958
    -4.7267  -4.6736  -4.6469  -4.4669  -4.3741  -4.0225  -3.8870  -3.8055
    -3.6344  -3.4064  -3.3631  -3.0865  -2.7599  -2.7309  -2.3580  -2.2439
    -2.0189  -1.9425   0.1152   0.1826   0.4022   0.4525   0.7379   0.9382
     0.9948   1.2124   1.3811   1.3839   1.4963   1.5644   1.6157   1.6334
     2.2208   2.3061   2.3851   2.4151   2.7587   2.7992   2.9885   3.1284
     3.1614   3.3484   3.4544   3.5404   3.6395   3.8494   3.9174   3.9951
     4.0398   4.1933   4.3860   4.4184   4.4747   4.5066   4.8235   4.9032
     4.9486   5.0676   5.0853   5.1694   5.1862   5.3997   5.4154   5.5229
     5.8092   5.8223   5.8990   5.9891   6.0758   6.3434   6.3967   6.4810
     6.5480   6.6339   6.6962   6.7354   6.7880   6.8317   6.8751   6.9539
     7.0120   7.1881   7.3171   7.4171   7.4367   7.4479   7.4965   7.5077
     7.5373   7.6095   7.6340   7.7173   7.7437   7.8050   7.8890   7.9220
     7.9357   7.9633   8.0071   8.0571   8.0963   8.1363   8.1754   8.1910
     8.2459   8.2747   8.3090   8.4262   8.4461   8.5261   8.5788   8.6189
     8.6929   8.7735   8.8645   8.8964   8.9229   8.9748   9.0617   9.0774
     9.1183   9.1867   9.2779   9.3060   9.3593   9.3749   9.4238   9.4620
     9.5412   9.6069   9.6093   9.6188   9.6392   9.6757   9.7202   9.7236
     9.7430   9.7555   9.7729   9.8009   9.8729   9.8806   9.9283   9.9411
     9.9721  10.0074  10.0186  10.0507  10.0669  10.1374  10.1795  10.2529
    10.2614  10.3039  10.3403  10.3839  10.4465  10.5236  10.5747  10.6406
    10.6727  10.7040  10.7184  10.7664  10.8761  10.8981  10.9628  11.0518
    11.0729  11.1233  11.1517  11.2264  11.2911  11.3079  11.3785  11.4292
    11.4499  11.5350  11.5637  11.5818  11.6449  11.6773  11.6980  11.7521
    11.7587  11.8277  11.8528  11.8830  11.9435  11.9517  12.0246  12.0609
    12.0777  12.0935  12.1372  12.1511  12.1802  12.2126  12.2420  12.2521
    12.2921  12.3157  12.3592  12.3676  12.3905  12.4042  12.4265  12.4741
    12.4774  12.5011  12.5033  12.5634  12.5831  12.6026  12.6413  12.6448
    12.6648  12.7066  12.7770  12.8062  12.8173  12.8876  12.9001  12.9368
    12.9596  12.9803  13.0019  13.0751  13.1077  13.1533  13.2221  13.2863
    13.3650  13.3903  13.4311  13.4701  13.4995  13.5245  13.5885  13.6052
    13.6811  13.6990  13.8186  13.8826  13.8940  13.9338  13.9648  14.0544
    14.1399  14.1990  14.2603  14.2942  14.3230  14.3622  14.4518  14.5041
    14.5958  14.6434  14.7019  14.7086  14.7305  14.7914  14.8073  14.8176
    14.8563  14.8900  14.9121  14.9229  14.9334  14.9424  14.9916  15.0089
    15.0608  15.0847  15.1514  15.1875  15.2178  15.2933  15.3051  15.3470
    15.4112  15.4489  15.4669  15.5099  15.5646  15.5976  15.6836  15.7093
    15.7209  15.7518  15.8224  15.8320  15.8858  15.9293  15.9858  16.0285
    16.0914  16.2259  16.2396  16.2941  16.3325  16.3866  16.4346  16.4659
    16.4895  16.5080  16.5874  16.6271  16.6432  16.6742  16.6777  16.7731
    16.8173  16.8428  16.8502  16.8638  16.9057  16.9281  16.9391  16.9565
    17.0330  17.1089  17.1372  17.1682  17.1975  17.2137  17.2230  17.2422
    17.3270  17.3914  17.4094  17.4592  17.4692  17.4959  17.5176  17.5333
    17.5613  17.5953  17.6136  17.6621  17.6832  17.7021  17.7212  17.7716
    17.7973  17.8265  17.8962  17.9224  17.9305  17.9590  18.0073  18.0201
    18.0314  18.0682  18.1261  18.1532  18.1935  18.2215  18.2980  18.3405
    18.4302  18.4655  18.5565  18.5927  18.6037  18.6275  18.6455  18.6589
    18.6835  18.6958  18.7025  18.7076  18.7774  18.8356  18.8474  18.8645
    18.8964  18.9651  18.9850  19.0639  19.1155  19.1345  19.1876  19.2152
    19.2268  19.2986  19.3625  19.3801  19.4454  19.5682  19.5877  19.6373
    19.6749  19.7154  19.8169  19.8713  19.9186  19.9438  20.0075  20.0449
    20.1906  20.2221  20.2514  20.2654  20.3023  20.3585  20.3869  20.4458
    20.4831  20.4960  20.5215  20.5639

          k = 0.0000 0.0000 0.0376 ( 48024 PWs)   bands (ev):

   -25.4364 -25.4335 -23.4095 -23.4048 -20.3112 -20.2649 -20.1256 -19.9180
   -19.6401 -19.2995 -18.8967 -18.4331 -17.9055 -17.3347 -16.7339 -16.4287
   -16.4179 -16.2787 -16.1569 -16.0322 -15.8744 -15.5707 -15.4890 -15.1933
   -15.0248 -14.7329 -14.6415 -13.7895 -13.6877 -13.4349 -13.1916 -13.0188
   -12.7834 -12.7325 -12.6171 -12.5863 -12.5212 -12.3731 -12.3292 -12.1450
   -11.8755 -11.4559 -11.2942 -11.2409 -10.8628 -10.6507 -10.4969 -10.3303
   -10.2249 -10.0319  -9.8266  -9.6651  -9.5016  -9.2809  -9.1136  -8.9618
    -8.7162  -8.6596  -8.5901  -8.4510  -8.3377  -8.3054  -8.1713  -8.1110
    -7.9700  -7.8993  -7.8040  -7.7317  -7.6386  -7.4609  -7.4031  -7.2778
    -7.1951  -7.0852  -6.8447  -6.6859  -6.5809  -6.3470  -6.2610  -6.1058
    -5.8397  -5.8116  -5.6368  -5.5205  -5.3657  -5.2126  -5.1619  -5.0666
    -4.8051  -4.7699  -4.6227  -4.5753  -4.4424  -4.0451  -4.0002  -3.9630
    -3.7926  -3.5543  -3.3664  -3.2484  -2.8980  -2.7762  -2.5212  -2.3185
    -2.1597  -2.0604   0.2110   0.3248   0.4303   0.6167   0.9116   0.9174
     1.1822   1.3986   1.4397   1.5726   1.5843   1.6845   1.7046   1.7754
     2.2692   2.2819   2.3972   2.4636   2.8054   2.8348   3.0215   3.1108
     3.1908   3.3953   3.4968   3.5823   3.6647   3.8779   3.8975   4.0422
     4.0874   4.2250   4.4253   4.4635   4.5134   4.5378   4.7938   4.9440
     4.9914   5.1022   5.1306   5.1763   5.2310   5.4307   5.4579   5.5370
     5.8370   5.8487   5.9161   6.0263   6.0867   6.3177   6.3328   6.4370
     6.5465   6.5922   6.6702   6.7431   6.8271   6.8335   6.8921   6.9709
     7.0484   7.1716   7.3001   7.3882   7.4074   7.4220   7.4763   7.5035
     7.5155   7.5390   7.5555   7.6974   7.7002   7.7847   7.8185   7.8634
     7.8903   7.9191   7.9488   7.9769   8.0240   8.0385   8.0977   8.1421
     8.1789   8.2209   8.2869   8.3039   8.3418   8.3838   8.4719   8.4929
     8.5453   8.6766   8.7324   8.7509   8.8378   8.8992   8.9296   9.0480
     9.0795   9.0919   9.1405   9.1937   9.2370   9.2944   9.3223   9.3481
     9.3683   9.4324   9.4373   9.4974   9.5453   9.5883   9.6330   9.6442
     9.6920   9.7507   9.7673   9.7821   9.8033   9.8165   9.8418   9.8947
     9.9193   9.9324   9.9756  10.0312  10.0429  10.0774  10.1016  10.1631
    10.1790  10.2695  10.3313  10.3929  10.4241  10.4437  10.4471  10.5210
    10.5564  10.5970  10.6341  10.7334  10.7857  10.8362  10.8609  10.9142
    10.9404  10.9795  11.0383  11.1146  11.2228  11.3325  11.3380  11.4117
    11.4287  11.4853  11.5164  11.5416  11.5926  11.6873  11.7068  11.7261
    11.7880  11.8491  11.8814  11.9046  11.9560  11.9993  12.0242  12.0392
    12.0709  12.0805  12.1161  12.1389  12.1754  12.2219  12.2523  12.2596
    12.2864  12.3318  12.3442  12.3993  12.4326  12.4354  12.4804  12.5327
    12.5643  12.5944  12.6114  12.6439  12.6873  12.7264  12.7412  12.7465
    12.7727  12.8064  12.8163  12.8227  12.8471  12.9064  12.9356  12.9918
    13.0185  13.0482  13.0508  13.0675  13.0906  13.1471  13.2062  13.3575
    13.3755  13.4005  13.4228  13.4516  13.5326  13.5490  13.5837  13.6035
    13.6775  13.7485  13.8197  13.8613  13.8918  14.0350  14.0914  14.1569
    14.1816  14.2328  14.2631  14.3144  14.3485  14.4125  14.4640  14.4910
    14.5841  14.6181  14.6255  14.6883  14.8044  14.8432  14.8864  14.9237
    14.9554  14.9739  14.9979  15.0571  15.0640  15.1117  15.1182  15.1256
    15.1595  15.2030  15.2166  15.2357  15.3246  15.3258  15.3673  15.4119
    15.4239  15.4791  15.4929  15.5093  15.6271  15.6717  15.7040  15.7217
    15.7573  15.8278  15.8581  15.9170  15.9528  15.9790  16.0302  16.0478
    16.0934  16.2439  16.3003  16.3189  16.4181  16.4524  16.4594  16.4866
    16.5314  16.5585  16.6021  16.6575  16.6670  16.6996  16.7035  16.7644
    16.7671  16.7851  16.8077  16.8847  16.9164  16.9226  16.9662  16.9820
    17.0494  17.0627  17.1246  17.1489  17.1675  17.1917  17.2214  17.2677
    17.3389  17.3848  17.4000  17.4414  17.5035  17.5265  17.5350  17.5439
    17.5788  17.6205  17.6364  17.6715  17.7167  17.7213  17.7546  17.7823
    17.8045  17.8285  17.8553  17.9014  17.9422  17.9557  18.0189  18.0803
    18.1321  18.1565  18.1862  18.2110  18.2247  18.2581  18.3487  18.4576
    18.4903  18.5319  18.5788  18.5972  18.6039  18.6305  18.6824  18.6919
    18.7042  18.7146  18.7264  18.8315  18.8516  18.8853  18.9324  18.9865
    19.0102  19.0527  19.0932  19.1148  19.1608  19.1634  19.2308  19.2432
    19.2503  19.3027  19.3915  19.4776  19.5362  19.5974  19.6247  19.6937
    19.7192  19.7718  19.8546  19.9160  19.9632  20.0320  20.0862  20.1194
    20.1646  20.2049  20.2999  20.3308  20.3825  20.4330  20.4413  20.4703
    20.4917  20.5344  20.5887  20.6131

          k = 0.0000 0.0000 0.0423 ( 48048 PWs)   bands (ev):

   -25.4128 -25.4099 -23.4488 -23.4443 -20.2710 -20.2249 -20.0857 -19.8783
   -19.6006 -19.2602 -18.8577 -18.3945 -17.8676 -17.2980 -16.7123 -16.5983
   -16.5865 -16.4492 -16.2906 -16.0542 -16.0313 -15.7245 -15.5164 -15.3030
   -15.1019 -14.8043 -14.7272 -13.7724 -13.6414 -13.5033 -13.1679 -13.0941
   -12.6796 -12.5821 -12.5005 -12.4226 -12.3781 -12.2002 -12.1600 -12.1066
   -11.8946 -11.5019 -11.2019 -11.1819 -10.9418 -10.5479 -10.3754 -10.3312
   -10.1707  -9.9454  -9.8068  -9.6264  -9.4779  -9.2501  -9.0624  -8.9546
    -8.6883  -8.6289  -8.5530  -8.4250  -8.2768  -8.2614  -8.1279  -8.0781
    -7.9830  -7.8982  -7.7535  -7.7007  -7.5972  -7.4193  -7.3661  -7.2796
    -7.2257  -7.0386  -6.8078  -6.6609  -6.6291  -6.3422  -6.2386  -6.1405
    -5.8730  -5.7773  -5.6942  -5.5456  -5.3952  -5.2495  -5.1938  -5.1268
    -4.9055  -4.8743  -4.6883  -4.5916  -4.5179  -4.2091  -4.1271  -3.9805
    -3.9522  -3.7186  -3.4162  -3.3577  -3.0645  -2.8099  -2.6725  -2.4240
    -2.2739  -2.1809   0.3082   0.4303   0.4969   0.7786   0.8940   1.0952
     1.3765   1.4560   1.5458   1.6208   1.7366   1.8041   1.9254   1.9997
     2.2236   2.3244   2.4445   2.5185   2.8551   2.8597   3.0294   3.1227
     3.2404   3.4480   3.5444   3.6321   3.6658   3.8605   3.9518   4.0955
     4.1413   4.2539   4.4713   4.5077   4.5431   4.5817   4.7778   4.9845
     5.0427   5.1270   5.1816   5.1903   5.2818   5.4651   5.5042   5.5658
     5.8290   5.8863   5.9407   6.0670   6.1135   6.2338   6.2734   6.3698
     6.5270   6.5983   6.6667   6.7234   6.8411   6.8705   6.9289   7.0018
     7.0885   7.1495   7.2567   7.3358   7.3624   7.3714   7.4184   7.4460
     7.4898   7.5214   7.5391   7.5726   7.5924   7.6516   7.6846   7.7643
     7.8145   7.8313   7.8623   7.9333   8.0014   8.0774   8.0785   8.1338
     8.1583   8.1802   8.2040   8.2124   8.2767   8.3280   8.3410   8.3784
     8.4214   8.5565   8.5902   8.6360   8.7617   8.7918   8.8361   8.8853
     8.9700   9.0060   9.0433   9.0673   9.1104   9.1534   9.1644   9.1904
     9.2700   9.3126   9.3600   9.4100   9.4181   9.5021   9.5156   9.5795
     9.6555   9.6778   9.7080   9.7332   9.7606   9.7906   9.8035   9.8249
     9.8509   9.8773   9.8994   9.9072  10.0197  10.0490  10.0831  10.1249
    10.1635  10.1723  10.2433  10.2779  10.3465  10.4220  10.4337  10.4769
    10.4977  10.5522  10.6021  10.6305  10.6420  10.7149  10.7344  10.8081
    10.8758  10.9231  10.9490  11.0066  11.1267  11.2774  11.3344  11.3704
    11.4141  11.4354  11.4566  11.5143  11.6342  11.6827  11.7222  11.7504
    11.7939  11.8453  11.8472  11.8894  11.8988  11.9431  11.9805  11.9884
    12.0418  12.0830  12.1092  12.1467  12.1568  12.2180  12.2631  12.2888
    12.3133  12.3207  12.3596  12.3834  12.4110  12.4447  12.4918  12.5893
    12.6380  12.6467  12.6590  12.7082  12.7373  12.7584  12.7890  12.8028
    12.8142  12.8740  12.9150  12.9399  12.9756  12.9938  12.9966  13.0355
    13.0630  13.0675  13.0849  13.0902  13.1420  13.2118  13.2345  13.3561
    13.3923  13.4270  13.4475  13.4594  13.4986  13.5641  13.6451  13.6639
    13.7258  13.7683  13.8071  13.8522  13.8801  14.0191  14.0578  14.1367
    14.2253  14.2652  14.2864  14.3998  14.4218  14.4464  14.4925  14.5256
    14.6033  14.6563  14.7359  14.7979  14.8502  14.9051  14.9566  14.9633
    14.9886  15.0610  15.0748  15.1097  15.1351  15.1705  15.1828  15.2257
    15.2563  15.3110  15.3385  15.3538  15.4049  15.4233  15.4683  15.4768
    15.4845  15.5281  15.5502  15.5971  15.6617  15.6825  15.6978  15.7725
    15.7892  15.8447  15.9332  15.9855  16.0114  16.0664  16.0796  16.1328
    16.1628  16.2763  16.3193  16.3663  16.4372  16.4421  16.5070  16.5215
    16.5375  16.5671  16.5703  16.6270  16.6516  16.6751  16.7229  16.7346
    16.7781  16.8141  16.8361  16.8921  16.9073  16.9892  16.9953  17.0298
    17.0523  17.0902  17.1367  17.1520  17.1845  17.2142  17.2566  17.3203
    17.3480  17.3723  17.3961  17.4147  17.4748  17.5110  17.5189  17.5360
    17.5743  17.5920  17.5998  17.6454  17.6579  17.7585  17.8065  17.8204
    17.8519  17.8865  17.9527  18.0026  18.0130  18.0507  18.0611  18.1470
    18.1854  18.2151  18.2707  18.3087  18.3578  18.3670  18.3858  18.4885
    18.5660  18.5850  18.5897  18.6313  18.6381  18.6884  18.7197  18.7343
    18.7369  18.7472  18.8132  18.8560  18.8712  18.8851  18.9019  19.0289
    19.0351  19.0853  19.1181  19.1717  19.1938  19.2883  19.3345  19.3865
    19.4380  19.5062  19.5313  19.5623  19.5792  19.6361  19.6552  19.7619
    19.8012  19.8211  19.8431  19.9183  19.9756  20.0600  20.1239  20.1629
    20.1953  20.2890  20.3217  20.3878  20.4009  20.4297  20.4321  20.4648
    20.5190  20.5576  20.6222  20.6578

          k = 0.0000 0.0000 0.0469 ( 48052 PWs)   bands (ev):

   -25.3868 -25.3840 -23.4913 -23.4870 -20.2262 -20.1802 -20.0412 -19.8340
   -19.5565 -19.2164 -18.8142 -18.3514 -17.8253 -17.2578 -16.7967 -16.7605
   -16.6791 -16.5912 -16.4528 -16.1997 -16.0434 -15.8633 -15.6030 -15.3497
   -15.2105 -14.8501 -14.8239 -13.7592 -13.6341 -13.5328 -13.2007 -13.1143
   -12.6424 -12.6225 -12.2772 -12.2255 -12.1753 -12.1030 -12.0237 -11.9631
   -11.8489 -11.5472 -11.1304 -11.0996 -11.0022 -10.5391 -10.2747 -10.2560
   -10.1042  -9.8878  -9.7513  -9.5948  -9.4536  -9.1880  -8.9959  -8.9810
    -8.6438  -8.5995  -8.5036  -8.3799  -8.2220  -8.2097  -8.0977  -8.0734
    -7.9745  -7.8578  -7.6957  -7.6621  -7.5557  -7.4199  -7.3262  -7.3068
    -7.1825  -6.9933  -6.7727  -6.7201  -6.6075  -6.3454  -6.2028  -6.1887
    -5.9153  -5.7759  -5.7207  -5.5794  -5.4361  -5.3320  -5.2433  -5.1305
    -5.0250  -4.9854  -4.7986  -4.6059  -4.5527  -4.3778  -4.2951  -4.1261
    -3.9484  -3.8864  -3.5844  -3.3562  -3.2260  -2.9041  -2.7660  -2.5584
    -2.3624  -2.3022   0.4061   0.4727   0.6283   0.8553   0.9596   1.2782
     1.4331   1.5752   1.5789   1.8009   1.8338   2.0257   2.1561   2.1582
     2.2353   2.3858   2.5033   2.5792   2.8368   2.9192   3.0445   3.1720
     3.2965   3.5058   3.5922   3.6322   3.6898   3.8816   4.0125   4.1546
     4.2013   4.2705   4.5194   4.5327   4.5881   4.6373   4.7862   5.0109
     5.1008   5.1388   5.2264   5.2382   5.3382   5.5053   5.5517   5.6066
     5.8003   5.9102   5.9635   6.1055   6.1067   6.1694   6.2079   6.3260
     6.4993   6.6113   6.6729   6.6941   6.8656   6.9165   6.9674   7.0346
     7.0960   7.1281   7.1891   7.2326   7.2873   7.3042   7.3545   7.3636
     7.3891   7.4415   7.4633   7.5137   7.5391   7.5570   7.5699   7.6331
     7.6965   7.7645   7.8273   7.8647   7.9489   8.0181   8.0318   8.0970
     8.1212   8.1523   8.1644   8.1949   8.2401   8.2599   8.2669   8.3469
     8.3877   8.4339   8.4844   8.5465   8.6068   8.6634   8.7514   8.7699
     8.8218   8.8499   8.8850   8.8915   8.9238   9.0214   9.1115   9.1454
     9.2004   9.2106   9.2340   9.2435   9.2840   9.4338   9.5002   9.5406
     9.5560   9.5885   9.6085   9.6176   9.6488   9.7202   9.7465   9.7546
     9.8365   9.8681   9.8822   9.9111   9.9218   9.9309   9.9620  10.0778
    10.0981  10.1591  10.1962  10.2486  10.3120  10.3388  10.3738  10.4255
    10.4739  10.5052  10.5341  10.5518  10.5699  10.6384  10.6699  10.7260
    10.7997  10.8204  10.8980  11.0007  11.0821  11.0936  11.2690  11.3035
    11.4424  11.4489  11.4870  11.5234  11.5946  11.6499  11.6563  11.7145
    11.7298  11.7464  11.8064  11.8800  11.8862  11.9162  11.9646  11.9943
    12.0546  12.0814  12.1014  12.1300  12.1755  12.2000  12.2482  12.2513
    12.3263  12.3673  12.3961  12.4391  12.4473  12.4687  12.5044  12.5287
    12.5992  12.6326  12.6817  12.7158  12.7343  12.7524  12.7799  12.7873
    12.8103  12.8601  12.8873  12.9231  13.0134  13.0418  13.0466  13.0540
    13.1537  13.1973  13.2394  13.2689  13.2760  13.3038  13.3734  13.3736
    13.4048  13.4509  13.5032  13.5527  13.5884  13.6004  13.6455  13.6642
    13.7222  13.7595  13.7900  13.8244  13.9064  13.9409  14.0061  14.1581
    14.2326  14.2948  14.3004  14.3802  14.3837  14.5379  14.5765  14.6665
    14.6868  14.7684  14.8411  14.8877  14.8897  14.9381  14.9681  14.9914
    15.0481  15.0701  15.1125  15.1617  15.1921  15.2209  15.2781  15.3195
    15.3548  15.4015  15.4127  15.4646  15.4901  15.5159  15.5563  15.5720
    15.6014  15.6267  15.6477  15.6879  15.7130  15.7262  15.7558  15.8079
    15.8239  15.9263  15.9528  16.0013  16.0485  16.0977  16.1295  16.2250
    16.2385  16.3098  16.3310  16.3781  16.3831  16.3967  16.5001  16.5048
    16.5430  16.5857  16.6133  16.6389  16.6534  16.6846  16.7307  16.7526
    16.7824  16.8342  16.8831  16.8969  16.9399  16.9742  17.0026  17.0558
    17.0943  17.1350  17.1630  17.1772  17.2649  17.3035  17.3244  17.3315
    17.3746  17.3796  17.4055  17.4372  17.4404  17.4801  17.4939  17.5345
    17.5762  17.6127  17.6560  17.6704  17.7111  17.7990  17.8552  17.9153
    17.9422  17.9728  18.0003  18.0431  18.0700  18.0868  18.1395  18.1526
    18.2416  18.2962  18.3072  18.3655  18.4786  18.4921  18.5316  18.5618
    18.6127  18.6438  18.7063  18.7240  18.7350  18.7407  18.7560  18.7631
    18.7770  18.7960  18.8029  18.8553  18.8745  18.8809  18.9194  18.9826
    19.0869  19.1950  19.2127  19.2375  19.2749  19.3179  19.4349  19.4801
    19.5392  19.5712  19.5905  19.6463  19.7124  19.7548  19.7982  19.8246
    19.8414  19.9285  20.0151  20.0303  20.0560  20.0805  20.1185  20.1828
    20.2016  20.2283  20.2553  20.3314  20.3564  20.4115  20.4266  20.4663
    20.5579  20.5990  20.6671  20.6896

          k = 0.0000 0.0000 0.0516 ( 48058 PWs)   bands (ev):

   -25.3585 -25.3558 -23.5366 -23.5325 -20.1767 -20.1309 -19.9920 -19.7850
   -19.5078 -19.1680 -18.7663 -18.3040 -17.7788 -17.2156 -16.9627 -16.9277
   -16.8113 -16.6238 -16.5930 -16.3567 -16.1056 -15.9262 -15.7331 -15.3539
   -15.3343 -14.9282 -14.8860 -13.7638 -13.6546 -13.5272 -13.2621 -13.0964
   -12.7001 -12.5961 -12.1591 -12.0867 -12.0007 -11.9541 -11.8838 -11.7597
   -11.7107 -11.5736 -11.1514 -11.0061 -10.9678 -10.6041 -10.2032 -10.1386
   -10.0366  -9.8156  -9.6833  -9.5857  -9.3846  -9.1096  -9.0386  -8.9061
    -8.5938  -8.5765  -8.4359  -8.3233  -8.2098  -8.1560  -8.0914  -8.0239
    -7.9259  -7.8078  -7.6378  -7.6171  -7.5454  -7.4509  -7.2798  -7.2710
    -7.1379  -6.9555  -6.7988  -6.7385  -6.5726  -6.3579  -6.2503  -6.1594
    -5.9639  -5.8422  -5.6907  -5.6208  -5.4973  -5.4134  -5.3193  -5.1829
    -5.1021  -5.0817  -4.9060  -4.6941  -4.5491  -4.5163  -4.4651  -4.2954
    -4.0565  -3.9210  -3.7525  -3.4273  -3.3144  -3.0540  -2.8070  -2.7041
    -2.4416  -2.4224   0.5040   0.5092   0.7672   0.8383   1.1205   1.3827
     1.4615   1.6448   1.7710   1.8701   2.0529   2.0908   2.2585   2.3962
     2.4536   2.4799   2.5700   2.6442   2.7813   2.9858   3.0913   3.2346
     3.3568   3.5396   3.5865   3.6616   3.7533   3.9294   4.0796   4.2163
     4.2593   4.2723   4.5437   4.5808   4.6505   4.7000   4.8173   5.0020
     5.1651   5.1713   5.2748   5.2987   5.3999   5.5510   5.5933   5.6529
     5.7567   5.8851   5.9310   6.0698   6.1123   6.1803   6.2137   6.3152
     6.4753   6.5685   6.6766   6.7079   6.8827   6.9469   6.9626   7.0156
     7.0169   7.0858   7.1172   7.1580   7.2104   7.2342   7.2567   7.2848
     7.2960   7.3488   7.3825   7.3964   7.4621   7.5078   7.5558   7.5794
     7.6035   7.6884   7.7486   7.7687   7.8539   7.9174   7.9599   7.9976
     8.0241   8.0950   8.1444   8.2087   8.2212   8.2300   8.2681   8.3314
     8.3799   8.3830   8.4201   8.4692   8.4892   8.5412   8.5733   8.6360
     8.6541   8.7221   8.7493   8.7564   8.8548   8.9037   8.9666   8.9753
     9.0610   9.0850   9.1511   9.2507   9.2635   9.3189   9.3735   9.3794
     9.4543   9.4634   9.5103   9.5584   9.6098   9.6424   9.6682   9.6790
     9.7127   9.7910   9.8279   9.8626   9.8990   9.9514   9.9577   9.9768
    10.0668  10.1215  10.1314  10.1818  10.2175  10.2710  10.3163  10.3877
    10.4171  10.4234  10.4565  10.5461  10.5961  10.6072  10.6407  10.6825
    10.7227  10.7607  10.8899  10.9224  11.0151  11.0779  11.2052  11.2310
    11.3930  11.4199  11.4433  11.4967  11.5156  11.5447  11.5959  11.6345
    11.6972  11.7723  11.8061  11.8505  11.8634  11.9451  11.9774  11.9992
    12.0114  12.1072  12.1160  12.1278  12.1613  12.2102  12.2286  12.2985
    12.3495  12.3760  12.3886  12.4218  12.4695  12.4843  12.4991  12.5133
    12.5212  12.5974  12.6186  12.6418  12.6740  12.6938  12.7051  12.7244
    12.8632  12.8830  12.9296  12.9574  13.0398  13.0631  13.0878  13.1255
    13.1503  13.2967  13.3003  13.3695  13.3738  13.4019  13.4370  13.5081
    13.5382  13.5542  13.5710  13.6000  13.6110  13.6246  13.6537  13.6834
    13.7006  13.7227  13.7603  13.7679  13.9132  13.9883  14.1361  14.1883
    14.2401  14.3157  14.3425  14.3873  14.3935  14.5627  14.6473  14.6954
    14.7309  14.7648  14.7897  14.8560  14.9182  14.9898  15.0083  15.1005
    15.1205  15.1558  15.2277  15.2318  15.2874  15.2948  15.3921  15.4063
    15.4324  15.4724  15.5150  15.5397  15.5500  15.5913  15.6267  15.6297
    15.6743  15.7004  15.7068  15.7764  15.7898  15.8032  15.8462  15.9056
    15.9197  15.9577  16.0275  16.0500  16.0658  16.0921  16.1117  16.1506
    16.2111  16.2475  16.3438  16.4170  16.4330  16.4594  16.5110  16.5235
    16.5591  16.5749  16.6327  16.6677  16.6806  16.7067  16.7372  16.7988
    16.8360  16.8627  16.8817  16.9201  16.9483  16.9951  17.0239  17.0934
    17.1112  17.1287  17.2056  17.2892  17.3000  17.3265  17.3404  17.3616
    17.4117  17.4164  17.4351  17.4585  17.4959  17.5255  17.5912  17.6275
    17.6329  17.6826  17.7187  17.7498  17.8149  17.8654  17.8806  17.9405
    18.0291  18.0364  18.0805  18.1097  18.1211  18.1508  18.1857  18.2557
    18.3036  18.3202  18.3709  18.4091  18.4941  18.5572  18.6040  18.6128
    18.6565  18.6868  18.7097  18.7454  18.7859  18.8292  18.8491  18.8644
    18.8727  18.8901  18.9043  18.9212  18.9421  18.9907  19.0302  19.0477
    19.1042  19.1456  19.2402  19.3041  19.3798  19.4081  19.4513  19.5456
    19.5741  19.6128  19.6671  19.7454  19.7557  19.8358  19.9066  19.9272
    19.9969  20.0006  20.0438  20.1142  20.1423  20.1578  20.1818  20.2120
    20.2244  20.2372  20.2735  20.3127  20.3821  20.4318  20.4693  20.4781
    20.5065  20.5642  20.6611  20.6761

          k = 0.0000 0.0000 0.0563 ( 48080 PWs)   bands (ev):

   -25.3282 -25.3256 -23.5842 -23.5804 -20.1225 -20.0770 -19.9382 -19.7314
   -19.4545 -19.1151 -18.7138 -18.2523 -17.7285 -17.1832 -17.1300 -17.0809
   -16.9733 -16.7812 -16.5958 -16.4798 -16.2408 -15.9142 -15.8724 -15.4701
   -15.3431 -15.0333 -14.9249 -13.7947 -13.6531 -13.5461 -13.2854 -13.0951
   -12.7375 -12.5936 -12.1420 -12.0723 -11.7866 -11.7272 -11.6940 -11.5895
   -11.5397 -11.5315 -11.2048 -10.9153 -10.8882 -10.6772 -10.2368  -9.9934
    -9.9143  -9.7729  -9.6352  -9.5047  -9.3131  -9.0789  -9.0237  -8.8190
    -8.5683  -8.5416  -8.3591  -8.2624  -8.2268  -8.0955  -8.0382  -7.9705
    -7.8657  -7.7543  -7.6137  -7.5837  -7.5554  -7.4163  -7.2311  -7.2202
    -7.1028  -6.9441  -6.8455  -6.7196  -6.5368  -6.3816  -6.3174  -6.1188
    -6.0148  -5.9233  -5.7025  -5.6390  -5.5897  -5.4724  -5.3977  -5.3415
    -5.2112  -5.0588  -5.0012  -4.7896  -4.7212  -4.6360  -4.4750  -4.4650
    -4.2258  -3.9358  -3.8769  -3.5847  -3.3167  -3.2133  -2.8548  -2.8399
    -2.5391  -2.5189   0.5481   0.6003   0.8214   0.9052   1.2843   1.3276
     1.6379   1.7286   1.8872   1.9976   2.0511   2.2763   2.4950   2.5273
     2.6400   2.6439   2.6818   2.7321   2.7440   3.0590   3.1559   3.3052
     3.4064   3.4851   3.6493   3.7239   3.8220   3.9906   4.1527   4.2114
     4.2985   4.3415   4.5804   4.6344   4.7208   4.7683   4.8622   4.9678
     5.2281   5.2350   5.3239   5.3607   5.4650   5.5844   5.6145   5.6801
     5.6986   5.8358   5.8639   6.0751   6.1159   6.2184   6.2584   6.3392
     6.4430   6.5023   6.6563   6.7060   6.7854   6.8364   6.9298   6.9521
     6.9945   7.0176   7.0649   7.0969   7.1385   7.1900   7.2018   7.2239
     7.2511   7.2719   7.2975   7.3132   7.4135   7.4332   7.4677   7.5303
     7.5929   7.6121   7.6262   7.7316   7.7696   7.8080   7.8292   7.9012
     7.9501   8.0098   8.0802   8.1352   8.1959   8.2286   8.2582   8.2822
     8.3011   8.3171   8.3803   8.4035   8.4290   8.4330   8.4779   8.5036
     8.5512   8.6248   8.6787   8.7166   8.7265   8.7780   8.8230   8.8711
     8.9298   8.9782   9.0599   9.1280   9.1891   9.2553   9.2724   9.3042
     9.3123   9.3425   9.3735   9.4248   9.4789   9.5105   9.5645   9.6763
     9.7037   9.7405   9.7836   9.8169   9.8520   9.8672   9.9206  10.0102
    10.0197  10.0277  10.0701  10.0917  10.1720  10.2217  10.2832  10.2999
    10.3554  10.3932  10.4548  10.4949  10.5455  10.6073  10.6473  10.6690
    10.6900  10.8095  10.8192  10.8752  11.0120  11.0923  11.1429  11.1828
    11.2243  11.2541  11.3304  11.3902  11.4473  11.5483  11.6244  11.6433
    11.6873  11.7540  11.7824  11.8445  11.8544  11.9484  11.9624  12.0112
    12.0345  12.0956  12.1318  12.1498  12.1799  12.2114  12.2172  12.2709
    12.3108  12.3500  12.3647  12.3868  12.4105  12.4356  12.4620  12.4797
    12.5078  12.5149  12.5860  12.6084  12.6395  12.6809  12.7212  12.7259
    12.8467  12.9181  12.9810  13.0032  13.0731  13.1114  13.1219  13.1809
    13.1862  13.2543  13.3279  13.3813  13.3983  13.4059  13.4521  13.4787
    13.5030  13.5419  13.5729  13.6007  13.6414  13.7096  13.7398  13.7480
    13.7668  13.8228  13.8330  13.9156  13.9855  14.0452  14.1809  14.2504
    14.3060  14.3568  14.4035  14.4233  14.4651  14.5720  14.5875  14.6445
    14.6496  14.7189  14.8015  14.8509  14.9913  15.0419  15.0521  15.1331
    15.2069  15.2370  15.2931  15.3344  15.3511  15.4466  15.4715  15.4790
    15.4838  15.5355  15.5489  15.5583  15.5980  15.6074  15.6823  15.7068
    15.7436  15.7581  15.7869  15.8404  15.8629  15.8743  15.9010  15.9338
    15.9590  16.0141  16.0256  16.0390  16.0814  16.1292  16.1458  16.2661
    16.2965  16.3238  16.3516  16.4021  16.4163  16.4279  16.4865  16.5336
    16.5526  16.5928  16.6690  16.7184  16.7299  16.7470  16.7756  16.8152
    16.8659  16.8958  16.9334  16.9511  16.9709  17.0049  17.1063  17.1256
    17.1620  17.1874  17.2625  17.2908  17.3240  17.3691  17.3924  17.4061
    17.4432  17.4816  17.4982  17.5774  17.6153  17.6292  17.6828  17.6976
    17.7487  17.7558  17.8305  17.8546  17.8735  17.9073  17.9286  18.0257
    18.0677  18.0840  18.1441  18.1545  18.1898  18.2222  18.2584  18.2902
    18.3759  18.4477  18.4813  18.5385  18.5694  18.5756  18.6276  18.6738
    18.6913  18.7284  18.7468  18.7828  18.7951  18.8630  18.8728  18.8979
    18.8991  18.9355  18.9883  18.9995  19.0556  19.0679  19.1198  19.1643
    19.2536  19.3283  19.3411  19.3671  19.4446  19.4603  19.5337  19.5931
    19.6156  19.7127  19.7311  19.7605  19.7953  19.8332  19.9092  19.9292
    20.0057  20.0081  20.0508  20.1133  20.1446  20.1976  20.2345  20.2480
    20.3226  20.3677  20.3895  20.4127  20.4451  20.5028  20.5185  20.5252
    20.5679  20.6107  20.6464  20.6547

          k = 0.0000 0.0000 0.0610 ( 48124 PWs)   bands (ev):

   -25.2961 -25.2936 -23.6337 -23.6301 -20.0636 -20.0183 -19.8798 -19.6733
   -19.3967 -19.0577 -18.6570 -18.1963 -17.6749 -17.2970 -17.2750 -17.1399
   -17.1015 -16.9349 -16.7083 -16.4806 -16.3880 -16.0235 -15.8776 -15.6005
   -15.3481 -15.1262 -14.9730 -13.8272 -13.6758 -13.5589 -13.2859 -13.1078
   -12.7475 -12.6098 -12.1410 -12.0820 -11.6353 -11.5574 -11.4938 -11.4813
   -11.3530 -11.3251 -11.2140 -10.8737 -10.8051 -10.7085 -10.2954  -9.8942
    -9.7997  -9.7280  -9.5328  -9.3979  -9.2883  -9.0581  -8.9309  -8.7502
    -8.5691  -8.4816  -8.3046  -8.2109  -8.1830  -8.0313  -7.9737  -7.9192
    -7.8027  -7.7218  -7.6564  -7.5317  -7.4952  -7.3619  -7.1897  -7.1628
    -7.1010  -6.9605  -6.8359  -6.7148  -6.5102  -6.4232  -6.3683  -6.1229
    -6.0538  -5.9891  -5.7809  -5.7202  -5.6221  -5.5264  -5.4942  -5.4711
    -5.3157  -5.1337  -4.9885  -4.9016  -4.8808  -4.8056  -4.6334  -4.4320
    -4.3925  -4.0948  -3.8545  -3.7481  -3.3739  -3.3121  -2.9968  -2.8863
    -2.6468  -2.5973   0.5904   0.6894   0.8146   1.0394   1.2738   1.4478
     1.7732   1.8590   1.8709   2.0693   2.2057   2.4998   2.5917   2.6250
     2.7205   2.7399   2.8102   2.8961   2.9905   3.1388   3.2304   3.3553
     3.3838   3.5185   3.7260   3.7909   3.8921   4.0589   4.1542   4.2332
     4.3748   4.4204   4.6343   4.6740   4.7971   4.8403   4.9120   4.9396
     5.2973   5.3078   5.3525   5.4114   5.5084   5.5464   5.6087   5.6446
     5.7092   5.8473   5.8553   6.0466   6.1623   6.2595   6.2701   6.3871
     6.4042   6.4412   6.5261   6.6084   6.6848   6.7580   6.8249   6.9100
     6.9369   6.9576   7.0151   7.0302   7.0716   7.1111   7.1560   7.1634
     7.1892   7.2469   7.2813   7.2973   7.3679   7.3854   7.4016   7.4419
     7.4608   7.5963   7.6225   7.6438   7.6726   7.7372   7.7547   7.7844
     7.8535   7.9445   7.9823   8.0212   8.0678   8.1191   8.1648   8.1961
     8.2228   8.2664   8.3020   8.3305   8.3542   8.3990   8.4536   8.4757
     8.5334   8.5609   8.5962   8.6243   8.6512   8.7051   8.7270   8.7723
     8.8707   8.9139   8.9599   9.0224   9.0405   9.0935   9.1310   9.1498
     9.1840   9.2359   9.3176   9.3761   9.4115   9.4503   9.4697   9.5327
     9.5997   9.6870   9.7306   9.7411   9.8160   9.8375   9.8574   9.9392
     9.9734  10.0151  10.0908  10.0978  10.1240  10.1572  10.1596  10.2771
    10.3378  10.3721  10.4538  10.4623  10.4835  10.5574  10.6271  10.7084
    10.7254  10.7873  10.8374  10.8898  10.9886  11.0229  11.0556  11.0790
    11.1207  11.1815  11.2210  11.3279  11.3504  11.5540  11.5824  11.6651
    11.6842  11.7320  11.7538  11.8050  11.9069  11.9359  11.9465  12.0041
    12.0491  12.1082  12.1115  12.1285  12.1331  12.1664  12.2068  12.2297
    12.2475  12.2978  12.3116  12.3398  12.3694  12.3715  12.4364  12.4681
    12.5488  12.5606  12.5865  12.6054  12.6411  12.6497  12.7122  12.8236
    12.8639  12.9289  12.9671  13.0564  13.1026  13.1237  13.1687  13.1793
    13.1968  13.2130  13.2428  13.2846  13.3333  13.3452  13.4370  13.4737
    13.4879  13.5673  13.5850  13.6108  13.6707  13.7133  13.8012  13.8594
    13.9095  13.9296  13.9676  14.0677  14.0991  14.1414  14.2229  14.3062
    14.3421  14.3657  14.4001  14.4427  14.5010  14.5422  14.5734  14.6158
    14.6483  14.7109  14.8069  14.9421  15.0487  15.0929  15.1139  15.1541
    15.2234  15.2496  15.3076  15.3749  15.4266  15.4352  15.4671  15.5261
    15.5474  15.5660  15.5752  15.5943  15.6300  15.6761  15.6900  15.6997
    15.7090  15.7614  15.7753  15.8420  15.8758  15.9211  15.9795  16.0217
    16.0605  16.0809  16.0993  16.1074  16.1618  16.1828  16.2262  16.3057
    16.3339  16.3591  16.3857  16.4276  16.4609  16.5195  16.5317  16.5767
    16.6091  16.6637  16.6821  16.6837  16.7173  16.7363  16.8427  16.8703
    16.8826  16.9519  16.9709  16.9947  17.0413  17.1224  17.1458  17.1687
    17.2180  17.2466  17.3447  17.3527  17.4023  17.4247  17.4604  17.4705
    17.5011  17.5172  17.6048  17.6260  17.6708  17.7043  17.7644  17.8235
    17.8689  17.8889  17.8974  17.9452  17.9755  18.0046  18.0207  18.0894
    18.1070  18.1234  18.1649  18.2242  18.2420  18.3455  18.3542  18.3984
    18.4225  18.5181  18.5773  18.6198  18.6433  18.6843  18.7005  18.7318
    18.7540  18.7695  18.7982  18.8191  18.8436  18.8574  18.8796  18.9342
    18.9543  19.0052  19.0416  19.0666  19.1101  19.1285  19.3044  19.3367
    19.3793  19.3859  19.4226  19.4438  19.5686  19.5804  19.6142  19.6532
    19.6806  19.7087  19.7692  19.7794  19.8331  19.8778  19.9369  19.9509
    19.9708  19.9936  20.0574  20.0824  20.1466  20.2005  20.3149  20.3379
    20.3630  20.3853  20.4041  20.4491  20.4892  20.5100  20.5672  20.5679
    20.6487  20.6984  20.7468  20.8119

          k = 0.0000 0.0000 0.0657 ( 48122 PWs)   bands (ev):

   -25.2624 -25.2600 -23.6844 -23.6811 -20.0001 -19.9551 -19.8167 -19.6105
   -19.3343 -18.9959 -18.5958 -18.1362 -17.6208 -17.4568 -17.4302 -17.2950
   -17.1316 -17.0158 -16.8564 -16.5424 -16.4340 -16.1643 -15.8652 -15.7075
   -15.3945 -15.1803 -15.0330 -13.8475 -13.7459 -13.5306 -13.3130 -13.1015
   -12.7482 -12.6293 -12.1396 -12.1005 -11.5945 -11.5185 -11.2767 -11.2513
   -11.1852 -11.1159 -11.0932 -10.9098 -10.7412 -10.6615 -10.3387  -9.9322
    -9.6507  -9.5957  -9.4166  -9.3737  -9.2061  -8.9963  -8.8368  -8.7135
    -8.5591  -8.4040  -8.2778  -8.1305  -8.1122  -7.9693  -7.9077  -7.8772
    -7.7799  -7.7093  -7.6107  -7.4775  -7.4312  -7.3051  -7.2014  -7.1072
    -7.0992  -6.9489  -6.8180  -6.7202  -6.5257  -6.4784  -6.3687  -6.1912
    -6.1407  -5.9615  -5.8956  -5.8432  -5.7097  -5.6573  -5.5463  -5.5039
    -5.3906  -5.2413  -5.0680  -4.9939  -4.9738  -4.9323  -4.7989  -4.5600
    -4.3831  -4.2587  -3.9113  -3.8234  -3.5284  -3.3192  -3.1296  -2.9476
    -2.7379  -2.6764   0.6361   0.7435   0.8467   1.1496   1.2434   1.6094
     1.8023   1.8704   2.0363   2.1437   2.4103   2.5098   2.6960   2.7360
     2.8106   2.8957   2.9806   3.1521   3.2243   3.2518   3.2663   3.3118
     3.4668   3.5943   3.8089   3.8566   3.9485   4.1054   4.1358   4.3191
     4.4584   4.5055   4.6730   4.6986   4.8777   4.9063   4.9483   4.9697
     5.2752   5.3675   5.3832   5.4048   5.4993   5.5527   5.6107   5.6526
     5.7555   5.8918   5.9051   6.0189   6.1291   6.2353   6.2570   6.3375
     6.3671   6.4424   6.4790   6.5028   6.5558   6.6911   6.7432   6.7892
     6.8565   6.9122   6.9421   6.9573   7.0218   7.0559   7.0768   7.1018
     7.1189   7.2166   7.2684   7.2863   7.2964   7.3495   7.4138   7.4199
[...]
     5.2713   5.3126   5.3751   5.3997   5.4169   5.4536   5.5628   5.6406
     5.6721   5.7147   5.7730   5.8193   5.8273   5.9242   6.0198   6.0682
     6.1961   6.2548   6.2848   6.3077   6.3179   6.3602   6.4007   6.4325
     6.4855   6.5179   6.5469   6.5655   6.6052   6.6212   6.6669   6.6846
     6.7230   6.7466   6.7986   6.8113   6.8432   6.8746   6.9240   6.9470
     6.9998   7.0594   7.0913   7.1135   7.1583   7.1703   7.2176   7.2731
     7.2841   7.3184   7.3521   7.3643   7.3844   7.3971   7.4628   7.5393
     7.5625   7.6161   7.6824   7.7285   7.7559   7.7816   7.8628   7.9044
     7.9341   8.0666   8.1153   8.1642   8.2017   8.2289   8.2553   8.2698
     8.2849   8.3133   8.3483   8.4082   8.4238   8.4682   8.6451   8.7595
     8.8490   8.9550   8.9838   9.0573   9.1032   9.1683   9.1711   9.2190
     9.2988   9.3170   9.3369   9.3935   9.4069   9.4464   9.6035   9.6107
     9.6374   9.6761   9.7784   9.8903   9.9596  10.0613  10.1274  10.1945
    10.2425  10.3205  10.3318  10.3813  10.4343  10.4793  10.5012  10.5415
    10.5613  10.6219  10.6338  10.7431  10.7788  10.8935  10.9192  10.9891
    11.0281  11.0306  11.0677  11.0954  11.1744  11.2529  11.3068  11.3649
    11.3666  11.4045  11.4208  11.5799  11.7039  11.7173  11.7455  11.7804
    11.8033  11.8534  11.8581  11.8778  11.9188  11.9913  12.0215  12.0406
    12.0987  12.1057  12.1607  12.2303  12.2919  12.3361  12.4082  12.4383
    12.4810  12.5398  12.5654  12.6372  12.6547  12.6871  12.7260  12.7836
    12.8269  12.8717  12.9368  12.9973  13.0198  13.0724  13.1013  13.1587
    13.2125  13.2510  13.2732  13.2944  13.3219  13.3833  13.4041  13.4608
    13.4952  13.5999  13.6007  13.6623  13.7955  13.8411  13.8580  13.9450
    13.9699  13.9981  14.0719  14.1266  14.1463  14.1839  14.2050  14.2147
    14.2687  14.3852  14.4078  14.5033  14.5398  14.6244  14.6708  14.7435
    14.7652  14.7928  14.8432  14.9548  14.9638  15.0267  15.0814  15.0976
    15.1247  15.1354  15.2055  15.2965  15.3127  15.3649  15.3774  15.4287
    15.4492  15.5148  15.5558  15.6330  15.6937  15.7478  15.7881  15.8212
    15.8473  15.8989  15.9364  15.9707  16.0459  16.0880  16.1568  16.1880
    16.2075  16.2317  16.3014  16.3277  16.4351  16.4622  16.4695  16.5760
    16.6438  16.6618  16.7601  16.7897  16.8549  16.9035  16.9400  16.9741
    16.9948  17.0620  17.0768  17.1597  17.2142  17.2417  17.2867  17.3268
    17.3519  17.3843  17.4256  17.4659  17.5102  17.5164  17.5320  17.5583
    17.5772  17.5905  17.6415  17.6739  17.7379  17.7445  17.7770  17.7961
    17.8671  17.8879  17.8977  18.0066  18.0503  18.0589  18.0897  18.2991
    18.3074  18.4077  18.4203  18.4564  18.5273  18.5468  18.5674  18.6213
    18.6396  18.6838  18.7218  18.8332  18.8534  18.8831  18.9475  19.0001
    19.0206  19.0719  19.0956  19.1593  19.1743  19.1985  19.3106  19.3543
    19.4040  19.4218  19.5115  19.5360  19.5942  19.6004  19.6991  19.8205
    19.8285  19.8695  19.9259  19.9592  19.9827  20.0402  20.1045  20.1130
    20.1188  20.1324  20.1459  20.1780  20.2085  20.3032  20.3695  20.4273
    20.4501  20.5047  20.5278  20.5972  20.6990  20.7025  20.7306  20.7643
    20.8014  20.8147  20.8427  20.8583  20.8667  20.9039  20.9362  21.0294
    21.0530  21.1028  21.1187  21.1701  21.1953  21.2130  21.2670  21.3119
    21.3283  21.3399  21.3801  21.4037

          k = 0.0000 0.0000 0.1080 ( 48128 PWs)   bands (ev):

   -24.9775 -24.9761 -24.0727 -24.0713 -19.2220 -19.1817 -19.0468 -18.8507
   -18.7585 -18.7139 -18.6106 -18.5399 -18.3872 -18.2280 -18.1127 -17.8405
   -17.7779 -17.4069 -17.3687 -16.9498 -16.8664 -16.4463 -16.3212 -15.9202
   -15.7691 -15.4316 -15.3312 -14.0880 -13.9687 -13.6294 -13.4345 -13.0189
   -12.8307 -12.4632 -12.2087 -11.9943 -11.5919 -11.5200 -11.3047 -11.1423
   -10.9559 -10.6011 -10.2746  -9.9015  -9.6179  -9.2887  -9.1122  -9.0069
    -8.9300  -8.8821  -8.8043  -8.4712  -8.3387  -8.2151  -8.0610  -8.0341
    -7.9472  -7.9201  -7.8798  -7.8506  -7.7692  -7.7438  -7.6365  -7.5951
    -7.5008  -7.4368  -7.3939  -7.3620  -7.3075  -7.2802  -7.2514  -7.2448
    -7.2181  -7.1350  -7.0604  -7.0191  -6.8865  -6.8189  -6.7627  -6.7135
    -6.5884  -6.5366  -6.4631  -6.4190  -6.3784  -6.3377  -6.2393  -6.2068
    -6.0211  -5.9586  -5.9500  -5.7667  -5.6042  -5.4927  -5.2031  -5.1604
    -4.7771  -4.7624  -4.3538  -4.2958  -3.9127  -3.8395  -3.5093  -3.4557
    -3.1256  -3.1090   0.8245   0.8710   1.1172   1.2400   1.6178   1.7781
     2.2276   2.3832   2.8253   2.9703   3.0009   3.1463   3.5227   3.6130
     3.6811   3.7731   3.8149   3.9061   3.9606   4.1967   4.1995   4.2901
     4.3893   4.4633   4.4904   4.5333   4.6064   4.6226   4.7491   4.8183
     4.8719   4.9024   4.9553   5.0784   5.1218   5.1691   5.1809   5.2550
     5.3244   5.3673   5.3997   5.4967   5.5120   5.5452   5.5655   5.6386
     5.6500   5.7302   5.7628   5.8077   5.9384   5.9464   5.9809   6.0464
     6.0686   6.1524   6.1787   6.2254   6.3078   6.3442   6.4431   6.4516
     6.4677   6.5210   6.5589   6.5774   6.5822   6.5919   6.6036   6.6297
     6.6783   6.6831   6.7401   6.7497   6.8395   6.8542   6.8761   6.9218
     6.9408   7.0105   7.0439   7.0882   7.1058   7.1294   7.1657   7.2230
     7.2556   7.2606   7.3358   7.3640   7.3838   7.3957   7.4769   7.4871
     7.5419   7.5803   7.6110   7.6602   7.7110   7.7683   7.8162   7.8966
     7.9373   8.0214   8.0468   8.0585   8.1318   8.1741   8.2320   8.3058
     8.3545   8.3681   8.4055   8.4261   8.4748   8.5226   8.6475   8.7099
     8.8557   8.8914   8.9293   8.9611   9.0071   9.0523   9.1148   9.1332
     9.2672   9.3061   9.4149   9.4170   9.4835   9.5208   9.6242   9.7037
     9.7102   9.7687   9.8537   9.8709   9.9158  10.0037  10.0762  10.1096
    10.1505  10.1791  10.2301  10.2977  10.3678  10.3802  10.4516  10.5468
    10.5992  10.6174  10.7022  10.7136  10.8054  10.9098  11.0139  11.0716
    11.1384  11.1418  11.1679  11.1818  11.2029  11.2425  11.2626  11.3560
    11.3735  11.4712  11.4947  11.5682  11.6276  11.6640  11.7068  11.7155
    11.7538  11.7852  11.8371  11.8461  11.8809  11.9105  11.9596  12.0103
    12.0296  12.0612  12.1806  12.2079  12.2537  12.3226  12.4336  12.4653
    12.5161  12.5273  12.5569  12.6034  12.6328  12.6731  12.6930  12.7913
    12.8858  12.9064  12.9864  13.0306  13.0622  13.0694  13.1523  13.1566
    13.1822  13.2443  13.2660  13.3509  13.3689  13.4154  13.4460  13.4611
    13.5201  13.5307  13.6210  13.6555  13.7372  13.7537  13.8373  13.8687
    13.9193  13.9844  14.0034  14.0487  14.0992  14.1143  14.1821  14.3000
    14.3267  14.3532  14.4089  14.4343  14.5512  14.5903  14.6851  14.7642
    14.7939  14.8221  14.9379  14.9658  15.0233  15.0397  15.0755  15.0976
    15.1211  15.1456  15.1852  15.2197  15.3102  15.3447  15.3783  15.4197
    15.4873  15.5434  15.5918  15.6214  15.6955  15.7952  15.8207  15.8772
    15.8972  15.9067  15.9528  15.9676  16.0398  16.0891  16.1160  16.1630
    16.2230  16.2866  16.3556  16.3729  16.4823  16.5259  16.5383  16.5658
    16.6057  16.6739  16.7398  16.7844  16.8265  16.8599  16.8836  16.9406
    16.9613  17.0524  17.0998  17.1162  17.1956  17.2290  17.2476  17.3357
    17.3520  17.4323  17.4335  17.4532  17.4971  17.5193  17.5386  17.5714
    17.6053  17.6372  17.6528  17.6728  17.7043  17.7589  17.7681  17.7821
    17.8288  17.8651  17.9544  17.9921  18.0423  18.0789  18.1232  18.2228
    18.3058  18.3436  18.4060  18.4197  18.4559  18.5185  18.5386  18.5769
    18.6751  18.6762  18.7308  18.7960  18.8391  18.9037  18.9530  18.9944
    19.0505  19.0810  19.1175  19.1757  19.2598  19.3010  19.3588  19.3659
    19.4592  19.4872  19.5413  19.6423  19.7681  19.7999  19.8617  19.9087
    19.9357  19.9749  19.9961  20.0582  20.0807  20.1103  20.1178  20.1582
    20.2486  20.2908  20.3301  20.3584  20.3773  20.4814  20.5276  20.5605
    20.5746  20.6428  20.7402  20.7640  20.7801  20.8243  20.8326  20.8740
    20.9127  20.9321  20.9371  20.9851  20.9932  21.0006  21.0533  21.0757
    21.1016  21.1130  21.1260  21.1430  21.2052  21.2410  21.2930  21.3044
    21.3377  21.3468  21.3723  21.4524

          k = 0.0000 0.0000 0.1127 ( 48146 PWs)   bands (ev):

   -24.9652 -24.9638 -24.0880 -24.0866 -19.1136 -19.0750 -18.9446 -18.8766
   -18.8449 -18.7357 -18.7023 -18.5039 -18.4576 -18.2302 -18.1280 -17.8974
   -17.7363 -17.5046 -17.2856 -17.0548 -16.7763 -16.5485 -16.2356 -16.0137
   -15.6997 -15.4963 -15.3112 -14.1178 -13.9280 -13.6927 -13.3805 -13.0767
   -12.7769 -12.4970 -12.1639 -12.0118 -11.5618 -11.5233 -11.3268 -11.1945
   -10.9236 -10.6413 -10.2415  -9.9249  -9.5808  -9.2550  -9.0485  -8.8376
    -8.7749  -8.6843  -8.6239  -8.5116  -8.3237  -8.2566  -8.1727  -8.1050
    -8.0888  -8.0863  -7.7547  -7.7538  -7.6815  -7.6295  -7.5483  -7.5322
    -7.4620  -7.4338  -7.4273  -7.4127  -7.3960  -7.3916  -7.3482  -7.3457
    -7.2693  -7.1485  -6.9579  -6.9519  -6.8726  -6.8067  -6.7176  -6.6713
    -6.6459  -6.6122  -6.4890  -6.4701  -6.4340  -6.3030  -6.2537  -6.2217
    -6.0991  -6.0268  -5.9451  -5.7922  -5.6279  -5.4804  -5.2795  -5.0971
    -4.8882  -4.6692  -4.4579  -4.2170  -4.0000  -3.7859  -3.5660  -3.4378
    -3.1461  -3.1116   0.8150   0.9009   1.0713   1.3120   1.5362   1.8850
     2.1186   2.5098   2.7532   3.0581   3.0859   3.2490   3.4523   3.5029
     3.7605   3.7752   3.9109   4.0194   4.0634   4.1416   4.2612   4.3050
     4.3587   4.4384   4.4461   4.5698   4.6111   4.6610   4.7804   4.8322
     4.8692   4.8924   4.9901   5.0387   5.1191   5.1572   5.2188   5.2760
     5.3400   5.3725   5.4730   5.4925   5.5115   5.5615   5.6540   5.6874
     5.7479   5.7532   5.7625   5.8896   5.8914   5.9634   5.9761   6.0685
     6.0773   6.1182   6.1328   6.1699   6.2087   6.2987   6.3583   6.3896
     6.4014   6.5198   6.5226   6.5505   6.5713   6.5913   6.5933   6.6387
     6.6698   6.6973   6.7209   6.7573   6.7978   6.8289   6.8534   6.8814
     6.9555   6.9803   7.0120   7.0321   7.0914   7.0961   7.1389   7.1703
     7.2185   7.2503   7.2979   7.3495   7.4063   7.4208   7.4333   7.4734
     7.5372   7.5997   7.6370   7.6566   7.7010   7.7398   7.8011   7.8479
     7.9258   7.9441   7.9484   8.0014   8.0672   8.1150   8.2563   8.3002
     8.3883   8.4343   8.4680   8.5054   8.5866   8.6211   8.6737   8.7218
     8.7795   8.7994   8.8334   8.8667   8.9266   8.9583   9.0153   9.0927
     9.2608   9.3505   9.4095   9.5125   9.5872   9.6027   9.6786   9.7081
     9.7794   9.8183   9.8773   9.9187   9.9276   9.9542  10.0067  10.0517
    10.0755  10.0985  10.1201  10.2317  10.2411  10.2963  10.4113  10.5040
    10.6522  10.6986  10.7136  10.7609  10.8901  10.9600  11.0367  11.0539
    11.0860  11.1358  11.1876  11.2600  11.2875  11.3087  11.3541  11.3873
    11.4815  11.4993  11.5343  11.5459  11.5722  11.5788  11.5977  11.6486
    11.6924  11.7261  11.7485  11.7821  11.9041  11.9377  11.9731  12.0178
    12.0338  12.0803  12.1379  12.2114  12.2288  12.2904  12.3524  12.4270
    12.4611  12.5036  12.5827  12.6404  12.6692  12.6899  12.7220  12.8304
    12.8670  12.9488  12.9659  12.9854  13.0748  13.0846  13.1311  13.1988
    13.2206  13.2543  13.2915  13.3580  13.4039  13.4594  13.4622  13.5092
    13.5253  13.5642  13.5874  13.6247  13.6903  13.7225  13.7560  13.8301
    13.8699  13.9011  13.9554  14.0215  14.0735  14.1485  14.1970  14.2769
    14.2905  14.3293  14.4352  14.4954  14.5536  14.5892  14.6988  14.7901
    14.8287  14.8387  14.9070  14.9820  15.0278  15.0442  15.0693  15.0830
    15.1281  15.1631  15.1861  15.2263  15.3058  15.3162  15.3338  15.4413
    15.5394  15.5869  15.6206  15.6408  15.7109  15.8064  15.8226  15.8430
    15.8582  15.8912  15.9884  16.0086  16.0465  16.0656  16.1353  16.1637
    16.2311  16.3397  16.3733  16.4672  16.4927  16.5037  16.5508  16.6082
    16.6489  16.6707  16.6992  16.7561  16.7978  16.8408  16.9169  16.9197
    16.9481  16.9862  17.1000  17.1227  17.1385  17.1760  17.2705  17.3324
    17.3520  17.3872  17.4071  17.4412  17.4740  17.5428  17.5656  17.5796
    17.6023  17.6493  17.6681  17.7022  17.7324  17.7443  17.7974  17.8109
    17.8616  17.8940  17.9343  18.0118  18.0276  18.1210  18.1372  18.1713
    18.2280  18.2686  18.3018  18.4030  18.4284  18.4830  18.5237  18.5425
    18.6399  18.6928  18.7378  18.8109  18.8526  18.9185  18.9395  19.0265
    19.0621  19.0742  19.0941  19.2223  19.2635  19.3308  19.4004  19.4372
    19.4797  19.5131  19.6663  19.7576  19.7961  19.8435  19.8606  19.8734
    19.8967  19.9840  20.0708  20.1771  20.2018  20.3008  20.3225  20.3506
    20.4214  20.4772  20.5030  20.5109  20.5480  20.5799  20.5983  20.6431
    20.6794  20.7409  20.7812  20.7909  20.8176  20.8564  20.8876  20.9145
    20.9503  20.9803  20.9924  21.0088  21.0714  21.0830  21.1410  21.1550
    21.1823  21.2008  21.2298  21.2368  21.2474  21.2785  21.2993  21.3133
    21.3294  21.3442  21.3614  21.3709

          k = 0.0000 0.0000-0.1174 ( 48152 PWs)   bands (ev):

   -24.9610 -24.9596 -24.0933 -24.0919 -19.0125 -18.9935 -18.9787 -18.9388
   -18.8477 -18.7975 -18.6548 -18.5845 -18.3842 -18.3108 -18.0544 -17.9762
   -17.6647 -17.5808 -17.2164 -17.1281 -16.7110 -16.6174 -16.1783 -16.0734
   -15.6607 -15.5336 -15.3041 -14.1281 -13.9070 -13.7212 -13.3564 -13.1024
   -12.7532 -12.5153 -12.1382 -12.0274 -11.5420 -11.5302 -11.3330 -11.2175
   -10.9074 -10.6601 -10.2267  -9.9370  -9.5663  -9.2471  -9.0298  -8.7913
    -8.6520  -8.6202  -8.4648  -8.4370  -8.3682  -8.3640  -8.2569  -8.2565
    -8.1235  -8.1226  -7.6356  -7.6146  -7.5949  -7.5729  -7.5665  -7.5167
    -7.5072  -7.4925  -7.4430  -7.4421  -7.4343  -7.4067  -7.3795  -7.3765
    -7.3718  -7.0768  -7.0022  -6.8583  -6.8459  -6.7979  -6.7527  -6.6829
    -6.6649  -6.5635  -6.5499  -6.4902  -6.4637  -6.2770  -6.2522  -6.1840
    -6.1766  -6.0087  -6.0000  -5.7365  -5.7052  -5.3954  -5.3742  -5.0012
    -4.9890  -4.5957  -4.5353  -4.1678  -4.0522  -3.7594  -3.5936  -3.4309
    -3.1536  -3.1124   0.8117   0.9157   1.0512   1.3531   1.4919   1.9660
     2.0369   2.6166   2.6546   3.1127   3.1282   3.3264   3.3701   3.4475
     3.7280   3.8535   3.9823   4.0514   4.1247   4.1385   4.2048   4.2508
     4.3286   4.4211   4.5348   4.5837   4.6173   4.7109   4.7262   4.7589
     4.9255   4.9470   4.9794   4.9828   5.1171   5.2034   5.2541   5.2629
     5.3130   5.3867   5.4127   5.4585   5.6153   5.6220   5.6744   5.7047
     5.7589   5.7701   5.7849   5.8531   5.8673   5.9342   5.9934   6.0873
     6.1252   6.1318   6.1828   6.2056   6.2438   6.2461   6.2783   6.3040
     6.3456   6.3524   6.5286   6.5449   6.5673   6.5721   6.6436   6.6619
     6.6962   6.7259   6.7316   6.7552   6.7828   6.8296   6.8653   6.9012
     6.9074   6.9719   6.9761   6.9802   7.0390   7.1242   7.1270   7.2234
     7.2356   7.2558   7.2764   7.2985   7.3520   7.4047   7.4255   7.4996
     7.5676   7.5911   7.6621   7.7076   7.7282   7.7515   7.7875   7.8035
     7.8124   7.8905   7.9762   7.9884   8.0344   8.1218   8.2653   8.2688
     8.3773   8.4597   8.5303   8.6238   8.6477   8.6709   8.6852   8.6987
     8.7536   8.7704   8.7736   8.8200   8.8446   8.8683   8.9956   9.1111
     9.2786   9.2923   9.5272   9.5274   9.5748   9.6321   9.7282   9.7444
     9.7729   9.8254   9.8519   9.9337   9.9357   9.9692   9.9879  10.0322
    10.0380  10.0859  10.1114  10.1525  10.2014  10.2404  10.4267  10.4625
    10.6418  10.7398  10.7518  10.8717  10.8818  10.9171  11.0073  11.0124
    11.0634  11.1852  11.2449  11.2466  11.3791  11.4129  11.4186  11.4313
    11.4319  11.4733  11.4931  11.5107  11.5385  11.5616  11.5638  11.5961
    11.6568  11.6774  11.7308  11.8588  11.8986  11.9332  11.9687  12.0636
    12.0738  12.0932  12.1244  12.1462  12.2457  12.2477  12.2762  12.4167
    12.4509  12.5058  12.5795  12.6599  12.6977  12.7199  12.7661  12.7773
    12.8713  12.9267  12.9563  13.0150  13.0690  13.1239  13.1287  13.1365
    13.1948  13.3302  13.3367  13.3973  13.4009  13.4383  13.4538  13.5131
    13.5316  13.5776  13.5931  13.6306  13.6725  13.6816  13.7780  13.7790
    13.8337  13.8636  13.9490  13.9986  14.0892  14.1930  14.2108  14.2409
    14.2507  14.3056  14.4541  14.5255  14.5381  14.6412  14.7117  14.7987
    14.8287  14.8472  14.8649  14.9552  15.0215  15.0563  15.0698  15.1125
    15.1145  15.1654  15.2180  15.2474  15.2537  15.2915  15.3393  15.4828
    15.5505  15.5938  15.6211  15.6618  15.7426  15.7820  15.8137  15.8290
    15.8315  15.8865  15.9808  16.0142  16.0358  16.1028  16.1477  16.1793
    16.2726  16.3065  16.3890  16.4574  16.5025  16.5337  16.5616  16.5960
    16.6243  16.6803  16.6886  16.7827  16.8314  16.8435  16.8679  16.9156
    16.9835  17.0166  17.0219  17.0824  17.1375  17.1588  17.2850  17.3223
    17.3393  17.3739  17.4032  17.4432  17.4780  17.5519  17.5630  17.5818
    17.5845  17.6176  17.7057  17.7102  17.7555  17.7677  17.8083  17.8166
    17.8757  17.9645  17.9682  17.9839  18.0301  18.0529  18.0963  18.1520
    18.2318  18.2445  18.3041  18.4017  18.4250  18.4532  18.4741  18.5444
    18.6233  18.6944  18.7217  18.8279  18.8852  18.9227  18.9268  19.0404
    19.0556  19.0802  19.1324  19.1419  19.3358  19.3538  19.3704  19.3929
    19.5603  19.5718  19.6491  19.7425  19.7961  19.8630  19.8715  19.9178
    19.9204  19.9627  20.2085  20.2178  20.2508  20.2796  20.3304  20.4129
    20.4387  20.4818  20.6106  20.6646  20.6669  20.6925  20.7096  20.7364
    20.7391  20.7518  20.7714  20.7943  20.8052  20.8691  20.8919  20.9189
    20.9246  20.9459  20.9909  21.0383  21.0762  21.1231  21.1347  21.1638
    21.1770  21.1949  21.2120  21.2476  21.2753  21.2796  21.3022  21.3046
    21.3360  21.3583  21.3652  21.4001

     the Fermi energy is    -0.9072 ev

     Writing output data file AGNR_OH_23.save/

     init_run     :     11.67s CPU     11.90s WALL (       1 calls)
     electrons    :   2878.90s CPU   2894.82s WALL (       1 calls)

     Called by init_run:
     wfcinit      :      0.00s CPU      0.00s WALL (       1 calls)
     potinit      :      0.57s CPU      0.61s WALL (       1 calls)
     hinit0       :      9.86s CPU      9.93s WALL (       1 calls)

     Called by electrons:
     c_bands      :   2878.89s CPU   2894.81s WALL (       1 calls)
     v_of_rho     :      0.44s CPU      0.46s WALL (       1 calls)
     newd         :      0.48s CPU      0.56s WALL (       1 calls)

     Called by c_bands:
     init_us_2    :      0.28s CPU      0.29s WALL (      26 calls)
     cegterg      :   2808.89s CPU   2823.23s WALL (      26 calls)

     Called by sum_band:

     Called by *egterg:
     h_psi        :    477.26s CPU    482.96s WALL (     540 calls)
     s_psi        :     50.97s CPU     51.01s WALL (     540 calls)
     g_psi        :      3.66s CPU      3.66s WALL (     488 calls)
     cdiaghg      :   1541.41s CPU   1542.61s WALL (     514 calls)

     Called by h_psi:
     h_psi:pot    :    473.21s CPU    478.17s WALL (     540 calls)
     h_psi:calbec :     54.92s CPU     55.70s WALL (     540 calls)
     vloc_psi     :    366.90s CPU    370.97s WALL (     540 calls)
     add_vuspsi   :     51.38s CPU     51.49s WALL (     540 calls)

     General routines
     calbec       :     54.91s CPU     55.70s WALL (     540 calls)
     fft          :      0.52s CPU      0.56s WALL (      14 calls)
     ffts         :      0.01s CPU      0.01s WALL (       1 calls)
     fftw         :    332.10s CPU    335.86s WALL (  343470 calls)
     interpolate  :      0.05s CPU      0.06s WALL (       1 calls)
     davcio       :      0.01s CPU      1.04s WALL (      52 calls)

     Parallel routines
     fft_scatt_xy :     51.27s CPU     51.83s WALL (  343485 calls)
     fft_scatt_yz :    110.36s CPU    112.09s WALL (  343485 calls)

     PWSCF        : 48m19.40s CPU    50m29.45s WALL


   This run was terminated on:  11:16:39  22Apr2021            

=------------------------------------------------------------------------------=
   JOB DONE.
=------------------------------------------------------------------------------=
