
     Program PWSCF v.6.3 starts on  2Jan2022 at 17:51:45 

     This program is part of the open-source Quantum ESPRESSO suite
     for quantum simulation of materials; please cite
         "P. Giannozzi et al., J. Phys.:Condens. Matter 21 395502 (2009);
         "P. Giannozzi et al., J. Phys.:Condens. Matter 29 465901 (2017);
          URL http://www.quantum-espresso.org", 
     in publications or presentations arising from this work. More details at
     http://www.quantum-espresso.org/quote

     Parallel version (MPI), running on    16 processors
     R & G space division:  proc/nbgrp/npool/nimage =      16
     Waiting for input...
     Reading input from standard input
     Message from routine read_cards :
     DEPRECATED: no units specified in CELL_PARAMETERS card

     Current dimensions of program PWSCF are:
     Max number of different atomic species (ntypx) = 10
     Max number of k-points (npk) =  40000
     Max angular momentum in pseudopotentials (lmaxx) =  3

     Atomic positions and unit cell read from directory:
     /home/zfwang/scratch/GNRDATASET/AGNR/AGNR_OH_24/AGNR_OH_24.save/


     Subspace diagonalization in iterative solution of the eigenvalue problem:
     a serial algorithm will be used


     Parallelization info
     --------------------
     sticks:   dense  smooth     PW     G-vecs:    dense   smooth      PW
     Min        3440    1147    323               128819    24792    3713
     Max        3442    1149    325               128820    24793    3714
     Sum       55055   18367   5179              2061107   396687   59415



     bravais-lattice index     =            0
     lattice parameter (alat)  =       1.8897  a.u.
     unit-cell volume          =   11608.4040 (a.u.)^3
     number of atoms/cell      =           56
     number of atomic types    =            3
     number of electrons       =       220.00
     number of Kohn-Sham states=          500
     kinetic-energy cutoff     =      40.0000  Ry
     charge density cutoff     =     480.0000  Ry
     Exchange-correlation      = PBE ( 1  4  3  4 0 0)

     celldm(1)=  18.897261  celldm(2)=   4.038000  celldm(3)=   0.426000
     celldm(4)=   0.000000  celldm(5)=   0.000000  celldm(6)=   0.000000

     crystal axes: (cart. coord. in units of alat)
               a(1) = (  10.000000   0.000000   0.000000 )  
               a(2) = (   0.000000  40.380000   0.000000 )  
               a(3) = (   0.000000   0.000000   4.260000 )  

     reciprocal axes: (cart. coord. in units 2 pi/alat)
               b(1) = (  0.100000  0.000000  0.000000 )  
               b(2) = (  0.000000  0.024765  0.000000 )  
               b(3) = (  0.000000  0.000000  0.234742 )  


     PseudoPot. # 1 for C  read from file:
     /home/zfwang/hp_home/MySoftware/qe-6.3/pseudo/C.pbe-n-rrkjus_psl.0.1.UPF
     MD5 check sum: fff530ed632a789b3b184014e67dd7f1
     Pseudo is Ultrasoft + core correction, Zval =  4.0
     Generated using "atomic" code by A. Dal Corso v.5.0.2 svn rev. 9415
     Using radial grid of 1073 points,  4 beta functions with: 
                l(1) =   0
                l(2) =   0
                l(3) =   1
                l(4) =   1
     Q(r) pseudized with 0 coefficients 


     PseudoPot. # 2 for O  read from file:
     /home/zfwang/hp_home/MySoftware/qe-6.3/pseudo/O.pbe-n-rrkjus_psl.0.1.UPF
     MD5 check sum: 73b3d1dec572cf22214b1d95c6304b69
     Pseudo is Ultrasoft + core correction, Zval =  6.0
     Generated using "atomic" code by A. Dal Corso v.6.3MaX
     Using radial grid of 1095 points,  4 beta functions with: 
                l(1) =   0
                l(2) =   0
                l(3) =   1
                l(4) =   1
     Q(r) pseudized with 0 coefficients 


     PseudoPot. # 3 for H  read from file:
     /home/zfwang/hp_home/MySoftware/qe-6.3/pseudo/H.pbe-rrkjus_psl.0.1.UPF
     MD5 check sum: e164a6907b691c6980f16942be34de84
     Pseudo is Ultrasoft, Zval =  1.0
     Generated using "atomic" code by A. Dal Corso v.5.0.2 svn rev. 9415
     Using radial grid of  929 points,  2 beta functions with: 
                l(1) =   0
                l(2) =   0
     Q(r) pseudized with 0 coefficients 


     atomic species   valence    mass     pseudopotential
        C              4.00    12.01070     C ( 1.00)
        O              6.00    18.99840     O ( 1.00)
        H              1.00     1.00794     H ( 1.00)

     No symmetry found



   Cartesian axes

     site n.     atom                  positions (alat units)
         1           C   tau(   1) = (   4.8069272   6.0599150   2.8018075  )
         2           C   tau(   2) = (   4.9438725   7.2405057   3.5498439  )
         3           C   tau(   3) = (   5.1497337   6.0778745   1.4682206  )
         4           C   tau(   4) = (   5.0092366   8.4741151   2.8372475  )
         5           C   tau(   5) = (   5.0155215   9.7102736   3.5507847  )
         6           C   tau(   6) = (   5.0498688   7.2448509   0.7084553  )
         7           C   tau(   7) = (   4.9988137   8.4772755   1.4222208  )
         8           C   tau(   8) = (   5.0064041  10.9406965   2.8418694  )
         9           C   tau(   9) = (   5.0000582  12.1727859   3.5504189  )
        10           C   tau(  10) = (   4.9920938   9.7116465   0.7086520  )
        11           C   tau(  11) = (   4.9968792  10.9412850   1.4181278  )
        12           C   tau(  12) = (   4.9988862  13.4076375   2.8398703  )
        13           C   tau(  13) = (   4.9996008  14.6398725   3.5486461  )
        14           C   tau(  14) = (   4.9998005  12.1728167   0.7096405  )
        15           C   tau(  15) = (   5.0002174  13.4076313   1.4202248  )
        16           C   tau(  16) = (   5.0000181  15.8724229   2.8398504  )
        17           C   tau(  17) = (   5.0000647  17.1067946   3.5500289  )
        18           C   tau(  18) = (   5.0000915  14.6397066   0.7113885  )
        19           C   tau(  19) = (   5.0001043  15.8722091   1.4200139  )
        20           C   tau(  20) = (   5.0000621  18.3390109   2.8409582  )
        21           C   tau(  21) = (   5.0000532  19.5715482   3.5499701  )
        22           C   tau(  22) = (   5.0001080  17.1068347   0.7097650  )
        23           C   tau(  23) = (   5.0000596  18.3392100   1.4187938  )
        24           C   tau(  24) = (   5.0000332  20.8057895   2.8398245  )
        25           C   tau(  25) = (   5.0000568  22.0383243   3.5485179  )
        26           C   tau(  26) = (   5.0000415  19.5714339   0.7098473  )
        27           C   tau(  27) = (   5.0000558  20.8058843   1.4199012  )
        28           C   tau(  28) = (   5.0001027  23.2709015   2.8390547  )
        29           C   tau(  29) = (   5.0000553  24.5061431   3.5479319  )
        30           C   tau(  30) = (   5.0000506  22.0384806   0.7107956  )
        31           C   tau(  31) = (   5.0000221  23.2711471   1.4191788  )
        32           C   tau(  32) = (   5.0000940  25.7386680   2.8372778  )
        33           C   tau(  33) = (   5.0006240  26.9717763   3.5438989  )
        34           C   tau(  34) = (   4.9999626  24.5056560   0.7078597  )
        35           C   tau(  35) = (   4.9997204  25.7390198   1.4145129  )
        36           C   tau(  36) = (   5.0003952  28.2068933   2.8316480  )
        37           C   tau(  37) = (   4.9958754  29.4397037   3.5393918  )
        38           C   tau(  38) = (   4.9994436  26.9709890   0.7034079  )
        39           C   tau(  39) = (   5.0005112  28.2064591   1.4126477  )
        40           C   tau(  40) = (   4.9881032  30.6703146   2.8298559  )
        41           C   tau(  41) = (   4.9945189  31.9074828   3.5419310  )
        42           C   tau(  42) = (   5.0048872  29.4385247   0.7032515  )
        43           C   tau(  43) = (   5.0111936  30.6689040   1.4116288  )
        44           C   tau(  44) = (   5.0576054  33.1414191   2.8289280  )
        45           C   tau(  45) = (   5.1877654  34.3239891   3.5761652  )
        46           C   tau(  46) = (   5.0054224  31.9036669   0.6974272  )
        47           C   tau(  47) = (   4.9530067  33.1368108   1.4099984  )
        48           C   tau(  48) = (   4.8470729  34.3033784   0.6496665  )
        49           O   tau(  49) = (   4.4090062   4.8101232   3.1841111  )
        50           O   tau(  50) = (   5.5295325   4.8215322   1.0138540  )
        51           O   tau(  51) = (   4.4523620  35.5565373   1.1019727  )
        52           O   tau(  52) = (   5.5681711  35.5782313   3.1910652  )
        53           H   tau(  53) = (   4.7960300   4.5947635   4.0991835  )
        54           H   tau(  54) = (   5.2566447   4.2489383   1.7863292  )
        55           H   tau(  55) = (   4.7292295  36.1338175   0.3341739  )
        56           H   tau(  56) = (   5.1699293  35.7874403   2.2779811  )

     number of k points=    26  Marzari-Vanderbilt smearing, width (Ry)=  0.0100
                       cart. coord. in units 2pi/alat
        k(    1) = (   0.0000000   0.0000000   0.0000000), wk =   0.0400000
        k(    2) = (   0.0000000   0.0000000   0.0046948), wk =   0.0800000
        k(    3) = (   0.0000000   0.0000000   0.0093897), wk =   0.0800000
        k(    4) = (   0.0000000   0.0000000   0.0140845), wk =   0.0800000
        k(    5) = (   0.0000000   0.0000000   0.0187793), wk =   0.0800000
        k(    6) = (   0.0000000   0.0000000   0.0234742), wk =   0.0800000
        k(    7) = (   0.0000000   0.0000000   0.0281690), wk =   0.0800000
        k(    8) = (   0.0000000   0.0000000   0.0328638), wk =   0.0800000
        k(    9) = (   0.0000000   0.0000000   0.0375587), wk =   0.0800000
        k(   10) = (   0.0000000   0.0000000   0.0422535), wk =   0.0800000
        k(   11) = (   0.0000000   0.0000000   0.0469484), wk =   0.0800000
        k(   12) = (   0.0000000   0.0000000   0.0516432), wk =   0.0800000
        k(   13) = (   0.0000000   0.0000000   0.0563380), wk =   0.0800000
        k(   14) = (   0.0000000   0.0000000   0.0610329), wk =   0.0800000
        k(   15) = (   0.0000000   0.0000000   0.0657277), wk =   0.0800000
        k(   16) = (   0.0000000   0.0000000   0.0704225), wk =   0.0800000
        k(   17) = (   0.0000000   0.0000000   0.0751174), wk =   0.0800000
        k(   18) = (   0.0000000   0.0000000   0.0798122), wk =   0.0800000
        k(   19) = (   0.0000000   0.0000000   0.0845070), wk =   0.0800000
        k(   20) = (   0.0000000   0.0000000   0.0892019), wk =   0.0800000
        k(   21) = (   0.0000000   0.0000000   0.0938967), wk =   0.0800000
        k(   22) = (   0.0000000   0.0000000   0.0985915), wk =   0.0800000
        k(   23) = (   0.0000000   0.0000000   0.1032864), wk =   0.0800000
        k(   24) = (   0.0000000   0.0000000   0.1079812), wk =   0.0800000
        k(   25) = (   0.0000000   0.0000000   0.1126761), wk =   0.0800000
        k(   26) = (   0.0000000   0.0000000  -0.1173709), wk =   0.0400000

     Dense  grid:  2061107 G-vectors     FFT dimensions: ( 135, 540,  60)

     Smooth grid:   396687 G-vectors     FFT dimensions: (  80, 320,  36)

     Estimated max dynamical RAM per process >     559.22 MB

     Estimated total dynamical RAM >       8.74 GB

     Check: negative/imaginary core charge=   -0.000005    0.000000

     The potential is recalculated from file :
     /home/zfwang/scratch/GNRDATASET/AGNR/AGNR_OH_24/AGNR_OH_24.save/charge-density.dat


     negative rho (up, down):  9.367E-04 0.000E+00
     Starting wfcs are  212 randomized atomic wfcs +  288 random wfcs

     Band Structure Calculation
     Davidson diagonalization with overlap

     ethr =  4.55E-09,  avg # of iterations = 18.5

     total cpu time spent up to now is     2961.9 secs

     End of band structure calculation

          k = 0.0000 0.0000 0.0000 ( 49463 PWs)   bands (ev):

   -25.5101 -25.5085 -23.2327 -23.2177 -20.4504 -20.4056 -20.2801 -20.0875
   -19.8334 -19.5194 -19.1472 -18.7199 -18.2295 -17.6966 -17.1231 -16.5232
   -15.9253 -15.3917 -15.2061 -15.1839 -15.0831 -14.9724 -14.9220 -14.7034
   -14.6453 -14.4282 -14.2838 -14.1619 -14.1313 -14.0349 -14.0028 -13.7988
   -13.7601 -13.7318 -13.4751 -13.4513 -13.3670 -12.9763 -12.6624 -12.4338
   -12.1338 -11.8208 -11.7610 -11.5787 -11.3099 -11.2373 -11.1438 -10.8169
   -10.6920 -10.6490 -10.2274 -10.2062  -9.9972  -9.7113  -9.6130  -9.3454
    -9.2149  -9.0143  -8.8479  -8.8057  -8.7051  -8.5610  -8.4797  -8.4394
    -8.3460  -8.2281  -8.1135  -8.0003  -7.9177  -7.8550  -7.7151  -7.6117
    -7.5336  -7.4945  -7.3137  -7.1286  -7.0782  -6.9168  -6.6222  -6.5600
    -6.3968  -6.1296  -6.1160  -5.7979  -5.7170  -5.5812  -5.3794  -5.3407
    -5.0013  -4.9734  -4.9593  -4.5979  -4.4813  -4.3923  -4.2712  -4.1274
    -4.0469  -3.7444  -3.2350  -3.1533  -3.0809  -2.9874  -2.7446  -2.4318
    -2.4190  -2.0541  -1.7834  -1.6161  -1.1994  -1.1201  -0.6767  -0.5418
    -0.2752   0.0284   0.0751   0.2663   0.4580   0.6033   0.7010   0.7387
     0.7588   1.2306   1.4530   1.4747   2.0783   2.1462   2.2301   2.2580
     2.5819   2.6250   2.8187   2.9789   3.0102   3.1510   3.2955   3.3539
     3.4707   3.7084   3.7167   3.8443   3.8853   3.9662   4.1087   4.2411
     4.3032   4.3117   4.6340   4.7478   4.7995   4.8616   4.8705   4.9424
     4.9844   5.1491   5.1884   5.2941   5.5864   5.6144   5.6818   5.7465
     5.8302   6.1470   6.1934   6.2785   6.4148   6.4780   6.5521   6.6116
     6.6612   6.8011   6.8441   6.9188   7.0056   7.0180   7.2332   7.3333
     7.3402   7.3926   7.4666   7.4690   7.5099   7.5146   7.5894   7.6031
     7.6588   7.6792   7.7386   7.7794   7.8518   7.8651   7.9836   8.0917
     8.1087   8.2662   8.3303   8.3520   8.5721   8.6309   8.6642   8.7178
     8.7825   8.8474   8.8922   8.9038   8.9071   9.0126   9.1266   9.1320
     9.3171   9.3784   9.4496   9.4927   9.5853   9.5944   9.6019   9.6579
     9.7167   9.7477   9.7673   9.7758   9.7836   9.8340   9.8525   9.8683
     9.9509   9.9644   9.9826  10.0576  10.0593  10.0964  10.1198  10.1398
    10.1497  10.1575  10.2128  10.2227  10.2310  10.2608  10.3456  10.3706
    10.3973  10.4119  10.4414  10.4588  10.4670  10.4863  10.5594  10.6647
    10.6824  10.7119  10.7414  10.7484  10.7908  10.8309  10.8502  10.8823
    10.8908  10.8996  10.9942  11.0229  11.0863  11.0905  11.1706  11.1717
    11.2259  11.2276  11.2628  11.3222  11.3435  11.3444  11.3944  11.4061
    11.4601  11.4767  11.4982  11.5251  11.5609  11.5759  11.5876  11.6176
    11.6758  11.7034  11.7164  11.7205  11.7279  11.7345  11.7857  11.7924
    11.8202  11.8254  11.8947  11.9074  11.9347  11.9657  11.9787  11.9919
    12.0340  12.0579  12.0700  12.0971  12.1369  12.1925  12.2032  12.2521
    12.2755  12.3033  12.3067  12.3516  12.3617  12.3984  12.4067  12.4332
    12.4892  12.5805  12.6143  12.6236  12.6546  12.6809  12.7111  12.8373
    12.8432  12.8533  12.8682  12.8743  12.8933  12.9095  12.9669  12.9885
    13.0110  13.0487  13.0629  13.0860  13.1921  13.2097  13.2185  13.2714
    13.3386  13.3429  13.4213  13.4472  13.4717  13.6960  13.7256  13.7529
    13.7751  13.8151  13.8721  13.9009  13.9414  13.9992  14.0518  14.1209
    14.1385  14.2680  14.2726  14.3198  14.3259  14.3679  14.3849  14.4400
    14.4458  14.5055  14.5174  14.5251  14.5777  14.6533  14.6816  14.6933
    14.7395  14.7438  14.8095  14.8643  14.9119  14.9738  14.9931  15.0424
    15.1004  15.1407  15.2497  15.3054  15.3229  15.3527  15.4054  15.4320
    15.5434  15.5565  15.5986  15.6040  15.6702  15.6946  15.7139  15.7427
    15.8204  15.9048  15.9298  15.9556  15.9914  16.0293  16.0564  16.0907
    16.1507  16.1592  16.2173  16.2648  16.2944  16.3203  16.3918  16.4208
    16.4563  16.4707  16.4726  16.5274  16.6008  16.6169  16.6528  16.7007
    16.7267  16.7700  16.8113  16.8176  16.8980  16.9044  16.9661  16.9867
    17.1179  17.1197  17.1373  17.1608  17.1801  17.2108  17.2545  17.2636
    17.3303  17.3575  17.4184  17.4240  17.4624  17.5039  17.5144  17.5358
    17.5368  17.5473  17.5630  17.6657  17.6895  17.7409  17.8622  17.9049
    17.9115  18.0364  18.0547  18.0611  18.1411  18.1440  18.1979  18.2390
    18.2541  18.2817  18.2862  18.3934  18.4195  18.4265  18.4383  18.4549
    18.4972  18.5197  18.5402  18.5416  18.5550  18.5682  18.5985  18.6158
    18.6408  18.6522  18.6850  18.6986  18.6991  18.7038  18.7109  18.7609
    18.7750  18.7866  18.8020  18.8800  18.8868  18.9828  19.0335  19.1201
    19.1781  19.2259  19.2320  19.2458  19.2549  19.3072  19.3580  19.3890
    19.4574  19.5659  19.5827  19.6112

          k = 0.0000 0.0000 0.0047 ( 49467 PWs)   bands (ev):

   -25.5086 -25.5070 -23.2353 -23.2203 -20.4480 -20.4032 -20.2777 -20.0852
   -19.8311 -19.5170 -19.1449 -18.7177 -18.2272 -17.6944 -17.1209 -16.5212
   -15.9239 -15.3996 -15.2481 -15.2316 -15.1207 -15.0052 -14.9209 -14.7544
   -14.6214 -14.4608 -14.2706 -14.1573 -14.1125 -14.0020 -13.9671 -13.8489
   -13.7267 -13.6967 -13.4525 -13.3980 -13.3504 -12.9866 -12.6702 -12.4380
   -12.1414 -11.8213 -11.7529 -11.5798 -11.3007 -11.2407 -11.1292 -10.8194
   -10.6853 -10.6431 -10.2367 -10.1906  -9.9974  -9.7065  -9.6124  -9.3458
    -9.2125  -9.0118  -8.8516  -8.7964  -8.7050  -8.5621  -8.4781  -8.4343
    -8.3439  -8.2260  -8.1116  -8.0014  -7.9132  -7.8531  -7.7205  -7.6090
    -7.5304  -7.4910  -7.3090  -7.1386  -7.0747  -6.9109  -6.6208  -6.5577
    -6.4020  -6.1340  -6.1062  -5.8032  -5.7155  -5.5818  -5.3827  -5.3371
    -5.0119  -4.9882  -4.9401  -4.6084  -4.4822  -4.3904  -4.2798  -4.1313
    -4.0557  -3.7431  -3.2508  -3.1695  -3.0806  -3.0039  -2.7618  -2.4519
    -2.4192  -2.0756  -1.7898  -1.6436  -1.2282  -1.1775  -0.6199  -0.5143
    -0.2480   0.0500   0.0798   0.2868   0.4780   0.6231   0.7205   0.7376
     0.7783   1.2339   1.4498   1.4782   2.0816   2.1459   2.2293   2.2613
     2.5850   2.6278   2.8207   2.9762   3.0134   3.1541   3.2983   3.3566
     3.4730   3.7113   3.7134   3.8475   3.8885   3.9685   4.1112   4.2442
     4.3063   4.3132   4.6309   4.7504   4.8024   4.8646   4.8734   4.9433
     4.9874   5.1521   5.1914   5.2930   5.5883   5.6173   5.6843   5.7488
     5.8279   6.1470   6.1963   6.2789   6.4171   6.4809   6.5544   6.6141
     6.6606   6.7970   6.8434   6.9183   6.9999   7.0148   7.2354   7.3339
     7.3416   7.3995   7.4644   7.4697   7.5081   7.5168   7.5880   7.6065
     7.6610   7.6815   7.7284   7.7822   7.8529   7.8610   7.9808   8.0781
     8.1148   8.2466   8.3201   8.3589   8.5700   8.6277   8.6596   8.6903
     8.7792   8.8363   8.8976   8.9124   8.9198   9.0130   9.1180   9.1294
     9.2856   9.3850   9.4336   9.4847   9.5615   9.5930   9.5981   9.6448
     9.6868   9.7303   9.7476   9.7737   9.7827   9.8144   9.8187   9.8470
     9.8760   9.8970   9.9451   9.9822  10.0012  10.0198  10.0657  10.0740
    10.1478  10.1533  10.1846  10.2283  10.2757  10.3215  10.3596  10.3917
    10.4042  10.4196  10.4377  10.4687  10.5269  10.5608  10.6029  10.6436
    10.6479  10.7070  10.7315  10.7501  10.7747  10.8211  10.8487  10.8792
    10.8981  10.9498  11.0154  11.0486  11.0749  11.0889  11.0992  11.1201
    11.1817  11.1917  11.2248  11.2464  11.3343  11.3585  11.3906  11.4419
    11.4760  11.4939  11.5127  11.5389  11.5446  11.5454  11.5727  11.5762
    11.6676  11.7022  11.7225  11.7297  11.7479  11.8001  11.8243  11.8511
    11.8809  11.9030  11.9271  11.9410  11.9433  11.9619  11.9906  12.0337
    12.0395  12.0715  12.0941  12.1202  12.1482  12.1932  12.2057  12.2444
    12.2639  12.2836  12.3038  12.3306  12.3572  12.3866  12.4074  12.4388
    12.4601  12.4693  12.5405  12.5935  12.6276  12.6532  12.7288  12.7641
    12.8065  12.8529  12.8704  12.9022  12.9076  12.9643  12.9747  13.0257
    13.0410  13.0688  13.0987  13.1232  13.1758  13.2244  13.2724  13.3089
    13.3432  13.3957  13.4047  13.4588  13.4806  13.6875  13.7219  13.7485
    13.7836  13.8313  13.8485  13.9315  13.9454  13.9820  14.0398  14.1267
    14.1657  14.2584  14.3101  14.3134  14.3349  14.3822  14.4245  14.4470
    14.4557  14.4784  14.5353  14.5517  14.5721  14.6419  14.6740  14.7157
    14.7585  14.7663  14.7864  14.8510  14.9086  14.9387  14.9866  15.1018
    15.1085  15.1781  15.2681  15.2832  15.3225  15.3588  15.3912  15.4401
    15.5085  15.5558  15.5700  15.5933  15.6369  15.6581  15.7197  15.7838
    15.8361  15.8602  15.8905  15.9309  15.9810  16.0116  16.0352  16.0475
    16.1205  16.1481  16.2250  16.3135  16.3585  16.3957  16.4222  16.4658
    16.4854  16.4966  16.5033  16.5746  16.6181  16.6505  16.6852  16.7073
    16.7454  16.7706  16.8012  16.8273  16.8588  16.8801  16.9166  16.9887
    17.0903  17.1049  17.1207  17.1490  17.2028  17.2373  17.2767  17.3083
    17.3436  17.3561  17.3740  17.4154  17.4292  17.4987  17.5216  17.5268
    17.5349  17.5603  17.6158  17.6695  17.6874  17.8203  17.8370  17.8741
    17.9589  17.9951  18.0247  18.0554  18.0886  18.1308  18.1766  18.2060
    18.2482  18.2710  18.2958  18.3864  18.3925  18.4036  18.4091  18.4789
    18.4944  18.5090  18.5206  18.5690  18.5783  18.5867  18.6145  18.6402
    18.6507  18.6599  18.6635  18.6809  18.6939  18.7403  18.7504  18.7662
    18.7852  18.7882  18.8080  18.8639  18.8896  18.9745  19.0101  19.0753
    19.1489  19.1592  19.2200  19.2792  19.3062  19.3157  19.3763  19.3939
    19.4200  19.5737  19.5864  19.6189

          k = 0.0000 0.0000 0.0094 ( 49487 PWs)   bands (ev):

   -25.5042 -25.5026 -23.2432 -23.2283 -20.4409 -20.3961 -20.2706 -20.0781
   -19.8241 -19.5101 -19.1380 -18.7108 -18.2204 -17.6876 -17.1144 -16.5150
   -15.9201 -15.4403 -15.3592 -15.3240 -15.2154 -15.1064 -14.9256 -14.8537
   -14.6221 -14.5178 -14.2867 -14.1627 -13.9998 -13.9776 -13.8904 -13.8607
   -13.6737 -13.5873 -13.3967 -13.2919 -13.2847 -13.0159 -12.6933 -12.4491
   -12.1631 -11.8260 -11.7275 -11.5830 -11.2711 -11.2517 -11.0886 -10.8193
   -10.6925 -10.6036 -10.2512 -10.1626  -9.9924  -9.6978  -9.6086  -9.3448
    -9.2055  -9.0057  -8.8567  -8.7755  -8.7015  -8.5654  -8.4719  -8.4224
    -8.3378  -8.2173  -8.1053  -8.0051  -7.9035  -7.8469  -7.7323  -7.6005
    -7.5215  -7.4808  -7.2966  -7.1659  -7.0647  -6.8939  -6.6158  -6.5581
    -6.4111  -6.1349  -6.0908  -5.8189  -5.7116  -5.5830  -5.3888  -5.3316
    -5.0488  -4.9864  -4.9236  -4.6375  -4.4871  -4.3851  -4.3048  -4.1434
    -4.0821  -3.7392  -3.2975  -3.2169  -3.0803  -3.0520  -2.8123  -2.5069
    -2.4238  -2.1372  -1.8093  -1.7200  -1.3056  -1.3018  -0.4958  -0.4428
    -0.1724   0.0906   0.1152   0.3467   0.5368   0.6812   0.7343   0.7784
     0.8359   1.2435   1.4405   1.4887   2.0913   2.1430   2.2289   2.2710
     2.5942   2.6360   2.8262   2.9686   3.0227   3.1635   3.3067   3.3648
     3.4795   3.7027   3.7213   3.8570   3.8980   3.9753   4.1189   4.2535
     4.3152   4.3178   4.6220   4.7580   4.8111   4.8738   4.8822   4.9459
     4.9965   5.1611   5.2006   5.2899   5.5937   5.6260   5.6914   5.7556
     5.8217   6.1468   6.2051   6.2800   6.4239   6.4894   6.5610   6.6206
     6.6593   6.7854   6.8407   6.9168   6.9834   7.0043   7.2418   7.3353
     7.3449   7.4182   7.4601   7.4732   7.5049   7.5201   7.5846   7.6165
     7.6658   7.6872   7.7032   7.7899   7.8455   7.8588   7.9718   8.0449
     8.1309   8.1899   8.2995   8.3697   8.5632   8.5857   8.6348   8.6589
     8.7585   8.8297   8.9040   8.9275   8.9559   9.0141   9.0953   9.1070
     9.2199   9.3434   9.3967   9.4580   9.4784   9.5107   9.5355   9.5849
     9.6201   9.6310   9.6500   9.7032   9.7484   9.7635   9.7923   9.8011
     9.8404   9.8617   9.8871   9.9230   9.9583   9.9874  10.0223  10.0495
    10.0600  10.0731  10.1063  10.1993  10.2264  10.2543  10.3141  10.3346
    10.3801  10.4008  10.4506  10.5362  10.5413  10.6011  10.6184  10.6427
    10.7056  10.7136  10.7419  10.7572  10.7747  10.8174  10.8623  10.8916
    10.9112  10.9344  10.9496  10.9543  11.0357  11.0500  11.0825  11.0882
    11.1631  11.1967  11.2412  11.2789  11.3170  11.3682  11.3943  11.4059
    11.4303  11.4435  11.4855  11.5046  11.5525  11.5766  11.6273  11.6801
    11.6883  11.7145  11.7663  11.7721  11.7948  11.8127  11.8736  11.9053
    11.9127  11.9267  11.9461  11.9669  11.9844  12.0079  12.0280  12.0980
    12.1080  12.1210  12.1394  12.1475  12.1714  12.1809  12.2286  12.2439
    12.2597  12.2675  12.2824  12.3030  12.3318  12.3461  12.3769  12.4120
    12.4661  12.4937  12.5260  12.5537  12.5889  12.6343  12.6442  12.6994
    12.7685  12.8159  12.8414  12.8590  12.9144  12.9633  12.9821  13.0497
    13.0531  13.1070  13.1821  13.1931  13.2442  13.2701  13.3130  13.3550
    13.3868  13.4110  13.4616  13.6107  13.6318  13.6577  13.6865  13.6956
    13.7527  13.7859  13.8913  13.9525  13.9824  14.0509  14.0924  14.1363
    14.1724  14.1983  14.2837  14.3301  14.3858  14.4313  14.4540  14.4641
    14.4875  14.5232  14.5534  14.5587  14.5938  14.6781  14.6860  14.7195
    14.7609  14.8072  14.8230  14.8596  14.9140  14.9426  15.0046  15.0672
    15.1342  15.2070  15.2397  15.2702  15.3164  15.3447  15.3914  15.4315
    15.4973  15.5479  15.5635  15.5699  15.6021  15.6466  15.6531  15.6958
    15.7993  15.8253  15.8678  15.9042  15.9133  16.0086  16.0390  16.0953
    16.1720  16.2156  16.2546  16.3403  16.3961  16.4454  16.4900  16.5109
    16.5284  16.5465  16.5664  16.5948  16.6737  16.6884  16.7178  16.7303
    16.7554  16.7919  16.8252  16.8342  16.8718  16.9188  16.9458  16.9632
    17.0402  17.1093  17.1254  17.1560  17.1732  17.2296  17.2556  17.3361
    17.3465  17.3709  17.3914  17.4429  17.4630  17.4999  17.5179  17.5399
    17.5561  17.6191  17.6293  17.6862  17.7049  17.7844  17.8045  17.8684
    17.8887  17.9456  17.9543  17.9867  18.0690  18.0805  18.2026  18.2131
    18.2312  18.2583  18.2939  18.3343  18.3459  18.4090  18.4171  18.4395
    18.4582  18.4826  18.5114  18.5351  18.5459  18.5730  18.5871  18.5998
    18.6342  18.6682  18.7096  18.7379  18.7412  18.7748  18.7930  18.8012
    18.8116  18.8291  18.8407  18.8909  18.9078  18.9310  19.0192  19.0349
    19.0810  19.1457  19.1779  19.2708  19.3314  19.3678  19.4087  19.4228
    19.4865  19.5353  19.5492  19.6034

          k = 0.0000 0.0000 0.0141 ( 49453 PWs)   bands (ev):

   -25.4969 -25.4954 -23.2562 -23.2414 -20.4291 -20.3843 -20.2589 -20.0664
   -19.8124 -19.4985 -19.1264 -18.6993 -18.2090 -17.6764 -17.1034 -16.5049
   -15.9151 -15.5512 -15.5050 -15.4305 -15.3001 -15.2463 -15.0149 -14.9229
   -14.6931 -14.5663 -14.3391 -14.1690 -14.0094 -13.8930 -13.7850 -13.7181
   -13.5732 -13.4434 -13.3346 -13.1900 -13.1496 -13.0555 -12.7310 -12.4647
   -12.1947 -11.8425 -11.6848 -11.5823 -11.2858 -11.2043 -11.0346 -10.7976
   -10.7216 -10.5359 -10.2593 -10.1498  -9.9641  -9.6945  -9.6010  -9.3364
    -9.1957  -8.9992  -8.8583  -8.7532  -8.6853  -8.5715  -8.4596  -8.4080
    -8.3283  -8.1978  -8.0936  -8.0147  -7.8965  -7.8348  -7.7388  -7.5857
    -7.5080  -7.4653  -7.2889  -7.1957  -7.0478  -6.8696  -6.6097  -6.5706
    -6.4114  -6.1291  -6.0779  -5.8435  -5.7068  -5.5823  -5.3936  -5.3316
    -5.0928  -4.9784  -4.9170  -4.6809  -4.4998  -4.3788  -4.3426  -4.1646
    -4.1255  -3.7329  -3.3724  -3.2927  -3.1305  -3.0785  -2.8924  -2.5925
    -2.4326  -2.2322  -1.8440  -1.8304  -1.4533  -1.4071  -0.3498  -0.3456
    -0.0611   0.1125   0.2127   0.4416   0.6307   0.7290   0.7748   0.8716
     0.9290   1.2592   1.4257   1.5060   2.1075   2.1324   2.2342   2.2873
     2.6096   2.6490   2.8331   2.9589   3.0380   3.1791   3.3209   3.3785
     3.4890   3.6867   3.7373   3.8728   3.9139   3.9863   4.1320   4.2688
     4.3234   4.3312   4.6087   4.7701   4.8258   4.8891   4.8968   4.9497
     5.0116   5.1760   5.2159   5.2858   5.6014   5.6405   5.7030   5.7670
     5.8129   6.1460   6.2196   6.2823   6.4349   6.5028   6.5715   6.6284
     6.6586   6.7682   6.8346   6.9140   6.9572   6.9867   7.2520   7.3339
     7.3494   7.4377   7.4573   7.4876   7.4994   7.5249   7.5853   7.6315
     7.6480   7.6882   7.7020   7.7922   7.8283   7.8637   7.9540   8.0131
     8.1034   8.1525   8.2731   8.3761   8.4693   8.5507   8.6022   8.6582
     8.7235   8.8260   8.9105   8.9420   8.9820   9.0186   9.0320   9.0689
     9.1868   9.2054   9.2198   9.2515   9.3534   9.4048   9.4332   9.4624
     9.5329   9.5888   9.6396   9.6434   9.6682   9.7327   9.7704   9.8090
     9.8218   9.8322   9.8411   9.8929   9.9039   9.9404   9.9470   9.9856
    10.0098  10.0346  10.0545  10.1135  10.1329  10.1544  10.3259  10.3308
    10.3472  10.3678  10.3844  10.4013  10.4194  10.4876  10.5004  10.5839
    10.6119  10.6658  10.6779  10.6960  10.7440  10.7773  10.7891  10.8604
    10.8993  10.9842  11.0194  11.0523  11.0797  11.1135  11.1173  11.1342
    11.1599  11.1765  11.2635  11.3038  11.3288  11.3604  11.3869  11.4190
    11.4434  11.5093  11.5429  11.5458  11.5996  11.6061  11.6593  11.6786
    11.6958  11.7189  11.7845  11.8034  11.8273  11.8327  11.8470  11.8657
    11.8899  11.9091  11.9521  11.9680  11.9797  12.0002  12.0106  12.0445
    12.0930  12.1180  12.1292  12.1774  12.1924  12.2147  12.2537  12.3038
    12.3414  12.3615  12.3734  12.3902  12.4057  12.4166  12.4303  12.4446
    12.4530  12.4811  12.5472  12.5555  12.5821  12.6138  12.6543  12.6794
    12.7170  12.7530  12.8341  12.8535  12.8776  12.9654  12.9998  13.0270
    13.0623  13.0781  13.1176  13.2174  13.2298  13.3229  13.3441  13.4424
    13.4769  13.5123  13.5787  13.6366  13.6734  13.6872  13.7115  13.7698
    13.8205  13.8886  13.9090  13.9395  14.0049  14.0433  14.1161  14.1494
    14.2321  14.2843  14.3045  14.3238  14.3411  14.4516  14.4665  14.4808
    14.5378  14.5526  14.6064  14.6173  14.6524  14.6796  14.7123  14.7851
    14.8080  14.8366  14.8525  14.8780  14.9507  14.9738  15.0065  15.0599
    15.1625  15.1737  15.1888  15.2587  15.2777  15.3395  15.3739  15.4018
    15.4540  15.4916  15.5094  15.5709  15.5956  15.6236  15.6577  15.6971
    15.7518  15.8108  15.8391  15.9280  15.9571  16.0587  16.1403  16.1564
    16.1791  16.2653  16.2939  16.3386  16.3954  16.4455  16.4646  16.5264
    16.5405  16.6002  16.6034  16.6369  16.6533  16.6754  16.7113  16.7307
    16.7498  16.8436  16.8804  16.8902  16.9399  17.0001  17.0230  17.0447
    17.0680  17.1135  17.1516  17.1877  17.2278  17.2507  17.2968  17.3299
    17.3516  17.4057  17.4229  17.4596  17.4764  17.5003  17.5576  17.5625
    17.5911  17.6009  17.6050  17.6827  17.7155  17.7570  17.7763  17.8058
    17.8089  17.8917  17.8999  17.9602  17.9835  18.0476  18.1032  18.1309
    18.2208  18.2659  18.2882  18.3182  18.3403  18.3657  18.3893  18.3978
    18.4068  18.4120  18.5010  18.5145  18.5665  18.5813  18.6081  18.6109
    18.6382  18.6542  18.6716  18.7042  18.7423  18.7991  18.8038  18.8231
    18.8510  18.8843  18.9025  18.9110  18.9663  18.9993  19.0455  19.0645
    19.1008  19.1875  19.2189  19.2504  19.3286  19.3975  19.4036  19.4837
    19.5017  19.5904  19.5972  19.6215

          k = 0.0000 0.0000 0.0188 ( 49483 PWs)   bands (ev):

   -25.4867 -25.4852 -23.2742 -23.2596 -20.4126 -20.3678 -20.2424 -20.0500
   -19.7961 -19.4822 -19.1103 -18.6833 -18.1931 -17.6607 -17.0881 -16.4909
   -15.9133 -15.7065 -15.6618 -15.5796 -15.4070 -15.3458 -15.1426 -15.0085
   -14.7584 -14.6630 -14.3741 -14.2665 -13.9507 -13.8533 -13.6092 -13.5397
   -13.4360 -13.2876 -13.2627 -13.1381 -13.0183 -13.0072 -12.7800 -12.4836
   -12.2289 -11.8760 -11.6297 -11.5663 -11.3291 -11.1178 -10.9790 -10.7676
   -10.7379 -10.4634 -10.2477 -10.1671  -9.9050  -9.6983  -9.5958  -9.3158
    -9.1835  -8.9943  -8.8551  -8.7350  -8.6492  -8.5805  -8.4410  -8.3907
    -8.3147  -8.1675  -8.0755  -8.0383  -7.8913  -7.8160  -7.7295  -7.5645
    -7.4904  -7.4502  -7.3132  -7.1926  -7.0239  -6.8474  -6.6261  -6.5701
    -6.4013  -6.1193  -6.0709  -5.8735  -5.7031  -5.5778  -5.3968  -5.3426
    -5.1371  -4.9689  -4.9199  -4.7353  -4.5230  -4.4069  -4.3569  -4.1966
    -4.1843  -3.7241  -3.4717  -3.3931  -3.2325  -3.0792  -2.9959  -2.7035
    -2.4459  -2.3523  -1.9687  -1.8873  -1.6100  -1.5263  -0.2367  -0.1957
     0.0737   0.1412   0.3384   0.5656   0.7222   0.7550   0.8992   0.9962
     1.0537   1.2797   1.4070   1.5302   2.1106   2.1302   2.2491   2.3100
     2.6313   2.6650   2.8369   2.9532   3.0594   3.2009   3.3411   3.3978
     3.4981   3.6683   3.7597   3.8950   3.9362   4.0011   4.1509   4.2898
     4.3299   4.3526   4.5937   4.7858   4.8469   4.9102   4.9172   4.9542
     5.0327   5.1969   5.2372   5.2820   5.6090   5.6606   5.7185   5.7821
     5.8053   6.1441   6.2401   6.2857   6.4495   6.5201   6.5835   6.6320
     6.6615   6.7500   6.8218   6.9020   6.9283   6.9652   7.2651   7.3212
     7.3578   7.4458   7.4591   7.4817   7.5158   7.5500   7.5909   7.6038
     7.6537   7.7003   7.7166   7.7527   7.8397   7.8636   7.9297   7.9958
     8.0065   8.1729   8.2425   8.3155   8.3860   8.5138   8.5503   8.6563
     8.6906   8.7829   8.8910   8.9199   8.9251   8.9450   9.0025   9.0118
     9.0243   9.0559   9.0979   9.1522   9.1954   9.2296   9.3265   9.3553
     9.5119   9.5355   9.5640   9.5737   9.5867   9.6529   9.6738   9.7695
     9.7995   9.8102   9.8507   9.8645   9.8739   9.8862   9.9230   9.9477
     9.9778   9.9872  10.0076  10.0432  10.1023  10.1239  10.1657  10.1861
    10.2668  10.2694  10.2969  10.3556  10.3698  10.3968  10.4186  10.4317
    10.4499  10.4556  10.5472  10.5688  10.6316  10.7628  10.7983  10.8278
    10.8449  10.9605  10.9847  10.9966  11.0384  11.1061  11.1252  11.2192
    11.2764  11.2988  11.3502  11.3682  11.4005  11.4102  11.4757  11.4951
    11.5081  11.5150  11.5370  11.5530  11.5703  11.6238  11.6468  11.6653
    11.6663  11.6831  11.7329  11.7427  11.8134  11.8299  11.8536  11.8625
    11.8940  11.9123  11.9590  11.9795  12.0062  12.0130  12.0256  12.0568
    12.1060  12.1472  12.1715  12.2101  12.2245  12.2752  12.2841  12.3161
    12.3236  12.3701  12.3990  12.4641  12.4691  12.4780  12.4853  12.5047
    12.5269  12.5391  12.5912  12.6186  12.6313  12.6491  12.6962  12.7146
    12.7394  12.7714  12.8085  12.8513  12.8742  12.9616  12.9993  13.0078
    13.0545  13.0698  13.1578  13.2189  13.2275  13.3229  13.3516  13.4249
    13.4807  13.5115  13.6410  13.6932  13.7003  13.7481  13.7651  13.8228
    13.8828  13.9521  13.9848  14.0397  14.0842  14.1029  14.1781  14.2054
    14.2723  14.2969  14.3594  14.3886  14.4145  14.4444  14.4600  14.4840
    14.5035  14.5785  14.6287  14.6930  14.7121  14.7504  14.7917  14.8136
    14.8250  14.8485  14.8892  14.9078  14.9329  14.9978  15.0247  15.0832
    15.1226  15.1357  15.2237  15.2520  15.2698  15.3065  15.3812  15.3950
    15.4097  15.5132  15.5322  15.5726  15.6159  15.6327  15.6644  15.6881
    15.7622  15.8368  15.8890  15.9299  16.0330  16.0679  16.1080  16.1998
    16.2201  16.2904  16.3161  16.3492  16.3997  16.4245  16.4741  16.4857
    16.5316  16.5463  16.6324  16.6819  16.6917  16.7076  16.7371  16.7897
    16.8102  16.8796  16.9022  16.9725  16.9919  17.0549  17.0694  17.0730
    17.1159  17.1349  17.1677  17.1882  17.2816  17.3091  17.3399  17.3689
    17.3877  17.4319  17.4722  17.5201  17.5419  17.5537  17.5799  17.5904
    17.5957  17.6045  17.6126  17.6295  17.6448  17.7206  17.7311  17.7786
    17.8120  17.8158  17.8481  17.9223  17.9533  17.9831  18.0752  18.1078
    18.1660  18.1849  18.2299  18.2421  18.2615  18.2884  18.3046  18.3302
    18.3666  18.4316  18.5164  18.5225  18.5428  18.5873  18.5937  18.6429
    18.6626  18.6696  18.7126  18.7386  18.7659  18.8086  18.8192  18.8785
    18.9068  18.9271  18.9449  18.9672  18.9889  19.0610  19.1096  19.1457
    19.1623  19.2307  19.2406  19.2634  19.3294  19.3675  19.3965  19.5369
    19.5551  19.5832  19.6069  19.6861

          k = 0.0000 0.0000 0.0235 ( 49499 PWs)   bands (ev):

   -25.4737 -25.4723 -23.2971 -23.2827 -20.3913 -20.3466 -20.2213 -20.0289
   -19.7751 -19.4613 -19.0895 -18.6626 -18.1727 -17.6406 -17.0686 -16.4734
   -15.9393 -15.8770 -15.7997 -15.7479 -15.5699 -15.4301 -15.2287 -15.1384
   -14.8183 -14.7740 -14.4285 -14.3712 -13.8822 -13.8212 -13.4105 -13.3462
   -13.3054 -13.2439 -13.1166 -13.1004 -12.9113 -12.8603 -12.8009 -12.5077
   -12.2578 -11.9214 -11.5783 -11.5291 -11.3737 -11.0234 -10.9179 -10.8177
   -10.6488 -10.4041 -10.2361 -10.1698  -9.8349  -9.7078  -9.5906  -9.2919
    -9.1616  -8.9938  -8.8452  -8.7169  -8.6023  -8.5849  -8.4164  -8.3677
    -8.2974  -8.1361  -8.0731  -8.0493  -7.8788  -7.7927  -7.7046  -7.5378
    -7.4702  -7.4575  -7.3398  -7.1613  -6.9936  -6.8442  -6.6540  -6.5477
    -6.3904  -6.1146  -6.0651  -5.9035  -5.7028  -5.5689  -5.3999  -5.3680
    -5.1774  -4.9675  -4.9244  -4.7980  -4.5587  -4.4724  -4.3430  -4.2623
    -4.2346  -3.7132  -3.5912  -3.5136  -3.3548  -3.1301  -3.0691  -2.8340
    -2.4928  -2.4617  -2.1180  -1.9485  -1.7664  -1.6541  -0.1213  -0.0401
     0.1769   0.2236   0.4848   0.7126   0.7150   0.9042   1.0499   1.1478
     1.2059   1.3006   1.3893   1.5610   2.0782   2.1593   2.2735   2.3393
     2.6593   2.6796   2.8336   2.9598   3.0869   3.2288   3.3674   3.4223
     3.4994   3.6554   3.7885   3.9234   3.9648   4.0182   4.1759   4.3128
     4.3370   4.3803   4.5817   4.8027   4.8742   4.9355   4.9432   4.9608
     5.0599   5.2234   5.2643   5.2815   5.6121   5.6864   5.7367   5.7916
     5.8132   6.1411   6.2665   6.2901   6.4662   6.5390   6.5834   6.6366
     6.6663   6.7364   6.8015   6.8582   6.9201   6.9464   7.2780   7.2954
     7.3673   7.4510   7.4646   7.4680   7.5250   7.5531   7.5846   7.6324
     7.6668   7.6952   7.7218   7.7407   7.8304   7.8566   7.8974   7.9392
     8.0012   8.1571   8.1981   8.2140   8.3486   8.4390   8.4747   8.6123
     8.6472   8.6669   8.7024   8.7351   8.8356   8.8533   8.9096   8.9403
     8.9534   9.0202   9.0395   9.0766   9.1163   9.1738   9.2276   9.2912
     9.3357   9.3617   9.4258   9.4834   9.5249   9.6354   9.6570   9.6785
     9.7006   9.7959   9.8370   9.8652   9.8702   9.8899   9.8968   9.9099
     9.9303   9.9352   9.9419   9.9869  10.0074  10.0260  10.0519  10.1111
    10.1331  10.1798  10.2082  10.2183  10.2241  10.2391  10.2725  10.3352
    10.3595  10.4173  10.4824  10.5008  10.5552  10.6744  10.7118  10.7721
    10.7958  10.8663  10.8923  10.9401  11.0286  11.1003  11.1308  11.2008
    11.2334  11.2940  11.3206  11.3473  11.3644  11.3827  11.4394  11.4515
    11.4915  11.5424  11.5535  11.5872  11.6012  11.6337  11.6442  11.6845
    11.6996  11.7645  11.7813  11.8230  11.8335  11.8430  11.8695  11.9021
    11.9175  11.9477  11.9878  12.0140  12.0269  12.0387  12.0925  12.1212
    12.1484  12.1853  12.2360  12.2490  12.2633  12.2839  12.3123  12.3437
    12.3542  12.3943  12.4054  12.4341  12.4903  12.5111  12.5250  12.5363
    12.5704  12.5754  12.5988  12.6585  12.6791  12.6962  12.7271  12.7452
    12.8262  12.8318  12.8891  12.9203  12.9449  12.9641  12.9731  13.0172
    13.0407  13.0930  13.1775  13.2178  13.2682  13.3758  13.4428  13.4683
    13.4738  13.5158  13.5849  13.6433  13.6650  13.7356  13.8068  13.8299
    13.9250  13.9702  14.0498  14.1457  14.1997  14.2352  14.2666  14.3199
    14.3417  14.3775  14.4255  14.4304  14.4574  14.4670  14.4813  14.5335
    14.5510  14.6035  14.6679  14.6750  14.7430  14.8013  14.8282  14.8317
    14.8398  14.8600  14.8962  14.9333  14.9579  15.0092  15.0419  15.0455
    15.1074  15.1346  15.2386  15.2856  15.3545  15.3683  15.3961  15.4499
    15.4937  15.5454  15.6073  15.6337  15.6430  15.6559  15.6641  15.7126
    15.7968  15.8230  15.8805  15.9347  15.9804  16.0784  16.1426  16.1583
    16.2245  16.2728  16.3083  16.3614  16.3916  16.4439  16.4853  16.5240
    16.5865  16.6226  16.6699  16.7034  16.7605  16.7720  16.7991  16.8535
    16.8549  16.8890  16.9381  16.9504  17.0271  17.0351  17.0568  17.1161
    17.1466  17.2010  17.2348  17.2568  17.2633  17.3262  17.3351  17.3526
    17.3699  17.4067  17.4485  17.4610  17.5099  17.5726  17.5894  17.6027
    17.6147  17.6318  17.6372  17.6783  17.7070  17.7300  17.7625  17.7749
    17.8142  17.8589  17.9117  17.9235  17.9520  17.9698  17.9932  18.0481
    18.0837  18.1058  18.1295  18.1699  18.2150  18.2886  18.3216  18.3442
    18.3558  18.3753  18.4742  18.5138  18.5652  18.5761  18.5965  18.6395
    18.6867  18.7183  18.7476  18.8076  18.8145  18.8367  18.8597  18.9203
    18.9275  18.9571  18.9828  19.0136  19.0502  19.0731  19.1032  19.1277
    19.1692  19.2658  19.3143  19.3694  19.3847  19.4103  19.4299  19.4931
    19.5562  19.5742  19.7318  19.7638

          k = 0.0000 0.0000 0.0282 ( 49522 PWs)   bands (ev):

   -25.4579 -25.4565 -23.3245 -23.3104 -20.3653 -20.3207 -20.1954 -20.0032
   -19.7495 -19.4358 -19.0642 -18.6375 -18.1478 -17.6160 -17.0448 -16.4534
   -16.0600 -16.0517 -15.9223 -15.8630 -15.7194 -15.5696 -15.2893 -15.2628
   -14.9396 -14.8342 -14.5217 -14.4521 -13.8368 -13.7682 -13.3266 -13.2278
   -13.1519 -13.1384 -12.9919 -12.9476 -12.9173 -12.6914 -12.6836 -12.5399
   -12.2752 -11.9668 -11.5724 -11.4704 -11.3779 -10.9865 -10.8579 -10.7945
   -10.5573 -10.3588 -10.2645 -10.1045  -9.7776  -9.7177  -9.5729  -9.2759
    -9.1218  -9.0028  -8.8247  -8.6956  -8.5922  -8.5369  -8.3857  -8.3393
    -8.2811  -8.1452  -8.0678  -8.0143  -7.8566  -7.7663  -7.6704  -7.5235
    -7.4974  -7.4417  -7.3248  -7.1215  -6.9598  -6.8762  -6.6586  -6.5170
    -6.3890  -6.1278  -6.0484  -5.9296  -5.7082  -5.5578  -5.4128  -5.3979
    -5.2132  -4.9922  -4.9139  -4.8668  -4.6085  -4.5506  -4.3510  -4.3253
    -4.2843  -3.7280  -3.6996  -3.6500  -3.4926  -3.2674  -3.0717  -2.9788
    -2.6425  -2.4877  -2.2735  -2.0325  -1.9109  -1.7869  -0.0032   0.1139
     0.2204   0.3826   0.6461   0.7066   0.8787   1.0734   1.2222   1.3045
     1.3230   1.3814   1.3899   1.5982   2.0372   2.1949   2.3063   2.3749
     2.6818   2.6940   2.8315   2.9817   3.1204   3.2626   3.3994   3.4483
     3.4862   3.6594   3.8237   3.9581   3.9996   4.0349   4.2070   4.3198
     4.3602   4.4142   4.5787   4.8156   4.9080   4.9559   4.9745   4.9809
     5.0930   5.2551   5.2848   5.2994   5.6052   5.7175   5.7563   5.7987
     5.8398   6.1376   6.2932   6.2988   6.4812   6.5506   6.5584   6.6562
     6.6690   6.7149   6.7899   6.8027   6.9211   6.9341   7.2482   7.2988
     7.3721   7.4522   7.4575   7.4751   7.5108   7.5397   7.5623   7.6515
     7.7042   7.7126   7.7265   7.7388   7.7692   7.8381   7.9020   7.9370
     7.9833   8.0599   8.1639   8.2002   8.2379   8.3355   8.3650   8.4127
     8.4667   8.5372   8.5792   8.6529   8.6797   8.7935   8.8057   8.8416
     8.8730   8.9268   8.9898   9.0588   9.0969   9.1391   9.1642   9.1852
     9.2373   9.2517   9.3332   9.3590   9.3691   9.4553   9.6238   9.6383
     9.6822   9.7047   9.7290   9.7848   9.7939   9.8156   9.8284   9.8677
     9.8693   9.9158   9.9257   9.9479   9.9607   9.9889   9.9913  10.0227
    10.0346  10.0372  10.0460  10.0596  10.0995  10.1462  10.2123  10.2884
    10.3165  10.3792  10.4151  10.4644  10.5447  10.5600  10.5803  10.6721
    10.7448  10.8275  10.8523  10.8986  10.9231  10.9609  11.0324  11.1231
    11.1335  11.2069  11.2322  11.2510  11.3284  11.3425  11.3738  11.3990
    11.4291  11.4780  11.5329  11.5680  11.5955  11.6209  11.6797  11.7266
    11.7556  11.7976  11.8195  11.9016  11.9092  11.9242  11.9584  11.9690
    11.9931  12.0115  12.0374  12.0425  12.0750  12.1196  12.1369  12.1812
    12.1930  12.2306  12.2746  12.2805  12.3012  12.3225  12.3320  12.3567
    12.4186  12.4475  12.4622  12.4752  12.5089  12.5321  12.5504  12.5646
    12.5942  12.6120  12.6559  12.6701  12.7023  12.7562  12.7611  12.7954
    12.8488  12.8740  12.8867  12.9370  12.9647  12.9868  13.0295  13.0537
    13.0647  13.1699  13.2183  13.2461  13.3666  13.4133  13.4439  13.4758
    13.5056  13.5387  13.6088  13.6258  13.6834  13.7602  13.7892  13.9031
    13.9057  13.9559  14.0609  14.1097  14.1988  14.2805  14.3662  14.3803
    14.4151  14.4570  14.4826  14.5174  14.5416  14.5661  14.5889  14.6097
    14.6357  14.6637  14.7001  14.7092  14.7479  14.7819  14.8378  14.8543
    14.8872  14.8891  14.9207  14.9403  14.9837  14.9960  15.0359  15.1410
    15.2107  15.2437  15.3092  15.3699  15.3805  15.4400  15.4677  15.4804
    15.5577  15.5893  15.5952  15.6523  15.6667  15.6975  15.7090  15.7168
    15.8018  15.8422  15.8587  16.0087  16.0562  16.0906  16.1083  16.1319
    16.2475  16.2740  16.3207  16.3942  16.4332  16.4651  16.5066  16.5942
    16.6292  16.6517  16.6765  16.7438  16.7677  16.7977  16.8364  16.8768
    16.8835  16.9151  16.9663  17.0020  17.0554  17.0956  17.1050  17.1306
    17.1533  17.1916  17.1998  17.2524  17.2594  17.2865  17.3065  17.3120
    17.3342  17.4386  17.4592  17.4739  17.5192  17.5494  17.5571  17.5694
    17.5820  17.6095  17.6312  17.6812  17.7057  17.7434  17.7802  17.8363
    17.8443  17.8703  17.8912  17.9326  17.9342  17.9836  17.9909  18.0678
    18.1129  18.1427  18.1848  18.2049  18.2513  18.2966  18.3252  18.3988
    18.4037  18.4510  18.4636  18.4724  18.5617  18.6005  18.6334  18.6573
    18.7060  18.7288  18.7671  18.8234  18.8401  18.8506  18.8752  18.8823
    18.9234  18.9536  18.9796  19.0136  19.0636  19.0916  19.1095  19.1543
    19.1741  19.3191  19.3575  19.3915  19.4577  19.4994  19.5616  19.6547
    19.6799  19.7334  19.7483  19.8257

          k = 0.0000 0.0000 0.0329 ( 49528 PWs)   bands (ev):

   -25.4394 -25.4381 -23.3563 -23.3424 -20.3346 -20.2901 -20.1649 -19.9727
   -19.7192 -19.4057 -19.0342 -18.6077 -18.1183 -17.5871 -17.0171 -16.4344
   -16.2303 -16.2222 -16.0966 -15.9648 -15.7874 -15.7293 -15.4431 -15.2983
   -15.0574 -14.9081 -14.6072 -14.5393 -13.8021 -13.7119 -13.3884 -13.1424
   -13.0527 -12.9488 -12.9302 -12.7889 -12.7448 -12.5919 -12.5364 -12.5042
   -12.2738 -12.0029 -11.6201 -11.3964 -11.3272 -11.0456 -10.7834 -10.6757
   -10.5086 -10.3265 -10.2434 -10.0387  -9.7461  -9.7096  -9.5423  -9.2570
    -9.0788  -9.0149  -8.7926  -8.6715  -8.5756  -8.4773  -8.3494  -8.3238
    -8.2668  -8.1599  -8.0318  -7.9692  -7.8269  -7.7387  -7.6435  -7.5793
    -7.4655  -7.4114  -7.2878  -7.0792  -6.9610  -6.8995  -6.6422  -6.4814
    -6.4055  -6.1517  -6.0228  -5.9524  -5.7214  -5.5523  -5.4536  -5.4050
    -5.2473  -5.0394  -4.9413  -4.8915  -4.6748  -4.6383  -4.4507  -4.3482
    -4.2989  -3.8758  -3.7991  -3.6874  -3.6400  -3.4189  -3.1349  -3.0718
    -2.8008  -2.5310  -2.4202  -2.1550  -2.0255  -1.9224   0.1157   0.2440
     0.2925   0.5462   0.6999   0.8184   1.0582   1.2548   1.2869   1.4122
     1.4203   1.5155   1.5764   1.6413   1.9898   2.2370   2.3466   2.4168
     2.6593   2.7349   2.8469   3.0159   3.1598   3.3014   3.4238   3.4472
     3.4989   3.6828   3.8653   3.9990   4.0396   4.0469   4.2439   4.3138
     4.3989   4.4540   4.5887   4.8160   4.9480   4.9732   5.0117   5.0182
     5.1319   5.2906   5.2990   5.3385   5.5856   5.7533   5.7752   5.8175
     5.8741   6.1354   6.2886   6.3363   6.4782   6.5078   6.5605   6.6456
     6.6903   6.6964   6.7465   6.8131   6.9211   6.9313   7.1974   7.3094
     7.3690   7.4326   7.4466   7.4818   7.5055   7.5146   7.5485   7.6149
     7.6456   7.7124   7.7510   7.7891   7.8103   7.8211   7.8510   7.9367
     7.9671   8.0504   8.0685   8.1028   8.1192   8.1624   8.2069   8.2610
     8.3556   8.3884   8.4403   8.4983   8.6356   8.6682   8.7056   8.7415
     8.7564   8.8436   8.8858   9.0246   9.0542   9.0791   9.1077   9.1516
     9.1798   9.1906   9.2348   9.2478   9.2804   9.3447   9.4127   9.4522
     9.5661   9.6275   9.6332   9.6960   9.7228   9.7296   9.7384   9.7546
     9.7763   9.7993   9.8220   9.8678   9.8958   9.8973   9.9276   9.9732
    10.0186  10.0485  10.0637  10.0694  10.0711  10.0799  10.1241  10.1612
    10.2040  10.3176  10.4180  10.4570  10.4696  10.5098  10.5639  10.6080
    10.6296  10.6949  10.7069  10.8031  10.8386  10.8806  10.9100  10.9506
    11.0283  11.0926  11.1609  11.1783  11.2239  11.2492  11.3310  11.4012
    11.4177  11.4821  11.5071  11.5641  11.6140  11.6539  11.6737  11.6870
    11.7273  11.7583  11.7744  11.8738  11.9376  11.9490  11.9695  11.9833
    12.0168  12.0517  12.0914  12.1068  12.1305  12.1418  12.1863  12.1994
    12.2645  12.3057  12.3277  12.3614  12.3817  12.3985  12.4249  12.4330
    12.4655  12.4896  12.5082  12.5319  12.5577  12.5782  12.6217  12.6287
    12.6538  12.6575  12.6769  12.7393  12.7522  12.8073  12.8218  12.8457
    12.8669  12.8980  12.9043  12.9300  12.9747  13.0367  13.0473  13.0939
    13.1271  13.1878  13.2261  13.2763  13.3321  13.3870  13.4201  13.4653
    13.5499  13.5976  13.6473  13.6785  13.7514  13.7799  13.8365  13.9487
    13.9725  14.0091  14.0518  14.1089  14.2057  14.2841  14.3041  14.4083
    14.4272  14.4676  14.4822  14.5412  14.5490  14.5794  14.6098  14.6700
    14.7510  14.7747  14.8332  14.8571  14.8598  14.8754  14.9080  14.9301
    14.9411  14.9499  14.9876  15.0053  15.0480  15.0679  15.1573  15.1764
    15.2887  15.3422  15.3817  15.3955  15.4166  15.4567  15.4777  15.5150
    15.5439  15.5966  15.6220  15.6524  15.6658  15.7025  15.7531  15.7978
    15.8388  15.9091  15.9525  16.0287  16.0876  16.1028  16.2321  16.2544
    16.3033  16.3328  16.3626  16.4171  16.4279  16.5234  16.5508  16.5763
    16.6276  16.6509  16.7023  16.7303  16.7719  16.8130  16.8206  16.8605
    16.8838  16.9332  16.9524  16.9832  17.0160  17.0558  17.0910  17.1551
    17.1678  17.1786  17.2062  17.2217  17.3014  17.3123  17.3214  17.3625
    17.4136  17.4424  17.4521  17.5050  17.5264  17.5377  17.5475  17.5865
    17.5952  17.6109  17.6181  17.6252  17.6557  17.6912  17.7751  17.7915
    17.8145  17.8479  17.9357  17.9521  18.0037  18.0307  18.0723  18.1069
    18.1142  18.1427  18.1966  18.2502  18.3166  18.4125  18.4250  18.4557
    18.5128  18.5599  18.5805  18.5843  18.6363  18.6434  18.6584  18.6747
    18.6946  18.7318  18.7414  18.8089  18.8103  18.8383  18.8501  18.8716
    18.8868  18.9330  18.9621  19.0012  19.0982  19.1150  19.1566  19.2268
    19.2700  19.3501  19.3936  19.4918  19.5265  19.6126  19.6178  19.7567
    19.7762  19.8290  19.8745  19.9152

          k = 0.0000 0.0000 0.0376 ( 49546 PWs)   bands (ev):

   -25.4183 -25.4170 -23.3920 -23.3785 -20.2992 -20.2548 -20.1296 -19.9376
   -19.6843 -19.3709 -18.9997 -18.5735 -18.0845 -17.5539 -16.9856 -16.4526
   -16.3984 -16.3714 -16.2615 -16.1237 -15.8949 -15.7982 -15.5880 -15.3777
   -15.1276 -15.0133 -14.6708 -14.6384 -13.7691 -13.6722 -13.4383 -13.1414
   -13.0921 -12.7481 -12.7206 -12.6559 -12.5913 -12.5591 -12.3980 -12.3205
   -12.2359 -12.0254 -11.6772 -11.3201 -11.2557 -11.1191 -10.7206 -10.5484
   -10.4865 -10.2997 -10.1621  -9.9937  -9.7101  -9.6997  -9.4979  -9.2305
    -9.0781  -8.9789  -8.7581  -8.6460  -8.5393  -8.4246  -8.3442  -8.3061
    -8.2315  -8.1378  -7.9934  -7.9183  -7.7933  -7.7283  -7.6699  -7.5627
    -7.4258  -7.3768  -7.2427  -7.0398  -7.0318  -6.8612  -6.6196  -6.4452
    -6.4419  -6.1741  -6.0047  -5.9654  -5.7442  -5.5710  -5.4836  -5.4082
    -5.2819  -5.1035  -5.0178  -4.8666  -4.7588  -4.7338  -4.5568  -4.4159
    -4.2743  -4.0335  -3.9568  -3.8030  -3.6665  -3.5786  -3.2966  -3.0790
    -2.9588  -2.6421  -2.5069  -2.3051  -2.1188  -2.0587   0.2344   0.3071
     0.4349   0.6769   0.7309   0.9979   1.2455   1.2492   1.4487   1.4764
     1.6149   1.6896   1.7240   1.7877   1.9389   2.2856   2.3939   2.4645
     2.6138   2.7824   2.8819   3.0593   3.2050   3.3349   3.3875   3.4864
     3.5395   3.7204   3.9133   4.0375   4.0492   4.0890   4.2859   4.3123
     4.4452   4.5000   4.6118   4.7977   4.9943   5.0022   5.0542   5.0636
     5.1765   5.3197   5.3309   5.3841   5.5571   5.7868   5.7967   5.8479
     5.9144   6.1378   6.2581   6.3776   6.4299   6.4656   6.5396   6.6232
     6.6873   6.7261   6.7444   6.8409   6.9084   6.9457   7.1449   7.3020
     7.3578   7.3891   7.4229   7.4727   7.4979   7.5117   7.5281   7.5482
     7.5892   7.7163   7.7238   7.7818   7.8038   7.8196   7.8396   7.8840
     7.9230   7.9276   7.9633   8.0137   8.0438   8.0712   8.1285   8.1603
     8.2220   8.2516   8.3510   8.4156   8.4799   8.5306   8.5441   8.5886
     8.6840   8.7751   8.8604   8.9238   8.9453   9.0037   9.0237   9.0476
     9.0968   9.1480   9.1695   9.1821   9.2454   9.2847   9.3161   9.3509
     9.3806   9.4065   9.4473   9.4929   9.5451   9.6263   9.6444   9.6608
     9.7205   9.7544   9.7759   9.8048   9.8222   9.8392   9.8987   9.9201
     9.9385   9.9674  10.0117  10.0245  10.0937  10.1104  10.1370  10.1429
    10.1592  10.3175  10.3667  10.3756  10.3906  10.4206  10.4801  10.5090
    10.5333  10.5878  10.6205  10.6941  10.7076  10.7855  10.8355  10.8773
    10.8990  10.9478  11.0267  11.1222  11.1706  11.2243  11.2529  11.3914
    11.4164  11.4747  11.5028  11.5529  11.5913  11.6201  11.6596  11.6736
    11.7107  11.7399  11.7552  11.8565  11.8645  11.8725  11.9506  11.9848
    12.0293  12.0426  12.0504  12.1083  12.1540  12.1894  12.2327  12.2492
    12.2673  12.3097  12.3395  12.3564  12.3791  12.4377  12.4891  12.5402
    12.5705  12.5860  12.6073  12.6236  12.6389  12.6878  12.7007  12.7066
    12.7441  12.7491  12.7586  12.7922  12.8223  12.8357  12.8400  12.8514
    12.8990  12.9554  12.9645  13.0074  13.0269  13.0738  13.0944  13.1188
    13.1394  13.1498  13.1967  13.2507  13.3220  13.4010  13.4449  13.4948
    13.5877  13.6229  13.6290  13.6790  13.7234  13.7732  13.8809  14.0165
    14.0427  14.0872  14.1293  14.1614  14.2012  14.2520  14.2973  14.3745
    14.4527  14.4792  14.5081  14.5305  14.6041  14.6178  14.6768  14.7219
    14.8256  14.8459  14.8832  14.9202  14.9458  14.9862  14.9920  15.0016
    15.0527  15.0875  15.0934  15.1519  15.2052  15.2254  15.2296  15.2767
    15.2962  15.3277  15.3390  15.3970  15.4298  15.4909  15.5165  15.5610
    15.5803  15.6201  15.7018  15.7127  15.7260  15.7528  15.7926  15.8645
    15.9377  15.9583  16.0040  16.0754  16.1140  16.1647  16.3108  16.3436
    16.3872  16.4022  16.4284  16.4434  16.4977  16.5352  16.5704  16.6160
    16.6333  16.6549  16.6907  16.7190  16.7476  16.7540  16.7827  16.7950
    16.8752  16.8849  16.9019  16.9739  17.0039  17.0667  17.1086  17.1206
    17.1322  17.1899  17.2084  17.2595  17.3264  17.3395  17.3612  17.3819
    17.3897  17.4362  17.4881  17.5049  17.5102  17.5166  17.5564  17.5851
    17.6087  17.6302  17.6409  17.6842  17.7287  17.7402  17.7880  17.8150
    17.8393  17.8921  17.9307  17.9901  18.0509  18.0945  18.1192  18.1323
    18.1359  18.1654  18.2387  18.3020  18.3750  18.4078  18.4664  18.5109
    18.5399  18.5995  18.6152  18.6404  18.6636  18.6730  18.6894  18.7095
    18.7414  18.7772  18.8302  18.8539  18.8811  18.8921  18.9004  18.9413
    18.9698  18.9857  19.0152  19.0520  19.1132  19.1748  19.2301  19.2590
    19.2817  19.3576  19.4806  19.5013  19.5476  19.6563  19.7783  19.8138
    19.8530  19.9275  19.9317  19.9579

          k = 0.0000 0.0000 0.0423 ( 49526 PWs)   bands (ev):

   -25.3946 -25.3934 -23.4314 -23.4182 -20.2590 -20.2148 -20.0898 -19.8979
   -19.6447 -19.3316 -18.9606 -18.5347 -18.0462 -17.5164 -16.9513 -16.6023
   -16.5701 -16.4739 -16.3360 -16.2903 -16.0572 -15.8515 -15.6770 -15.5036
   -15.1518 -15.1394 -14.7515 -14.7171 -13.7447 -13.6514 -13.4694 -13.2175
   -13.0669 -12.7238 -12.5991 -12.4861 -12.4387 -12.3556 -12.2721 -12.1433
   -12.1321 -12.0222 -11.7175 -11.2933 -11.1772 -11.1365 -10.7365 -10.4528
   -10.3692 -10.2940 -10.0793  -9.9295  -9.7362  -9.6298  -9.4334  -9.2282
    -9.0661  -8.9137  -8.7373  -8.6178  -8.4844  -8.4146  -8.3236  -8.2582
    -8.1865  -8.0944  -7.9551  -7.8776  -7.7876  -7.7383  -7.6496  -7.5147
    -7.3855  -7.3381  -7.1975  -7.1144  -6.9960  -6.8151  -6.6008  -6.5016
    -6.4015  -6.1921  -6.0303  -5.9407  -5.7763  -5.6188  -5.5025  -5.4080
    -5.3155  -5.1797  -5.0980  -4.8811  -4.8406  -4.8173  -4.6636  -4.4925
    -4.2460  -4.1979  -4.1208  -3.9669  -3.7444  -3.6494  -3.4622  -3.1560
    -3.0508  -2.8001  -2.5537  -2.4629  -2.2087  -2.1939   0.3522   0.3634
     0.5865   0.6814   0.8922   1.1813   1.2080   1.4452   1.5202   1.6691
     1.7290   1.8355   1.8926   1.9454   2.0123   2.3405   2.4480   2.5122
     2.5597   2.8363   2.9301   3.1104   3.2534   3.2972   3.4128   3.5369
     3.5873   3.7678   3.9676   4.0119   4.1007   4.1429   4.3260   4.3329
     4.4980   4.5517   4.6452   4.7632   5.0437   5.0468   5.1015   5.1155
     5.2264   5.3509   5.3650   5.4356   5.5297   5.7963   5.8363   5.8867
     5.9586   6.1470   6.1815   6.3571   6.4031   6.4272   6.5142   6.6270
     6.6896   6.7583   6.7821   6.8514   6.9018   6.9712   7.0986   7.2562
     7.3181   7.3431   7.3798   7.4264   7.4592   7.4820   7.5115   7.5201
     7.5608   7.5792   7.6623   7.6854   7.6926   7.7589   7.7874   7.8111
     7.8521   7.8933   7.9303   7.9570   8.0568   8.0677   8.0831   8.1053
     8.1483   8.1792   8.2335   8.2912   8.3259   8.3911   8.4126   8.5124
     8.5632   8.7079   8.7167   8.7798   8.8578   8.8974   8.9234   8.9883
     9.0058   9.0415   9.0653   9.1210   9.1391   9.1977   9.2130   9.2905
     9.2985   9.3101   9.3382   9.3477   9.4038   9.4778   9.5061   9.5539
     9.5957   9.6304   9.6907   9.7264   9.7772   9.8059   9.8288   9.8507
     9.8626   9.8854   9.9524  10.0526  10.1104  10.1322  10.1710  10.1802
    10.1974  10.2048  10.2268  10.2442  10.3041  10.3151  10.3765  10.4217
    10.4655  10.5487  10.5749  10.5819  10.6172  10.6496  10.7267  10.7971
    10.8519  10.9005  10.9850  11.0329  11.1022  11.1355  11.2351  11.3011
    11.3654  11.4781  11.4938  11.5653  11.5693  11.6133  11.6362  11.6552
    11.6708  11.6893  11.7301  11.7417  11.8038  11.8662  11.8868  12.0007
    12.0204  12.0494  12.0554  12.1258  12.1627  12.2232  12.2273  12.2511
    12.2863  12.3145  12.3292  12.3616  12.3903  12.4658  12.4897  12.5784
    12.5909  12.6114  12.6253  12.6417  12.6952  12.7131  12.7322  12.7444
    12.7765  12.7967  12.8197  12.8436  12.8845  12.8881  12.9218  12.9755
    13.0051  13.0158  13.0339  13.0817  13.0880  13.1103  13.1368  13.1560
    13.1754  13.1905  13.2844  13.3250  13.3876  13.4092  13.4846  13.4896
    13.5684  13.6221  13.6689  13.7023  13.7172  13.7431  13.8333  13.9119
    14.0349  14.0702  14.0997  14.1737  14.2936  14.3261  14.3641  14.4694
    14.5117  14.5336  14.5736  14.5970  14.6487  14.6739  14.7880  14.8081
    14.8664  14.8812  14.9231  14.9711  15.0048  15.0105  15.0224  15.0681
    15.0939  15.1444  15.2083  15.2263  15.2754  15.2823  15.3350  15.3540
    15.3968  15.4443  15.4845  15.5011  15.5046  15.5173  15.5511  15.5942
    15.6295  15.6736  15.7335  15.7697  15.7800  15.8508  15.9007  15.9350
    16.0415  16.0575  16.0761  16.0893  16.1295  16.1997  16.3207  16.3331
    16.3866  16.4386  16.4596  16.4949  16.5221  16.5472  16.5634  16.5660
    16.6022  16.6229  16.6479  16.7217  16.7407  16.7791  16.8159  16.8453
    16.8656  16.9359  16.9574  16.9836  17.0138  17.0635  17.1013  17.1303
    17.1639  17.1985  17.2410  17.2886  17.2992  17.3383  17.3539  17.3691
    17.3989  17.4183  17.4403  17.4886  17.4961  17.5477  17.5712  17.6090
    17.6225  17.6412  17.6949  17.7392  17.8063  17.8414  17.8735  17.8908
    17.9114  17.9761  17.9831  18.0157  18.0466  18.0998  18.1806  18.2258
    18.2433  18.2577  18.2872  18.3499  18.3781  18.4239  18.4361  18.5209
    18.5648  18.5729  18.6021  18.6516  18.6611  18.7029  18.7162  18.7484
    18.7720  18.8624  18.8697  18.8993  18.9314  18.9843  19.0065  19.0388
    19.0991  19.1227  19.1622  19.1898  19.2090  19.2253  19.2869  19.3575
    19.3912  19.4319  19.4840  19.5556  19.6362  19.7610  19.8098  19.8281
    19.8853  19.9120  19.9705  19.9877

          k = 0.0000 0.0000 0.0469 ( 49578 PWs)   bands (ev):

   -25.3685 -25.3675 -23.4740 -23.4612 -20.2142 -20.1701 -20.0452 -19.8535
   -19.6005 -19.2877 -18.9170 -18.4915 -18.0035 -17.4750 -16.9180 -16.7742
   -16.7376 -16.6367 -16.4607 -16.3344 -16.1995 -15.9812 -15.6860 -15.6463
   -15.2741 -15.1634 -14.8584 -14.7711 -13.7436 -13.6263 -13.5089 -13.2554
   -13.0757 -12.7505 -12.5808 -12.2968 -12.2427 -12.1501 -12.1330 -12.0809
   -11.9517 -11.9047 -11.7265 -11.3465 -11.0933 -11.0643 -10.8048 -10.3721
   -10.2893 -10.2233 -10.0044  -9.8451  -9.7549  -9.5527  -9.3734  -9.2367
    -9.0145  -8.8561  -8.7298  -8.5835  -8.4209  -8.4149  -8.2629  -8.2047
    -8.1412  -8.0431  -7.9334  -7.8868  -7.7663  -7.6962  -7.6101  -7.4614
    -7.3568  -7.2960  -7.2062  -7.1267  -6.9597  -6.7684  -6.6072  -6.5507
    -6.3610  -6.2082  -6.0777  -5.9091  -5.8120  -5.6809  -5.5308  -5.4167
    -5.3481  -5.2522  -5.1814  -5.0022  -4.9497  -4.7987  -4.7605  -4.5761
    -4.3669  -4.2897  -4.2141  -4.1348  -3.9126  -3.6539  -3.6076  -3.3163
    -3.0633  -2.9653  -2.6230  -2.5989  -2.3255  -2.2999   0.4221   0.4679
     0.6809   0.7374   1.0629   1.1649   1.3696   1.5850   1.6450   1.7454
     1.8795   1.8851   2.0602   2.1771   2.2480   2.4014   2.4757   2.5088
     2.5874   2.8965   2.9876   3.1685   3.2157   3.3170   3.4694   3.5931
     3.6398   3.8223   3.9633   4.0284   4.1604   4.2031   4.3606   4.3781
     4.5563   4.6088   4.6851   4.7221   5.0953   5.1051   5.1522   5.1733
     5.2798   5.3726   5.3934   5.4925   5.5257   5.7945   5.8680   5.9272
     5.9961   6.0821   6.1680   6.2562   6.3633   6.4566   6.5166   6.6386
     6.7056   6.7757   6.8212   6.8341   6.9285   7.0056   7.0563   7.1576
     7.2232   7.2899   7.3076   7.3433   7.3825   7.4039   7.4159   7.4635
     7.4977   7.5454   7.5615   7.5821   7.6072   7.6638   7.7230   7.7782
     7.7853   7.8468   7.9222   7.9379   8.0014   8.0227   8.0530   8.0805
     8.1149   8.1258   8.1784   8.1980   8.2552   8.2837   8.3145   8.4415
     8.4777   8.5305   8.5800   8.6381   8.7233   8.7909   8.8353   8.8855
     8.8871   8.9290   8.9359   8.9797   8.9965   9.0798   9.1453   9.1800
     9.2051   9.2625   9.2868   9.3142   9.3371   9.4092   9.4389   9.4552
     9.4703   9.5170   9.5366   9.5648   9.6402   9.7165   9.7618   9.8449
     9.9006   9.9058   9.9082   9.9223   9.9487  10.0270  10.0911  10.1119
    10.1497  10.2094  10.2351  10.2408  10.2850  10.2966  10.3121  10.3236
    10.3680  10.4082  10.4715  10.5183  10.5909  10.6455  10.6706  10.7572
    10.7647  10.8171  10.9643  10.9973  11.0373  11.0698  11.1337  11.2810
    11.3517  11.4210  11.4659  11.4832  11.5097  11.5451  11.5805  11.6083
    11.6313  11.6968  11.7143  11.7332  11.7569  11.8198  11.9089  11.9693
    12.0216  12.0283  12.0997  12.1696  12.1814  12.2258  12.2385  12.2616
    12.2872  12.3437  12.3602  12.3991  12.4121  12.4239  12.4549  12.5048
    12.5144  12.5629  12.5806  12.6268  12.6382  12.6536  12.6893  12.7698
    12.8157  12.8527  12.8800  12.8895  12.9396  12.9437  12.9819  13.0165
    13.0351  13.0509  13.0906  13.1315  13.1817  13.2008  13.2212  13.2756
    13.3303  13.3804  13.3882  13.4006  13.4536  13.4591  13.5283  13.5631
    13.5929  13.6230  13.6390  13.6591  13.6859  13.7424  13.8058  13.8399
    13.9809  14.0456  14.1329  14.1580  14.3304  14.3509  14.4347  14.4959
    14.5660  14.5805  14.6665  14.7056  14.7189  14.7462  14.7727  14.8595
    14.8917  14.9412  14.9682  15.0335  15.0454  15.0638  15.1107  15.1178
    15.1810  15.2256  15.2737  15.3033  15.3193  15.4002  15.4145  15.4389
    15.4598  15.4968  15.5557  15.5898  15.6236  15.6449  15.6609  15.6886
    15.7213  15.7407  15.7655  15.8085  15.8759  15.9290  15.9720  16.0464
    16.0679  16.0835  16.1145  16.1614  16.2058  16.2713  16.2784  16.2992
    16.3332  16.3952  16.4177  16.4246  16.4543  16.4865  16.5526  16.5779
    16.5819  16.6454  16.6826  16.7291  16.7654  16.8056  16.8614  16.9011
    16.9330  16.9638  16.9842  17.0584  17.1011  17.1345  17.1620  17.1902
    17.2219  17.2567  17.2688  17.2760  17.3118  17.3299  17.3602  17.3987
    17.4042  17.4134  17.4393  17.4916  17.5063  17.5641  17.5757  17.5922
    17.6663  17.7501  17.7944  17.8141  17.8256  17.8717  17.8921  17.9207
    17.9939  18.0100  18.0542  18.0894  18.1418  18.1690  18.2119  18.2698
    18.2871  18.3166  18.3386  18.3714  18.4326  18.4641  18.4829  18.5841
    18.6159  18.6355  18.6605  18.6731  18.7138  18.7462  18.7902  18.8086
    18.8486  18.8752  18.8965  18.9166  18.9290  18.9919  19.0633  19.1122
    19.1639  19.2023  19.2310  19.2816  19.3274  19.4034  19.4355  19.4664
    19.5593  19.6471  19.6660  19.7016  19.7438  19.7685  19.7844  19.8200
    19.8808  19.9002  20.0046  20.0184

          k = 0.0000 0.0000 0.0516 ( 49614 PWs)   bands (ev):

   -25.3402 -25.3393 -23.5194 -23.5069 -20.1646 -20.1208 -19.9960 -19.8045
   -19.5518 -19.2392 -18.8689 -18.4438 -17.9566 -17.4299 -16.9494 -16.9385
   -16.8464 -16.8026 -16.6234 -16.4264 -16.2375 -16.1324 -15.7983 -15.6695
   -15.4062 -15.1891 -14.9516 -14.8329 -13.7570 -13.5923 -13.5719 -13.2556
   -13.1141 -12.7521 -12.6090 -12.2216 -12.1070 -12.0071 -11.9424 -11.9098
   -11.7533 -11.7286 -11.6947 -11.4026 -11.0153 -10.9727 -10.8725 -10.4221
   -10.1677 -10.0841  -9.9596  -9.7925  -9.6897  -9.4904  -9.3489  -9.1878
    -8.9474  -8.8497  -8.6925  -8.5389  -8.4029  -8.3440  -8.1988  -8.1461
    -8.1019  -8.0104  -7.9458  -7.8555  -7.7081  -7.6446  -7.5659  -7.4082
    -7.3782  -7.2508  -7.2199  -7.0784  -6.9327  -6.7273  -6.6629  -6.5555
    -6.3284  -6.2231  -6.1344  -5.9097  -5.8263  -5.7485  -5.5737  -5.4495
    -5.4203  -5.2741  -5.2615  -5.1510  -5.0599  -4.8789  -4.7466  -4.6654
    -4.5384  -4.4598  -4.3047  -4.1808  -4.0819  -3.8072  -3.6044  -3.4840
    -3.1327  -3.0705  -2.7771  -2.6572  -2.4478  -2.3934   0.4835   0.5768
     0.6886   0.8852   1.1240   1.2345   1.5543   1.6604   1.6986   1.8516
     1.9302   2.1064   2.2929   2.3927   2.4227   2.4715   2.4930   2.5762
     2.6535   2.9628   3.0524   3.1328   3.2328   3.3792   3.5344   3.6540
     3.6924   3.8806   3.9078   4.0955   4.2262   4.2697   4.4087   4.4152
     4.6172   4.6639   4.6922   4.7339   5.1545   5.1684   5.2024   5.2359
     5.3205   5.3709   5.4349   5.5525   5.5601   5.7824   5.8319   5.9294
     6.0074   6.0850   6.1400   6.2266   6.3162   6.4623   6.5582   6.6457
     6.7083   6.7385   6.8438   6.8777   6.9505   6.9725   7.0075   7.0623
     7.1013   7.1521   7.2360   7.2415   7.2777   7.3082   7.3273   7.3813
     7.4158   7.4608   7.5068   7.5476   7.5773   7.6045   7.6133   7.7358
     7.7398   7.8013   7.8542   7.8766   7.9340   7.9528   7.9756   8.0215
     8.0592   8.0761   8.1868   8.2135   8.2568   8.2629   8.2798   8.3012
     8.3477   8.4103   8.4534   8.5578   8.6142   8.6421   8.6640   8.6742
     8.7205   8.8220   8.8339   8.8962   8.9423   8.9988   9.0096   9.0735
     9.0984   9.1615   9.2242   9.2654   9.2813   9.3216   9.3669   9.3948
     9.4075   9.4207   9.4739   9.4839   9.5703   9.6279   9.6421   9.7037
     9.7430   9.8026   9.8377   9.8568   9.9259   9.9658   9.9747  10.0281
    10.0932  10.1076  10.1630  10.1877  10.2493  10.2712  10.3149  10.3566
    10.3699  10.4040  10.4438  10.4770  10.4952  10.5856  10.6594  10.7002
    10.7340  10.7466  10.8716  10.9265  11.0219  11.0790  11.1365  11.1890
    11.2331  11.3451  11.4144  11.4276  11.4505  11.4705  11.4837  11.5854
    11.6216  11.6648  11.7010  11.7538  11.7847  11.8219  11.8876  11.9884
    12.0157  12.0326  12.1477  12.1538  12.1762  12.2184  12.2643  12.2779
    12.2888  12.3103  12.3239  12.3551  12.3934  12.4118  12.4318  12.4397
    12.4926  12.5043  12.5282  12.5406  12.6091  12.6230  12.6661  12.7735
    12.8125  12.8742  12.8972  12.9486  12.9716  13.0005  13.0044  13.0113
    13.0788  13.1071  13.1575  13.2073  13.2328  13.2807  13.2922  13.3752
    13.3907  13.4079  13.4375  13.4583  13.4795  13.5179  13.5448  13.6024
    13.6209  13.6682  13.6712  13.6842  13.7475  13.8334  13.8517  13.9060
    13.9414  14.0301  14.1259  14.2439  14.3318  14.3953  14.4329  14.4640
    14.5412  14.6232  14.6607  14.6842  14.7260  14.7554  14.8038  14.9176
    14.9724  15.0387  15.0846  15.1069  15.1256  15.1677  15.1775  15.2002
    15.2647  15.2993  15.3565  15.3691  15.4031  15.4323  15.4899  15.5062
    15.5565  15.5815  15.6175  15.6485  15.6789  15.7376  15.7530  15.7939
    15.8114  15.8326  15.8884  15.9020  15.9262  15.9876  16.0039  16.0355
    16.0856  16.0945  16.1139  16.1744  16.1966  16.2339  16.2536  16.3028
    16.3134  16.3437  16.3811  16.4469  16.5004  16.5206  16.5858  16.6114
    16.6392  16.6600  16.6872  16.7128  16.7875  16.8277  16.9233  16.9276
    16.9566  16.9816  17.0322  17.1067  17.1464  17.1888  17.1975  17.2185
    17.2254  17.2948  17.2995  17.3390  17.3618  17.3677  17.4016  17.4278
    17.4987  17.5109  17.5254  17.5748  17.5848  17.6122  17.6438  17.6781
    17.7032  17.7706  17.8286  17.8470  17.8603  17.9266  17.9424  17.9802
    18.0268  18.0362  18.1152  18.1561  18.2092  18.2469  18.2626  18.3149
    18.3266  18.3426  18.3831  18.3948  18.4602  18.5241  18.5759  18.6276
    18.6667  18.7124  18.7370  18.7564  18.7994  18.8256  18.8532  18.8790
    18.9006  18.9123  18.9321  18.9644  19.0460  19.1068  19.1659  19.1960
    19.2070  19.2408  19.3210  19.3556  19.4472  19.4907  19.5332  19.6104
    19.6232  19.6358  19.7552  19.7758  19.8074  19.8394  19.8657  19.8912
    19.9711  19.9800  20.0171  20.0462

          k = 0.0000 0.0000 0.0563 ( 49592 PWs)   bands (ev):

   -25.3098 -25.3090 -23.5671 -23.5550 -20.1104 -20.0668 -19.9421 -19.7509
   -19.4984 -19.1862 -18.8163 -18.3918 -17.9055 -17.3823 -17.1152 -17.0923
   -16.9713 -16.8486 -16.7526 -16.5771 -16.2907 -16.2079 -15.9438 -15.6790
   -15.5088 -15.2533 -15.0096 -14.9059 -13.7685 -13.6611 -13.5405 -13.2707
   -13.1372 -12.7434 -12.6512 -12.1899 -12.1282 -11.7872 -11.7299 -11.7021
   -11.6468 -11.5591 -11.5312 -11.4058 -11.0133 -10.8874 -10.8550 -10.4965
   -10.0925  -9.9601  -9.9042  -9.6944  -9.6289  -9.4532  -9.2760  -9.1357
    -8.8791  -8.8550  -8.6392  -8.4777  -8.3691  -8.2760  -8.1635  -8.0831
    -8.0678  -7.9962  -7.8955  -7.8090  -7.6450  -7.5869  -7.5259  -7.4504
    -7.3449  -7.2017  -7.1850  -7.0295  -6.9257  -6.7414  -6.6700  -6.5525
    -6.3242  -6.2468  -6.1692  -5.9588  -5.8646  -5.7641  -5.6325  -5.5409
    -5.4893  -5.3506  -5.3178  -5.2487  -5.1597  -4.9835  -4.7644  -4.7106
    -4.7008  -4.6307  -4.4747  -4.2536  -4.1427  -3.9756  -3.6528  -3.5853
    -3.2950  -3.0906  -2.9205  -2.7346  -2.5519  -2.4884   0.5475   0.6483
     0.7362   1.0153   1.0998   1.4054   1.6380   1.7040   1.7783   1.9781
     2.0803   2.3072   2.3412   2.5314   2.5452   2.6502   2.6657   2.7273
     2.7455   3.0241   3.0545   3.1235   3.3029   3.4475   3.6060   3.7065
     3.7344   3.8670   3.9490   4.1689   4.2975   4.3425   4.4203   4.4691
     4.6533   4.7039   4.7458   4.7798   5.2145   5.2224   5.2465   5.2985
     5.3265   5.4203   5.4737   5.6033   5.6188   5.7018   5.7744   5.8702
     6.0576   6.1200   6.1348   6.2641   6.2719   6.4489   6.5954   6.6292
     6.6484   6.7361   6.7824   6.8357   6.9004   6.9134   6.9542   7.0037
     7.0459   7.1074   7.1240   7.1512   7.1903   7.1995   7.2527   7.3149
     7.3538   7.3579   7.4120   7.4589   7.5076   7.5892   7.6333   7.6537
     7.6631   7.6896   7.7451   7.8210   7.8554   7.8971   7.9172   8.0044
     8.0167   8.0696   8.0925   8.1506   8.1897   8.2264   8.2583   8.3009
     8.3082   8.3499   8.3948   8.4047   8.4403   8.4548   8.4728   8.5792
     8.6453   8.7068   8.7510   8.7759   8.8279   8.8898   8.9228   8.9786
     9.0477   9.0704   9.1123   9.1414   9.1937   9.2489   9.2591   9.3137
     9.3663   9.4003   9.4082   9.4534   9.4828   9.5267   9.5565   9.5889
     9.6376   9.6929   9.7498   9.7604   9.7874   9.8552   9.8961   9.9674
    10.0214  10.0412  10.0695  10.1657  10.2235  10.2637  10.3397  10.3550
    10.3911  10.3993  10.4438  10.4780  10.4968  10.5257  10.5278  10.6323
    10.7192  10.7595  10.7879  10.9184  10.9982  11.0112  11.0266  11.1763
    11.1863  11.2562  11.3070  11.3646  11.4128  11.4251  11.4645  11.5029
    11.6052  11.6653  11.7193  11.7831  11.8026  11.8331  11.9084  11.9461
    12.0165  12.0488  12.1130  12.1149  12.1424  12.1562  12.1689  12.2192
    12.2340  12.2643  12.2966  12.3489  12.3784  12.3927  12.4215  12.4375
    12.4865  12.5117  12.5292  12.5748  12.6068  12.6198  12.6477  12.7345
    12.8064  12.8967  12.9408  12.9603  12.9696  13.0062  13.0301  13.0379
    13.1316  13.1356  13.1659  13.1964  13.2359  13.3142  13.3303  13.3526
    13.3843  13.4143  13.4249  13.4344  13.4623  13.5063  13.6043  13.6274
    13.6730  13.6956  13.8197  13.8833  13.8965  13.9323  13.9442  13.9731
    14.0337  14.0449  14.1357  14.2659  14.3316  14.3500  14.4057  14.4458
    14.5773  14.6136  14.6614  14.7168  14.7451  14.7796  14.7925  15.0005
    15.0587  15.1010  15.1148  15.1356  15.1853  15.2140  15.2370  15.2929
    15.3058  15.3440  15.4032  15.4488  15.4895  15.5004  15.5194  15.5888
    15.6411  15.6529  15.7360  15.7461  15.7686  15.7743  15.8030  15.8062
    15.8520  15.9054  15.9312  15.9643  15.9778  15.9957  16.0252  16.0566
    16.0732  16.1139  16.1276  16.1464  16.1878  16.2385  16.2608  16.2792
    16.3481  16.3679  16.4366  16.4693  16.5459  16.5709  16.6043  16.6196
    16.6928  16.7567  16.7888  16.8035  16.8178  16.8538  16.9602  16.9748
    16.9997  17.0269  17.0384  17.0887  17.1302  17.1714  17.2127  17.2491
    17.2851  17.3076  17.3469  17.3505  17.4176  17.4333  17.4777  17.5130
    17.5644  17.6030  17.6305  17.6872  17.7081  17.7674  17.7748  17.8012
    17.8345  17.8470  17.8607  17.8717  17.8970  17.9375  18.0090  18.0358
    18.0597  18.1178  18.1757  18.1960  18.2354  18.2947  18.3283  18.3808
    18.4071  18.4306  18.4569  18.4759  18.5103  18.5619  18.6029  18.6590
    18.6688  18.6979  18.7531  18.8252  18.8466  18.8887  18.8946  18.9198
    18.9700  19.0859  19.0977  19.1673  19.1965  19.2511  19.2646  19.2952
    19.3330  19.3735  19.3955  19.4399  19.5118  19.5254  19.5824  19.6128
    19.6470  19.7075  19.7168  19.7306  19.7509  19.8359  19.8689  19.9409
    19.9896  20.0321  20.0686  20.1156

          k = 0.0000 0.0000 0.0610 ( 49612 PWs)   bands (ev):

   -25.2776 -25.2769 -23.6166 -23.6050 -20.0516 -20.0081 -19.8836 -19.6926
   -19.4405 -19.1287 -18.7592 -18.3354 -17.8505 -17.3431 -17.2733 -17.2525
   -17.1303 -16.9724 -16.7530 -16.7248 -16.4415 -16.1960 -16.0636 -15.7647
   -15.5313 -15.3549 -15.0356 -14.9897 -13.7825 -13.7292 -13.5070 -13.3231
   -13.1180 -12.7627 -12.6667 -12.1755 -12.1573 -11.6811 -11.6152 -11.4939
   -11.4681 -11.4059 -11.3156 -11.2785 -11.0693 -10.8160 -10.7763 -10.5571
   -10.1338  -9.8211  -9.7791  -9.6533  -9.5425  -9.3712  -9.1705  -9.1303
    -8.8461  -8.7767  -8.6025  -8.4053  -8.3195  -8.2435  -8.1449  -8.0152
    -8.0057  -7.9496  -7.8278  -7.7603  -7.5894  -7.5539  -7.5235  -7.4475
    -7.2864  -7.1520  -7.1348  -7.0085  -6.9341  -6.7688  -6.6532  -6.5426
    -6.3566  -6.3062  -6.1438  -6.0282  -5.9590  -5.7455  -5.6981  -5.6652
    -5.5498  -5.4940  -5.4224  -5.3025  -5.1749  -5.0886  -4.8876  -4.8590
    -4.8008  -4.6546  -4.6435  -4.4215  -4.1439  -4.1046  -3.8179  -3.5759
    -3.4460  -3.1559  -3.0181  -2.8364  -2.6330  -2.5838   0.6138   0.6696
     0.8370   1.0232   1.1981   1.5579   1.5880   1.7974   1.9576   2.0607
     2.2291   2.2874   2.5634   2.6262   2.7292   2.7753   2.8077   2.9186
     2.9453   3.0052   3.1188   3.1984   3.3773   3.5195   3.6788   3.6843
     3.7979   3.8976   4.0143   4.2486   4.3623   4.3976   4.4216   4.5351
     4.6914   4.7763   4.8102   4.8293   5.1897   5.2889   5.3144   5.3447
     5.3819   5.4677   5.4944   5.5613   5.6457   5.7057   5.7624   5.8006
     6.1152   6.1472   6.1663   6.2247   6.3304   6.4014   6.5111   6.5451
     6.6018   6.6752   6.7074   6.7423   6.8117   6.9101   6.9400   6.9514
     6.9876   7.0010   7.0739   7.1001   7.1315   7.1649   7.1963   7.2484
     7.2759   7.2902   7.3228   7.3648   7.4511   7.5013   7.5230   7.5623
     7.6422   7.6476   7.7048   7.7263   7.8048   7.8319   7.8724   7.8742
     7.9384   7.9851   8.0782   8.1030   8.1477   8.1872   8.1955   8.2082
     8.2355   8.2456   8.2679   8.3094   8.3400   8.4435   8.4660   8.4941
     8.5300   8.5552   8.5899   8.7109   8.7342   8.7662   8.8197   8.8594
     8.9612   9.0174   9.0367   9.0992   9.1389   9.1557   9.1747   9.1988
     9.2373   9.2429   9.2870   9.3767   9.4440   9.5081   9.5302   9.5509
     9.5664   9.6214   9.6537   9.6810   9.6933   9.7286   9.7694   9.8502
     9.9428  10.0310  10.1072  10.1115  10.1367  10.2894  10.3045  10.3272
    10.3648  10.3959  10.4346  10.4598  10.4777  10.4898  10.5508  10.5977
    10.6851  10.7458  10.7822  10.8303  10.8735  10.9533  10.9916  11.1313
    11.1975  11.2346  11.2432  11.2997  11.3571  11.3884  11.4160  11.4922
    11.6229  11.6590  11.7144  11.7714  11.7922  11.8182  11.8734  11.9230
    11.9566  11.9696  11.9970  12.0145  12.0781  12.1237  12.1655  12.2197
    12.2342  12.2455  12.2879  12.3422  12.3525  12.3662  12.4197  12.4910
    12.5169  12.5264  12.5568  12.5806  12.6049  12.6412  12.6472  12.7723
    12.8465  12.8861  12.8945  12.9248  12.9469  12.9829  12.9997  13.0723
    13.0787  13.1077  13.1779  13.1989  13.2288  13.2853  13.2984  13.3379
    13.3618  13.3703  13.4236  13.4883  13.5054  13.5193  13.6738  13.6843
    13.7343  13.7774  13.8949  13.9465  13.9740  14.0467  14.0743  14.0943
    14.1093  14.1357  14.1541  14.1805  14.2294  14.4025  14.4310  14.4805
    14.6066  14.6341  14.6866  14.7540  14.7842  14.8121  14.9158  15.0233
    15.0563  15.0852  15.1242  15.1442  15.2262  15.2394  15.2580  15.2811
    15.3452  15.3701  15.4361  15.4909  15.5213  15.5658  15.5874  15.6179
    15.6611  15.7216  15.7295  15.7490  15.7712  15.8021  15.8310  15.8390
    15.8946  15.9452  15.9586  16.0030  16.0140  16.0331  16.0623  16.0937
    16.1120  16.1260  16.1305  16.2101  16.2389  16.2821  16.3279  16.3329
    16.3795  16.4549  16.4782  16.5709  16.5813  16.6306  16.6482  16.6877
    16.7156  16.7814  16.7949  16.8458  16.9037  16.9586  16.9944  17.0307
    17.0564  17.0699  17.0995  17.1683  17.1999  17.2363  17.2488  17.3080
    17.3351  17.3372  17.3773  17.4054  17.4240  17.4401  17.5316  17.5413
    17.6135  17.6571  17.6938  17.7920  17.8181  17.8394  17.8835  17.8981
    17.9029  17.9658  18.0011  18.0143  18.0548  18.0729  18.0963  18.1141
    18.1545  18.1572  18.2158  18.2536  18.2892  18.3238  18.3941  18.4264
    18.4554  18.4863  18.4978  18.5214  18.5543  18.6284  18.6720  18.7293
    18.7771  18.8059  18.8228  18.8570  18.8794  18.8962  18.9618  18.9752
    19.0489  19.1996  19.2623  19.2700  19.3142  19.3288  19.3637  19.3994
    19.4232  19.4534  19.5059  19.5351  19.5919  19.6195  19.6482  19.6534
    19.7050  19.7327  19.7449  19.7840  19.7905  19.8520  19.8642  19.9450
    19.9732  20.0241  20.0344  20.0886

          k = 0.0000 0.0000 0.0657 ( 49596 PWs)   bands (ev):

   -25.2438 -25.2432 -23.6675 -23.6562 -19.9880 -19.9449 -19.8205 -19.6298
   -19.3780 -19.0666 -18.6978 -18.2748 -17.7924 -17.4514 -17.4151 -17.3240
   -17.2355 -17.1256 -16.8892 -16.7083 -16.5786 -16.2839 -16.0757 -15.8923
   -15.5119 -15.4714 -15.0823 -15.0511 -13.8338 -13.7428 -13.5168 -13.3495
   -13.0970 -12.8012 -12.6557 -12.1883 -12.1693 -11.6624 -11.5904 -11.2895
   -11.2374 -11.2046 -11.1291 -11.0904 -11.0693 -10.7975 -10.7075 -10.5599
   -10.1884  -9.7889  -9.6407  -9.5571  -9.4257  -9.2626  -9.1737  -9.0336
    -8.7858  -8.7047  -8.5662  -8.3474  -8.2695  -8.2245  -8.0801  -7.9443
    -7.9334  -7.8886  -7.7556  -7.7229  -7.6324  -7.5112  -7.4577  -7.3963
    -7.2296  -7.1070  -7.0790  -7.0614  -6.9047  -6.7726  -6.6688  -6.5227
    -6.4109  -6.3648  -6.1331  -6.0902  -6.0533  -5.8491  -5.7996  -5.6944
    -5.6533  -5.6103  -5.4884  -5.4000  -5.2076  -5.1199  -5.0572  -4.9716
    -4.9608  -4.8092  -4.6040  -4.5873  -4.3084  -4.0706  -3.9754  -3.6477
    -3.5128  -3.2823  -3.0555  -2.9537  -2.6988  -2.6778   0.6817   0.6838
     0.9483   0.9896   1.3396   1.4987   1.7467   1.8835   2.1408   2.1466
     2.1503   2.4978   2.7125   2.7947   2.8102   2.8543   2.8946   3.0228
     3.1755   3.2049   3.2684   3.2727   3.4505   3.5768   3.6409   3.7681
     3.8712   3.9672   4.0712   4.3278   4.3350   4.4650   4.5068   4.6031
     4.7533   4.8345   4.8617   4.9032   5.1451   5.2971   5.3542   5.3897
     5.4184   5.4608   5.5392   5.5731   5.6133   5.7784   5.7889   5.8083
     6.1032   6.1249   6.1796   6.2476   6.3186   6.3687   6.4006   6.4081
[...]
     5.0470   5.0710   5.1850   5.2467   5.2506   5.3085   5.3501   5.3958
     5.4146   5.4230   5.4504   5.5474   5.6152   5.6298   5.7081   5.7740
     5.7890   5.8333   5.8622   5.9589   6.1419   6.1784   6.2443   6.2846
     6.3162   6.3419   6.3742   6.3853   6.3923   6.4351   6.4861   6.5063
     6.5595   6.6024   6.6088   6.6220   6.6553   6.6858   6.7183   6.7286
     6.7765   6.8217   6.8688   6.8916   6.9561   6.9963   7.0069   7.0487
     7.0908   7.1213   7.1260   7.1518   7.1973   7.2388   7.2646   7.2903
     7.3226   7.3371   7.3748   7.4179   7.4468   7.4987   7.5658   7.5914
     7.6438   7.6953   7.7328   7.7460   7.8079   7.8397   7.9249   7.9905
     8.0366   8.0519   8.0968   8.1183   8.1454   8.2145   8.2356   8.2534
     8.3143   8.3558   8.4001   8.5185   8.5798   8.6744   8.7303   8.7862
     8.9266   8.9645   9.0018   9.0349   9.0550   9.0886   9.1198   9.1823
     9.2032   9.2523   9.2961   9.3189   9.3850   9.4668   9.5006   9.6203
     9.6809   9.8477   9.9434   9.9833  10.0215  10.0428  10.1535  10.1750
    10.1884  10.2305  10.2363  10.2876  10.3062  10.4059  10.4826  10.5176
    10.5910  10.6145  10.6605  10.6792  10.7155  10.7668  10.7884  10.9333
    11.0473  11.0590  11.0993  11.1587  11.2014  11.2393  11.2451  11.3445
    11.3632  11.3761  11.4825  11.4903  11.5137  11.5834  11.6299  11.6576
    11.7100  11.8085  11.8163  11.8489  11.9238  11.9361  11.9920  12.0108
    12.0369  12.0573  12.1262  12.1322  12.1693  12.2654  12.2988  12.3523
    12.3728  12.3901  12.4107  12.5225  12.6012  12.6347  12.6428  12.7989
    12.8150  12.8542  12.8820  12.8929  12.9549  12.9695  12.9904  13.0500
    13.0682  13.1130  13.1354  13.1613  13.2112  13.2415  13.2561  13.2868
    13.3209  13.4393  13.5680  13.6343  13.6897  13.7253  13.7546  13.8254
    13.8470  13.8600  13.8655  13.9330  13.9673  14.0248  14.0637  14.0968
    14.1493  14.2433  14.2589  14.2673  14.3469  14.4432  14.4732  14.5053
    14.5825  14.6079  14.6289  14.7373  14.8826  14.9081  14.9218  14.9599
    14.9881  15.0037  15.0993  15.1521  15.1671  15.1893  15.2082  15.2355
    15.3030  15.3185  15.3725  15.4100  15.4417  15.4739  15.5566  15.6002
    15.6987  15.7040  15.7706  15.8063  15.8404  15.8733  15.9598  16.0069
    16.0343  16.0484  16.0641  16.1025  16.1815  16.2281  16.2450  16.2756
    16.3851  16.5035  16.5508  16.5780  16.6383  16.6558  16.7035  16.7312
    16.7482  16.8182  16.8708  16.9004  16.9445  16.9969  17.0530  17.0611
    17.1304  17.1520  17.1762  17.2122  17.2829  17.3524  17.3887  17.4031
    17.4412  17.4766  17.4883  17.5211  17.5372  17.5699  17.6140  17.6300
    17.6648  17.7266  17.7337  17.7526  17.8245  17.9154  17.9891  17.9957
    18.0788  18.1226  18.1475  18.1757  18.1885  18.2211  18.2568  18.2853
    18.3319  18.3457  18.3817  18.4182  18.4572  18.5182  18.5593  18.6276
    18.6651  18.6885  18.6940  18.8259  18.8300  18.9780  19.0491  19.0883
    19.1123  19.1839  19.2274  19.2936  19.3151  19.3337  19.3952  19.5027
    19.5616  19.5862  19.6158  19.6448  19.7041  19.7103  19.7494  19.7752
    19.8144  19.8492  19.8637  19.9509  20.0153  20.0508  20.0805  20.1461
    20.1600  20.1915  20.2172  20.2219  20.2549  20.3245  20.3302  20.3742
    20.4208  20.4563  20.4925  20.5742  20.6056  20.6796  20.7206  20.7464
    20.7923  20.8022  20.8564  20.8725

          k = 0.0000 0.0000 0.1080 ( 49632 PWs)   bands (ev):

   -24.9585 -24.9582 -24.0569 -24.0480 -19.2095 -19.1707 -19.0496 -18.8667
   -18.7431 -18.7137 -18.6141 -18.5827 -18.3966 -18.3062 -18.1467 -17.9505
   -17.8362 -17.5478 -17.4622 -17.1070 -17.0148 -16.6319 -16.5098 -16.1334
   -15.9748 -15.6425 -15.4642 -15.2865 -14.0959 -13.9351 -13.6845 -13.4173
   -13.0972 -12.8365 -12.5355 -12.2497 -12.0587 -11.6851 -11.5535 -11.3070
   -11.2244 -11.0125 -10.7566 -10.3950 -10.0787  -9.7482  -9.4415  -9.2151
    -9.0312  -8.9639  -8.9071  -8.8741  -8.7250  -8.4180  -8.3081  -8.1726
    -8.0472  -8.0024  -7.9245  -7.9076  -7.8863  -7.8398  -7.7774  -7.7352
    -7.6179  -7.6058  -7.5159  -7.4523  -7.3994  -7.3657  -7.3191  -7.2813
    -7.2481  -7.2377  -7.2103  -7.1737  -7.0785  -7.0594  -6.9824  -6.9048
    -6.7464  -6.7360  -6.6921  -6.5935  -6.5156  -6.4827  -6.3811  -6.3517
    -6.3303  -6.2912  -6.1540  -6.1006  -5.9713  -5.9132  -5.8367  -5.6571
    -5.5585  -5.3033  -5.2436  -4.9042  -4.8761  -4.5050  -4.4330  -4.0959
    -3.9670  -3.7073  -3.5349  -3.3958  -3.1203  -3.0869   0.8235   0.9044
     1.0598   1.2950   1.4872   1.8549   2.0176   2.4771   2.5996   2.9480
     3.0117   3.2117   3.2679   3.6553   3.6776   3.7553   3.8201   3.8834
     3.9176   4.0106   4.2240   4.2992   4.4011   4.4074   4.4584   4.5023
     4.5571   4.6188   4.6663   4.7990   4.8409   4.8901   4.9107   5.0082
     5.0393   5.1037   5.1449   5.2077   5.3382   5.3451   5.3788   5.4331
     5.4872   5.5191   5.5608   5.5957   5.6464   5.6677   5.6814   5.7085
     5.7732   5.8918   5.9245   5.9303   6.0604   6.0811   6.1808   6.2286
     6.2587   6.3036   6.3068   6.3346   6.4344   6.4619   6.4671   6.5374
     6.5515   6.5741   6.5930   6.6029   6.6069   6.6335   6.6924   6.7248
     6.7468   6.7665   6.8217   6.8610   6.8966   6.9290   6.9587   7.0045
     7.0161   7.0628   7.0863   7.1478   7.1732   7.1977   7.2350   7.2609
     7.2753   7.3324   7.3620   7.4117   7.4388   7.4478   7.5303   7.5562
     7.5881   7.6137   7.6468   7.7131   7.7523   7.8796   7.9321   7.9646
     7.9936   8.0329   8.0771   8.1093   8.1332   8.1944   8.2175   8.2746
     8.3235   8.4163   8.4407   8.5066   8.5952   8.6431   8.6914   8.7498
     8.8095   8.8792   8.8862   8.9477   8.9661   9.0447   9.1600   9.2265
     9.2621   9.2899   9.3286   9.4162   9.4450   9.5451   9.5777   9.6572
     9.6891   9.8220   9.8569   9.8948   9.9544   9.9897  10.0538  10.0642
    10.0828  10.1627  10.2099  10.2567  10.2898  10.3663  10.4561  10.5144
    10.6312  10.6694  10.7489  10.7737  10.8169  10.8690  10.8789  10.8945
    11.0074  11.0646  11.0998  11.1771  11.1857  11.2020  11.3273  11.3550
    11.3644  11.3989  11.4636  11.4879  11.5456  11.5510  11.6009  11.6377
    11.7176  11.7224  11.7975  11.8164  11.8632  11.9087  11.9182  11.9810
    12.0354  12.0919  12.1244  12.1800  12.2102  12.2262  12.2636  12.2699
    12.3407  12.4134  12.4381  12.4829  12.5420  12.5852  12.6802  12.6949
    12.7642  12.7907  12.8674  12.9436  12.9765  13.0042  13.0596  13.0782
    13.0982  13.1501  13.1606  13.2345  13.2454  13.2731  13.3035  13.3418
    13.3624  13.5157  13.5462  13.5661  13.6184  13.6855  13.7153  13.7480
    13.7675  13.7925  13.8696  13.8754  13.9024  13.9299  14.0875  14.1215
    14.1606  14.2134  14.2535  14.3243  14.3459  14.4402  14.5186  14.5320
    14.5519  14.5747  14.6693  14.7435  14.8673  14.9126  14.9271  14.9588
    14.9858  15.0386  15.0554  15.1023  15.1453  15.1631  15.2097  15.2518
    15.2673  15.3233  15.4162  15.4483  15.4788  15.4961  15.6320  15.6601
    15.7149  15.7337  15.7719  15.8100  15.8254  15.8863  15.9157  16.0126
    16.0195  16.0312  16.0785  16.1338  16.2760  16.2881  16.3628  16.3987
    16.4478  16.4709  16.5191  16.5698  16.5789  16.6229  16.6679  16.6937
    16.7140  16.8104  16.8627  16.8972  16.9360  16.9911  17.0583  17.1104
    17.1524  17.1633  17.1946  17.2017  17.2394  17.3115  17.3182  17.3763
    17.3970  17.4815  17.5277  17.5512  17.5561  17.5819  17.6102  17.6244
    17.6535  17.6896  17.7647  17.7860  17.8715  17.9007  17.9689  18.0169
    18.0300  18.0739  18.1151  18.1321  18.1502  18.1828  18.2105  18.2242
    18.3067  18.3517  18.3897  18.4349  18.5293  18.5584  18.5759  18.5958
    18.6247  18.6570  18.7740  18.7882  18.9121  18.9743  19.0332  19.0822
    19.1252  19.1690  19.2079  19.2885  19.3870  19.4335  19.4750  19.5719
    19.6162  19.6327  19.7169  19.7605  19.7898  19.7975  19.8425  19.8922
    19.9277  19.9607  20.0305  20.0646  20.0949  20.1295  20.2173  20.2281
    20.2430  20.3190  20.3499  20.3569  20.3778  20.4112  20.4350  20.5027
    20.5907  20.6503  20.6634  20.6768  20.7313  20.7478  20.8561  20.9037
    20.9211  20.9362  20.9531  20.9719

          k = 0.0000 0.0000 0.1127 ( 49636 PWs)   bands (ev):

   -24.9461 -24.9459 -24.0723 -24.0635 -19.1009 -19.0636 -18.9455 -18.8690
   -18.8281 -18.7631 -18.6958 -18.5490 -18.4747 -18.2865 -18.1825 -17.9771
   -17.8241 -17.6139 -17.4100 -17.1991 -16.9368 -16.7286 -16.4279 -16.2272
   -15.8982 -15.7207 -15.4159 -15.3190 -14.0774 -13.9886 -13.6275 -13.4831
   -13.0372 -12.8962 -12.4850 -12.2951 -12.0148 -11.7056 -11.5274 -11.3242
   -11.2257 -11.0659 -10.7252 -10.4321 -10.0396  -9.7696  -9.3914  -9.1836
    -8.9162  -8.7995  -8.7306  -8.6635  -8.6132  -8.4539  -8.2944  -8.2315
    -8.1520  -8.0945  -8.0735  -8.0680  -7.7503  -7.7383  -7.6776  -7.6359
    -7.5487  -7.5066  -7.4625  -7.4278  -7.4164  -7.4099  -7.3851  -7.3770
    -7.3704  -7.3400  -7.3316  -7.2217  -7.0632  -6.9505  -6.8967  -6.8644
    -6.7802  -6.6979  -6.6594  -6.6257  -6.5752  -6.5417  -6.4192  -6.3876
    -6.3572  -6.2577  -6.1681  -6.1484  -6.0504  -5.9199  -5.8870  -5.6620
    -5.5694  -5.3538  -5.2053  -4.9936  -4.8019  -4.5977  -4.3597  -4.1749
    -3.9131  -3.7663  -3.5095  -3.4283  -3.1229  -3.1030   0.8380   0.8819
     1.1085   1.2336   1.5694   1.7596   2.1298   2.3630   2.7299   2.9618
     3.0664   3.2312   3.3734   3.5819   3.6362   3.6859   3.9216   4.0153
     4.0293   4.1347   4.2292   4.2758   4.3381   4.3816   4.4296   4.5364
     4.5710   4.5943   4.7597   4.7813   4.8387   4.8813   4.9662   5.0446
     5.0781   5.0912   5.1110   5.1736   5.2795   5.3870   5.4031   5.4939
     5.5269   5.5407   5.5790   5.6590   5.6771   5.6934   5.7693   5.7729
     5.8322   5.9086   5.9346   5.9986   6.0539   6.0704   6.0758   6.1495
     6.1666   6.1824   6.2683   6.3511   6.3805   6.3962   6.4145   6.5160
     6.5583   6.5772   6.5894   6.6001   6.6304   6.6498   6.6772   6.6839
     6.7114   6.7779   6.8299   6.8355   6.8684   6.8933   6.9285   6.9419
     7.0013   7.0035   7.0629   7.0921   7.1197   7.1688   7.2175   7.2496
     7.2963   7.3197   7.3703   7.4057   7.4337   7.4651   7.4746   7.5361
     7.5659   7.6095   7.6301   7.6771   7.7491   7.8428   7.8514   7.9075
     7.9704   8.0011   8.0461   8.0973   8.1552   8.2006   8.2590   8.3484
     8.3929   8.4625   8.4790   8.5359   8.5615   8.6293   8.6906   8.7145
     8.7173   8.7671   8.7975   8.8253   8.9268   9.0484   9.0878   9.2337
     9.3456   9.3852   9.4214   9.4982   9.5472   9.6047   9.6335   9.6726
     9.7315   9.7643   9.8119   9.8158   9.8705   9.9077   9.9287   9.9831
     9.9966  10.1099  10.1357  10.1917  10.3484  10.4458  10.4865  10.5504
    10.6411  10.6753  10.7612  10.8311  10.8658  10.8723  10.9341  10.9425
    10.9949  11.0478  11.1496  11.1806  11.2164  11.2475  11.2956  11.3057
    11.3229  11.3468  11.4750  11.5097  11.5341  11.5675  11.5976  11.6210
    11.6886  11.7251  11.7487  11.8431  11.8612  11.9055  11.9137  11.9999
    12.0201  12.0803  12.1168  12.1353  12.1490  12.2380  12.2600  12.3139
    12.3718  12.3926  12.4409  12.4844  12.5289  12.5473  12.6130  12.6565
    12.6845  12.7492  12.8424  12.8672  12.9362  13.0514  13.1242  13.1526
    13.1787  13.1983  13.2499  13.2672  13.2958  13.3503  13.3568  13.3825
    13.4318  13.4442  13.4905  13.5406  13.5526  13.6283  13.6486  13.6818
    13.7202  13.7570  13.8329  13.8748  13.8901  13.9008  14.0269  14.1240
    14.1654  14.2146  14.2638  14.2942  14.3775  14.4137  14.5430  14.5896
    14.5984  14.6457  14.7306  14.7729  14.8253  14.8316  14.9011  14.9183
    14.9548  14.9861  15.0143  15.0683  15.1356  15.1661  15.2471  15.2803
    15.3113  15.3947  15.4488  15.4685  15.5127  15.5506  15.6063  15.6627
    15.7167  15.7277  15.7427  15.7716  15.8299  15.8354  15.9441  16.0123
    16.0694  16.1096  16.1436  16.1594  16.2873  16.3637  16.3721  16.4009
    16.4070  16.4310  16.5336  16.5578  16.6153  16.6610  16.6743  16.6985
    16.7709  16.7951  16.8092  16.8234  16.9000  16.9881  17.0175  17.0727
    17.0887  17.1579  17.2132  17.2401  17.2973  17.3143  17.3316  17.3579
    17.4025  17.4524  17.5139  17.5505  17.5895  17.6087  17.6165  17.6335
    17.6794  17.6944  17.7516  17.7902  17.8489  17.9059  17.9322  17.9666
    18.0268  18.0339  18.0682  18.0799  18.1001  18.1570  18.2166  18.2653
    18.2956  18.3890  18.4117  18.4287  18.4667  18.5190  18.5719  18.5967
    18.6667  18.7011  18.7556  18.7818  18.9080  19.0100  19.0313  19.0572
    19.1247  19.1423  19.1853  19.3382  19.4240  19.5019  19.5351  19.6111
    19.6385  19.6882  19.6996  19.7579  19.7993  19.8358  19.9010  19.9408
    19.9564  20.0604  20.0681  20.1350  20.2356  20.2715  20.3416  20.3929
    20.4254  20.4674  20.4779  20.4924  20.5269  20.5495  20.5542  20.6582
    20.6941  20.7414  20.7470  20.7864  20.8107  20.8182  20.8640  20.9549
    20.9811  21.0020  21.0293  21.0758

          k = 0.0000 0.0000-0.1174 ( 49636 PWs)   bands (ev):

   -24.9419 -24.9417 -24.0776 -24.0687 -18.9963 -18.9882 -18.9552 -18.9389
   -18.8357 -18.8166 -18.6507 -18.6281 -18.4026 -18.3761 -18.0992 -18.0686
   -17.7390 -17.7049 -17.3252 -17.2889 -16.8538 -16.8155 -16.3504 -16.3077
   -15.8290 -15.7902 -15.3740 -15.3540 -14.0515 -14.0272 -13.5719 -13.5418
   -12.9754 -12.9581 -12.4556 -12.3225 -11.9960 -11.7156 -11.5177 -11.3328
   -11.2150 -11.0942 -10.7094 -10.4496 -10.0218  -9.7820  -9.3724  -9.1760
    -8.8750  -8.7682  -8.5938  -8.5827  -8.4308  -8.4188  -8.3563  -8.3544
    -8.2430  -8.2346  -8.1082  -8.1037  -7.6185  -7.6081  -7.5728  -7.5575
    -7.5562  -7.5487  -7.4951  -7.4863  -7.4469  -7.4248  -7.4171  -7.4086
    -7.3702  -7.3621  -7.3607  -7.3304  -6.9722  -6.9615  -6.8376  -6.8325
    -6.7845  -6.7465  -6.6965  -6.6053  -6.5605  -6.5372  -6.4909  -6.4010
    -6.3646  -6.2185  -6.1527  -6.1469  -6.1245  -5.9632  -5.8429  -5.7188
    -5.4993  -5.4315  -5.1144  -5.0892  -4.7017  -4.7009  -4.2744  -4.2618
    -3.8491  -3.8309  -3.4751  -3.4626  -3.1169  -3.1147   0.8578   0.8582
     1.1678   1.1695   1.6614   1.6640   2.2442   2.2484   2.8502   2.8588
     3.1411   3.2087   3.5092   3.5159   3.5676   3.6342   4.0705   4.0728
     4.1482   4.1506   4.1741   4.1926   4.2840   4.2851   4.5057   4.5207
     4.6294   4.6500   4.7410   4.7437   4.8442   4.8552   4.9949   5.0041
     5.0975   5.1230   5.1477   5.1703   5.3110   5.3288   5.3684   5.4210
     5.5619   5.6018   5.6457   5.6503   5.7400   5.7442   5.7844   5.7859
     5.8652   5.8676   5.9440   5.9658   6.0362   6.0402   6.1492   6.1631
     6.2124   6.2170   6.2253   6.2437   6.3336   6.3387   6.3882   6.4001
     6.5579   6.5624   6.5677   6.6231   6.6591   6.6832   6.7079   6.7200
     6.7500   6.7552   6.8142   6.8227   6.8547   6.8675   6.9254   6.9473
     6.9752   6.9849   7.0100   7.0262   7.1797   7.1946   7.2110   7.2321
     7.3118   7.3152   7.3350   7.3567   7.4223   7.4353   7.5096   7.5675
     7.5849   7.5864   7.6771   7.6935   7.7244   7.7637   7.8398   7.8753
     7.9263   7.9750   8.0379   8.1262   8.1900   8.2386   8.2744   8.3153
     8.4291   8.5092   8.5138   8.5401   8.5913   8.5980   8.6437   8.6666
     8.7147   8.7265   8.7776   8.7912   8.9276   8.9620   9.1403   9.1829
     9.4285   9.4709   9.4793   9.4817   9.5776   9.5958   9.6652   9.7017
     9.7255   9.7516   9.7954   9.8119   9.8380   9.8630   9.8806   9.9302
     9.9450  10.0612  10.1362  10.1671  10.4069  10.4128  10.5375  10.6173
    10.6694  10.6862  10.7113  10.7272  10.8589  10.8725  10.9914  11.0143
    11.0749  11.0899  11.1187  11.1473  11.1571  11.2038  11.3026  11.3466
    11.3810  11.4296  11.4475  11.4585  11.4656  11.4728  11.6150  11.6201
    11.6835  11.6927  11.8431  11.8531  11.8859  11.9012  11.9338  11.9803
    12.0433  12.0609  12.1077  12.1252  12.1572  12.1818  12.2621  12.2826
    12.3998  12.4096  12.4560  12.4775  12.5170  12.5220  12.6182  12.6457
    12.6778  12.7483  12.7772  12.7852  12.9915  13.0179  13.1902  13.1971
    13.2361  13.2526  13.2608  13.2706  13.3135  13.3454  13.4051  13.4071
    13.4196  13.4223  13.4782  13.4856  13.5643  13.5820  13.6136  13.6461
    13.7032  13.7775  13.7913  13.8250  13.9297  13.9438  14.0250  14.0339
    14.1571  14.2442  14.3000  14.3215  14.3333  14.3605  14.6087  14.6142
    14.6688  14.6804  14.7592  14.7618  14.8058  14.8160  14.8533  14.8622
    14.9138  14.9754  15.0119  15.0523  15.1286  15.1545  15.2828  15.2862
    15.3976  15.4298  15.4611  15.4751  15.5289  15.5317  15.6055  15.6245
    15.6940  15.7040  15.7155  15.7472  15.8492  15.8595  16.0188  16.0246
    16.0786  16.1006  16.2043  16.2050  16.2555  16.2707  16.3324  16.3494
    16.4206  16.4908  16.6047  16.6235  16.6303  16.6451  16.7068  16.7196
    16.7312  16.7382  16.7825  16.8687  16.8893  16.9371  16.9847  17.0044
    17.1207  17.1389  17.2063  17.2652  17.2963  17.3363  17.3656  17.4029
    17.4170  17.4254  17.5099  17.5222  17.5730  17.5864  17.6175  17.6201
    17.7566  17.7813  17.7898  17.8010  17.8239  17.8357  17.8415  17.8771
    18.0209  18.0423  18.0671  18.0885  18.1298  18.1344  18.2874  18.2889
    18.2912  18.2951  18.4205  18.4218  18.4809  18.4943  18.5810  18.5827
    18.6849  18.6933  18.7922  18.8126  18.9067  18.9203  19.0050  19.0308
    19.1249  19.1506  19.3454  19.3709  19.3856  19.3875  19.6015  19.6330
    19.6717  19.6793  19.6907  19.7592  19.8015  19.8341  19.9335  19.9776
    19.9925  20.0751  20.1078  20.2256  20.2518  20.2901  20.2908  20.3328
    20.5372  20.5398  20.5698  20.5886  20.6726  20.6823  20.7074  20.7099
    20.7633  20.7732  20.7782  20.8314  20.8424  20.8451  20.9102  20.9310
    20.9652  20.9687  21.0222  21.0494

     the Fermi energy is    -1.0697 ev

     Writing output data file AGNR_OH_24.save/

     init_run     :     10.84s CPU     11.05s WALL (       1 calls)
     electrons    :   2928.06s CPU   2949.89s WALL (       1 calls)

     Called by init_run:
     wfcinit      :      0.00s CPU      0.01s WALL (       1 calls)
     potinit      :      0.51s CPU      0.57s WALL (       1 calls)
     hinit0       :      9.14s CPU      9.17s WALL (       1 calls)

     Called by electrons:
     c_bands      :   2928.05s CPU   2949.88s WALL (       1 calls)
     v_of_rho     :      0.41s CPU      0.44s WALL (       1 calls)
     newd         :      0.36s CPU      0.45s WALL (       1 calls)

     Called by c_bands:
     init_us_2    :      0.35s CPU      0.36s WALL (      26 calls)
     cegterg      :   2859.27s CPU   2876.78s WALL (      26 calls)

     Called by sum_band:

     Called by *egterg:
     h_psi        :    503.01s CPU    509.50s WALL (     534 calls)
     s_psi        :     59.72s CPU     59.88s WALL (     534 calls)
     g_psi        :      3.90s CPU      3.91s WALL (     482 calls)
     cdiaghg      :   1554.51s CPU   1556.25s WALL (     508 calls)

     Called by h_psi:
     h_psi:pot    :    497.98s CPU    503.51s WALL (     534 calls)
     h_psi:calbec :     56.17s CPU     57.28s WALL (     534 calls)
     vloc_psi     :    383.74s CPU    388.02s WALL (     534 calls)
     add_vuspsi   :     58.06s CPU     58.21s WALL (     534 calls)

     General routines
     calbec       :     56.16s CPU     57.28s WALL (     534 calls)
     fft          :      0.40s CPU      0.43s WALL (      14 calls)
     ffts         :      0.00s CPU      0.00s WALL (       1 calls)
     fftw         :    342.37s CPU    346.29s WALL (  345926 calls)
     interpolate  :      0.02s CPU      0.03s WALL (       1 calls)
     davcio       :      0.00s CPU      3.22s WALL (      52 calls)

     Parallel routines
     fft_scatt_xy :     57.24s CPU     57.88s WALL (  345941 calls)
     fft_scatt_yz :     92.33s CPU     93.63s WALL (  345941 calls)

     PWSCF        : 49m 8.42s CPU    52m20.49s WALL


   This run was terminated on:  18:44: 6   2Jan2022            

=------------------------------------------------------------------------------=
   JOB DONE.
=------------------------------------------------------------------------------=
