
     Program PWSCF v.6.3 starts on 21Apr2021 at 22:50:35 

     This program is part of the open-source Quantum ESPRESSO suite
     for quantum simulation of materials; please cite
         "P. Giannozzi et al., J. Phys.:Condens. Matter 21 395502 (2009);
         "P. Giannozzi et al., J. Phys.:Condens. Matter 29 465901 (2017);
          URL http://www.quantum-espresso.org", 
     in publications or presentations arising from this work. More details at
     http://www.quantum-espresso.org/quote

     Parallel version (MPI), running on    16 processors
     R & G space division:  proc/nbgrp/npool/nimage =      16
     Waiting for input...
     Reading input from standard input
     Message from routine read_cards :
     DEPRECATED: no units specified in CELL_PARAMETERS card

     Current dimensions of program PWSCF are:
     Max number of different atomic species (ntypx) = 10
     Max number of k-points (npk) =  40000
     Max angular momentum in pseudopotentials (lmaxx) =  3

     Atomic positions and unit cell read from directory:
     /home/zfwang/scratch/GNRDATASET/AGNR/AGNR_OH_25/AGNR_OH_25.save/


     Subspace diagonalization in iterative solution of the eigenvalue problem:
     a serial algorithm will be used


     Parallelization info
     --------------------
     sticks:   dense  smooth     PW     G-vecs:    dense   smooth      PW
     Min        3544    1182    333               132743    25550    3827
     Max        3546    1183    335               132744    25551    3828
     Sum       56723   18917   5349              2123903   408805   61237



     bravais-lattice index     =            0
     lattice parameter (alat)  =       1.8897  a.u.
     unit-cell volume          =   11962.0033 (a.u.)^3
     number of atoms/cell      =           58
     number of atomic types    =            3
     number of electrons       =       228.00
     number of Kohn-Sham states=          500
     kinetic-energy cutoff     =      40.0000  Ry
     charge density cutoff     =     480.0000  Ry
     Exchange-correlation      = PBE ( 1  4  3  4 0 0)

     celldm(1)=  18.897261  celldm(2)=   4.161000  celldm(3)=   0.426000
     celldm(4)=   0.000000  celldm(5)=   0.000000  celldm(6)=   0.000000

     crystal axes: (cart. coord. in units of alat)
               a(1) = (  10.000000   0.000000   0.000000 )  
               a(2) = (   0.000000  41.610000   0.000000 )  
               a(3) = (   0.000000   0.000000   4.260000 )  

     reciprocal axes: (cart. coord. in units 2 pi/alat)
               b(1) = (  0.100000  0.000000  0.000000 )  
               b(2) = (  0.000000  0.024033  0.000000 )  
               b(3) = (  0.000000  0.000000  0.234742 )  


     PseudoPot. # 1 for C  read from file:
     /home/zfwang/hp_home/MySoftware/qe-6.3/pseudo/C.pbe-n-rrkjus_psl.0.1.UPF
     MD5 check sum: fff530ed632a789b3b184014e67dd7f1
     Pseudo is Ultrasoft + core correction, Zval =  4.0
     Generated using "atomic" code by A. Dal Corso v.5.0.2 svn rev. 9415
     Using radial grid of 1073 points,  4 beta functions with: 
                l(1) =   0
                l(2) =   0
                l(3) =   1
                l(4) =   1
     Q(r) pseudized with 0 coefficients 


     PseudoPot. # 2 for O  read from file:
     /home/zfwang/hp_home/MySoftware/qe-6.3/pseudo/O.pbe-n-rrkjus_psl.0.1.UPF
     MD5 check sum: 73b3d1dec572cf22214b1d95c6304b69
     Pseudo is Ultrasoft + core correction, Zval =  6.0
     Generated using "atomic" code by A. Dal Corso v.6.3MaX
     Using radial grid of 1095 points,  4 beta functions with: 
                l(1) =   0
                l(2) =   0
                l(3) =   1
                l(4) =   1
     Q(r) pseudized with 0 coefficients 


     PseudoPot. # 3 for H  read from file:
     /home/zfwang/hp_home/MySoftware/qe-6.3/pseudo/H.pbe-rrkjus_psl.0.1.UPF
     MD5 check sum: e164a6907b691c6980f16942be34de84
     Pseudo is Ultrasoft, Zval =  1.0
     Generated using "atomic" code by A. Dal Corso v.5.0.2 svn rev. 9415
     Using radial grid of  929 points,  2 beta functions with: 
                l(1) =   0
                l(2) =   0
     Q(r) pseudized with 0 coefficients 


     atomic species   valence    mass     pseudopotential
        C              4.00    12.01070     C ( 1.00)
        O              6.00    18.99840     O ( 1.00)
        H              1.00     1.00794     H ( 1.00)

     No symmetry found



   Cartesian axes

     site n.     atom                  positions (alat units)
         1           C   tau(   1) = (   4.8067224   6.0582605   2.8007173  )
         2           C   tau(   2) = (   4.9438201   7.2400762   3.5499197  )
         3           C   tau(   3) = (   5.1512846   6.0762034   1.4685917  )
         4           C   tau(   4) = (   5.0088087   8.4732175   2.8376108  )
         5           C   tau(   5) = (   5.0145097   9.7092018   3.5513203  )
         6           C   tau(   6) = (   5.0508105   7.2438736   0.7080870  )
         7           C   tau(   7) = (   5.0000104   8.4760217   1.4218949  )
         8           C   tau(   8) = (   5.0059820  10.9401595   2.8416318  )
         9           C   tau(   9) = (   5.0006189  12.1724948   3.5504017  )
        10           C   tau(  10) = (   4.9934591   9.7101025   0.7084728  )
        11           C   tau(  11) = (   4.9971286  10.9406360   1.4185483  )
        12           C   tau(  12) = (   4.9994806  13.4072742   2.8394410  )
        13           C   tau(  13) = (   4.9997417  14.6403977   3.5491140  )
        14           C   tau(  14) = (   4.9992289  12.1725268   0.7099312  )
        15           C   tau(  15) = (   4.9999895  13.4076468   1.4207667  )
        16           C   tau(  16) = (   4.9999972  15.8720937   2.8401482  )
        17           C   tau(  17) = (   5.0001563  17.1058487   3.5505447  )
        18           C   tau(  18) = (   5.0003690  14.6402666   0.7109294  )
        19           C   tau(  19) = (   5.0004318  15.8723971   1.4197961  )
        20           C   tau(  20) = (   5.0002448  18.3390532   2.8405431  )
        21           C   tau(  21) = (   5.0002409  19.5710290   3.5495858  )
        22           C   tau(  22) = (   5.0002829  17.1060265   0.7094054  )
        23           C   tau(  23) = (   5.0001576  18.3390064   1.4194407  )
        24           C   tau(  24) = (   5.0001858  20.8049450   2.8395028  )
        25           C   tau(  25) = (   5.0001389  22.0386855   3.5496103  )
        26           C   tau(  26) = (   5.0001399  19.5712302   0.7103667  )
        27           C   tau(  27) = (   5.0001865  20.8049660   1.4204855  )
        28           C   tau(  28) = (   5.0001580  23.2709333   2.8405086  )
        29           C   tau(  29) = (   5.0002879  24.5040375   3.5504117  )
        30           C   tau(  30) = (   5.0002409  22.0389065   0.7103826  )
        31           C   tau(  31) = (   5.0002438  23.2709361   1.4193886  )
        32           C   tau(  32) = (   5.0004338  25.7377481   2.8397459  )
        33           C   tau(  33) = (   5.0003461  26.9698640   3.5480988  )
        34           C   tau(  34) = (   5.0001553  24.5041457   0.7092985  )
        35           C   tau(  35) = (   4.9999972  25.7380082   1.4193686  )
        36           C   tau(  36) = (   4.9999568  28.2024109   2.8376475  )
        37           C   tau(  37) = (   4.9992844  29.4376149   3.5477727  )
        38           C   tau(  38) = (   4.9997375  26.9697803   0.7099313  )
        39           C   tau(  39) = (   4.9994722  28.2028521   1.4189816  )
        40           C   tau(  40) = (   4.9973201  30.6693486   2.8382393  )
        41           C   tau(  41) = (   4.9935937  31.9001057   3.5472698  )
        42           C   tau(  42) = (   5.0006533  29.4374405   0.7073108  )
        43           C   tau(  43) = (   5.0061115  30.6698973   1.4151517  )
        44           C   tau(  44) = (   4.9998173  33.1341771   2.8330333  )
        45           C   tau(  45) = (   5.0502053  34.3665357   3.5458372  )
        46           C   tau(  46) = (   5.0145836  31.9006929   0.7045466  )
        47           C   tau(  47) = (   5.0085505  33.1368699   1.4171406  )
        48           C   tau(  48) = (   5.1499528  35.5340353   2.7844303  )
        49           C   tau(  49) = (   4.9434107  34.3695564   0.7039522  )
        50           C   tau(  50) = (   4.8064093  35.5515336   1.4519647  )
        51           O   tau(  51) = (   4.4085373   4.8082608   3.1837485  )
        52           O   tau(  52) = (   5.5305501   4.8192364   1.0138423  )
        53           O   tau(  53) = (   5.5295735  36.7918422   3.2367817  )
        54           O   tau(  54) = (   4.4105518  36.8014289   1.0667054  )
        55           H   tau(  55) = (   5.2547068   4.2482506   1.7864210  )
        56           H   tau(  56) = (   4.7957203   4.5929176   4.0991235  )
        57           H   tau(  57) = (   4.7991012  37.0161956   0.1508207  )
        58           H   tau(  58) = (   5.2522114  37.3608107   2.4623417  )

     number of k points=    26  Marzari-Vanderbilt smearing, width (Ry)=  0.0100
                       cart. coord. in units 2pi/alat
        k(    1) = (   0.0000000   0.0000000   0.0000000), wk =   0.0400000
        k(    2) = (   0.0000000   0.0000000   0.0046948), wk =   0.0800000
        k(    3) = (   0.0000000   0.0000000   0.0093897), wk =   0.0800000
        k(    4) = (   0.0000000   0.0000000   0.0140845), wk =   0.0800000
        k(    5) = (   0.0000000   0.0000000   0.0187793), wk =   0.0800000
        k(    6) = (   0.0000000   0.0000000   0.0234742), wk =   0.0800000
        k(    7) = (   0.0000000   0.0000000   0.0281690), wk =   0.0800000
        k(    8) = (   0.0000000   0.0000000   0.0328638), wk =   0.0800000
        k(    9) = (   0.0000000   0.0000000   0.0375587), wk =   0.0800000
        k(   10) = (   0.0000000   0.0000000   0.0422535), wk =   0.0800000
        k(   11) = (   0.0000000   0.0000000   0.0469484), wk =   0.0800000
        k(   12) = (   0.0000000   0.0000000   0.0516432), wk =   0.0800000
        k(   13) = (   0.0000000   0.0000000   0.0563380), wk =   0.0800000
        k(   14) = (   0.0000000   0.0000000   0.0610329), wk =   0.0800000
        k(   15) = (   0.0000000   0.0000000   0.0657277), wk =   0.0800000
        k(   16) = (   0.0000000   0.0000000   0.0704225), wk =   0.0800000
        k(   17) = (   0.0000000   0.0000000   0.0751174), wk =   0.0800000
        k(   18) = (   0.0000000   0.0000000   0.0798122), wk =   0.0800000
        k(   19) = (   0.0000000   0.0000000   0.0845070), wk =   0.0800000
        k(   20) = (   0.0000000   0.0000000   0.0892019), wk =   0.0800000
        k(   21) = (   0.0000000   0.0000000   0.0938967), wk =   0.0800000
        k(   22) = (   0.0000000   0.0000000   0.0985915), wk =   0.0800000
        k(   23) = (   0.0000000   0.0000000   0.1032864), wk =   0.0800000
        k(   24) = (   0.0000000   0.0000000   0.1079812), wk =   0.0800000
        k(   25) = (   0.0000000   0.0000000   0.1126761), wk =   0.0800000
        k(   26) = (   0.0000000   0.0000000  -0.1173709), wk =   0.0400000

     Dense  grid:  2123903 G-vectors     FFT dimensions: ( 135, 576,  60)

     Smooth grid:   408805 G-vectors     FFT dimensions: (  80, 320,  36)

     Estimated max dynamical RAM per process >     572.07 MB

     Estimated total dynamical RAM >       8.94 GB

     Check: negative/imaginary core charge=   -0.000005    0.000000

     The potential is recalculated from file :
     /home/zfwang/scratch/GNRDATASET/AGNR/AGNR_OH_25/AGNR_OH_25.save/charge-density.dat


     negative rho (up, down):  9.397E-04 0.000E+00
     Starting wfcs are  220 randomized atomic wfcs +  280 random wfcs

     Band Structure Calculation
     Davidson diagonalization with overlap

     ethr =  4.39E-09,  avg # of iterations = 18.9

     total cpu time spent up to now is     2874.4 secs

     End of band structure calculation

          k = 0.0000 0.0000 0.0000 ( 50953 PWs)   bands (ev):

   -25.4852 -25.4821 -23.2069 -23.2008 -20.4415 -20.3998 -20.2848 -20.1097
   -19.8735 -19.5833 -19.2395 -18.8443 -18.3914 -17.8950 -17.3581 -16.7899
   -16.2079 -15.6489 -15.2066 -15.1926 -15.1518 -15.0767 -14.9297 -14.8387
   -14.7125 -14.5395 -14.4281 -14.2169 -14.1557 -14.1512 -13.9979 -13.9783
   -13.8690 -13.7452 -13.7039 -13.4869 -13.4555 -13.4351 -13.1042 -12.7576
   -12.5141 -12.2648 -11.9307 -11.7660 -11.6681 -11.3776 -11.3219 -11.2327
   -10.8996 -10.8649 -10.7229 -10.4345 -10.2955 -10.1190  -9.9597  -9.6697
    -9.5207  -9.4838  -9.0400  -9.0156  -8.9675  -8.7921  -8.7070  -8.4898
    -8.4568  -8.4554  -8.3878  -8.2825  -8.1473  -8.0070  -7.9507  -7.8759
    -7.7702  -7.6119  -7.5563  -7.5086  -7.4641  -7.1992  -7.1738  -6.9535
    -6.7655  -6.7614  -6.4300  -6.3024  -6.2340  -6.0075  -5.8021  -5.6652
    -5.6295  -5.3315  -5.2563  -5.2268  -4.9022  -4.8867  -4.6616  -4.5428
    -4.4306  -4.2470  -4.1015  -4.0438  -4.0370  -3.4119  -3.2248  -3.1488
    -2.9957  -2.7734  -2.7709  -2.4826  -2.1443  -2.1290  -1.7251  -1.5457
    -1.2646  -1.0062  -0.7299  -0.5335  -0.1758  -0.1531   0.0993   0.3187
     0.4684   0.4950   0.6261   0.7137   0.7653   1.1227   1.2687   1.4894
     1.8383   2.0927   2.1959   2.2602   2.5036   2.5597   2.6629   2.8679
     3.0323   3.1028   3.2476   3.2732   3.3541   3.5077   3.7224   3.8280
     3.8512   3.8877   3.9821   4.1132   4.2199   4.2813   4.4091   4.6138
     4.7902   4.8006   4.8186   4.8233   4.8976   5.0068   5.0862   5.1574
     5.4698   5.5127   5.5703   5.5731   5.6220   5.9161   5.9871   6.0762
     6.2934   6.3410   6.4209   6.4498   6.4865   6.6725   6.7257   6.9199
     6.9600   7.0171   7.0364   7.1017   7.1808   7.3029   7.3400   7.3948
     7.4042   7.4143   7.4565   7.4934   7.5560   7.5718   7.6512   7.6632
     7.7161   7.7698   7.8173   7.9163   8.0322   8.1287   8.2030   8.3539
     8.3889   8.4012   8.4991   8.5081   8.5377   8.6030   8.6684   8.6701
     8.7459   8.7509   8.9378   9.0489   9.0770   9.1827   9.3200   9.3294
     9.4476   9.4576   9.5381   9.5678   9.5890   9.6141   9.6147   9.6808
     9.7023   9.7581   9.7716   9.7757   9.8118   9.8800   9.9165   9.9444
     9.9859  10.0028  10.0155  10.0486  10.0737  10.0767  10.1276  10.1420
    10.1750  10.1847  10.2226  10.2470  10.2887  10.3544  10.3558  10.3891
    10.4079  10.4264  10.4371  10.4559  10.4619  10.4769  10.5622  10.6253
    10.6505  10.7015  10.7071  10.7507  10.7698  10.8276  10.8468  10.8501
    10.8607  10.9396  10.9543  11.0279  11.0652  11.0689  11.0860  11.1198
    11.2140  11.2531  11.2859  11.3319  11.3400  11.3617  11.3722  11.4068
    11.4452  11.4541  11.4992  11.5172  11.5561  11.5769  11.5854  11.6108
    11.6213  11.6661  11.6774  11.7195  11.7287  11.7357  11.7615  11.7664
    11.7674  11.8421  11.8796  11.9324  11.9366  11.9403  11.9616  11.9734
    11.9818  12.0015  12.0113  12.0687  12.0750  12.0783  12.1531  12.1683
    12.1929  12.2399  12.3011  12.3189  12.3360  12.3779  12.3791  12.4255
    12.4602  12.4674  12.4715  12.5657  12.5679  12.5916  12.6538  12.6610
    12.6620  12.6737  12.7076  12.7756  12.7958  12.8210  12.8426  12.8763
    12.8781  12.9033  12.9691  12.9774  13.0282  13.1661  13.1746  13.2291
    13.3180  13.3514  13.3761  13.3865  13.4868  13.5213  13.5409  13.6354
    13.6618  13.6624  13.7285  13.7550  13.8000  13.8203  13.8586  13.9241
    13.9569  14.0039  14.0142  14.0735  14.1705  14.2488  14.2504  14.2849
    14.3355  14.3407  14.3457  14.4129  14.4562  14.4675  14.5021  14.5612
    14.5889  14.6378  14.6649  14.6751  14.7236  14.7765  14.8045  14.8850
    14.9295  14.9713  15.0571  15.1170  15.1249  15.2301  15.2440  15.2876
    15.3262  15.3660  15.3908  15.4291  15.4695  15.5104  15.5826  15.6269
    15.6619  15.6640  15.7185  15.7206  15.8027  15.8902  15.9391  15.9692
    15.9987  16.0042  16.0396  16.0479  16.1480  16.1821  16.1899  16.2087
    16.2446  16.2996  16.3069  16.3981  16.4295  16.4514  16.4711  16.5047
    16.5319  16.5684  16.5737  16.6281  16.6641  16.7272  16.7783  16.8433
    16.8526  16.8756  16.8996  16.9050  16.9231  16.9711  16.9889  17.0070
    17.0703  17.1321  17.1676  17.2197  17.2682  17.3159  17.3856  17.3975
    17.4207  17.4651  17.4830  17.5460  17.5633  17.5711  17.6180  17.6340
    17.6582  17.7251  17.7428  17.7681  17.8790  17.8931  17.9090  17.9866
    18.0364  18.0891  18.1117  18.1289  18.1390  18.2144  18.2419  18.2964
    18.3264  18.3482  18.3668  18.4057  18.4068  18.4275  18.4533  18.4966
    18.4996  18.5077  18.5341  18.5503  18.5634  18.6074  18.6261  18.6455
    18.6537  18.6610  18.6892  18.7231  18.7233  18.7356  18.8068  18.8120
    18.8139  18.8568  18.9894  18.9954

          k = 0.0000 0.0000 0.0047 ( 50933 PWs)   bands (ev):

   -25.4837 -25.4806 -23.2095 -23.2034 -20.4391 -20.3975 -20.2824 -20.1073
   -19.8711 -19.5809 -19.2372 -18.8420 -18.3891 -17.8927 -17.3558 -16.7878
   -16.2060 -15.6490 -15.2601 -15.2275 -15.1718 -15.1009 -14.9813 -14.8318
   -14.7416 -14.5551 -14.4275 -14.2504 -14.1280 -14.1033 -13.9689 -13.9437
   -13.9124 -13.7092 -13.6877 -13.5050 -13.3947 -13.3791 -13.1126 -12.7676
   -12.5193 -12.2709 -11.9383 -11.7600 -11.6613 -11.3872 -11.3151 -11.2149
   -10.8972 -10.8612 -10.7207 -10.4248 -10.2952 -10.1231  -9.9498  -9.6698
    -9.5274  -9.4731  -9.0431  -9.0168  -8.9579  -8.7913  -8.7056  -8.4879
    -8.4639  -8.4391  -8.3875  -8.2848  -8.1451  -8.0086  -7.9430  -7.8734
    -7.7703  -7.6166  -7.5507  -7.5107  -7.4607  -7.1968  -7.1679  -6.9621
    -6.7660  -6.7533  -6.4285  -6.3001  -6.2402  -6.0040  -5.8004  -5.6713
    -5.6272  -5.3391  -5.2520  -5.2238  -4.9302  -4.8678  -4.6598  -4.5529
    -4.4316  -4.2556  -4.1056  -4.0460  -4.0420  -3.4110  -3.2407  -3.1649
    -3.0122  -2.7915  -2.7704  -2.5011  -2.1557  -2.1413  -1.7501  -1.5569
    -1.3049  -1.0728  -0.6644  -0.4933  -0.1507  -0.1442   0.1208   0.3392
     0.4689   0.5149   0.6459   0.7334   0.7849   1.1205   1.2718   1.4927
     1.8346   2.0959   2.1991   2.2635   2.5008   2.5629   2.6648   2.8706
     3.0353   3.1058   3.2507   3.2693   3.3568   3.5102   3.7256   3.8288
     3.8544   3.8909   3.9850   4.1117   4.2231   4.2844   4.4103   4.6126
     4.7932   4.8037   4.8208   4.8263   4.9006   5.0075   5.0891   5.1602
     5.4681   5.5130   5.5707   5.5784   5.6235   5.9163   5.9898   6.0775
     6.2960   6.3437   6.4228   6.4471   6.4908   6.6715   6.7257   6.9136
     6.9582   7.0141   7.0340   7.1025   7.1820   7.3047   7.3426   7.3987
     7.4051   7.4223   7.4585   7.4956   7.5508   7.5697   7.6468   7.6729
     7.7108   7.7696   7.8157   7.9020   8.0356   8.1185   8.1943   8.3409
     8.3814   8.4075   8.5020   8.5053   8.5390   8.5928   8.6648   8.6766
     8.7399   8.7504   8.9157   9.0538   9.0725   9.1882   9.2973   9.3112
     9.4235   9.4641   9.5207   9.5710   9.5880   9.6135   9.6168   9.6535
     9.6709   9.7653   9.7770   9.7812   9.8069   9.8216   9.8456   9.8563
     9.9136   9.9633   9.9695   9.9956  10.0228  10.0403  10.0754  10.0983
    10.1634  10.1837  10.1990  10.2933  10.3040  10.3437  10.3709  10.3870
    10.4098  10.4417  10.4578  10.4754  10.5318  10.5425  10.5719  10.6277
    10.6402  10.6747  10.7107  10.7617  10.7850  10.7994  10.8309  10.8431
    10.9300  10.9333  10.9742  11.0040  11.0320  11.0840  11.0977  11.1384
    11.1534  11.2018  11.2048  11.2549  11.3205  11.3458  11.3754  11.4108
    11.4433  11.4725  11.4980  11.5277  11.5465  11.5537  11.5718  11.6248
    11.6476  11.6771  11.6944  11.7132  11.7450  11.7603  11.7690  11.8188
    11.8597  11.8809  11.8898  11.9160  11.9338  11.9574  11.9651  11.9816
    12.0085  12.0384  12.0614  12.1034  12.1245  12.1327  12.1476  12.1617
    12.2090  12.2534  12.2833  12.3319  12.3514  12.3683  12.3904  12.4131
    12.4254  12.4348  12.4520  12.4844  12.5200  12.5531  12.5716  12.5821
    12.6015  12.6830  12.6992  12.7542  12.7848  12.8100  12.8404  12.8763
    12.9312  12.9663  13.0114  13.0772  13.1130  13.1595  13.2324  13.2428
    13.3401  13.3447  13.3798  13.4086  13.4682  13.5113  13.5326  13.5813
    13.6037  13.7065  13.7536  13.7814  13.7976  13.8265  13.8797  13.9309
    13.9604  14.0090  14.0382  14.0986  14.1711  14.2486  14.2635  14.3114
    14.3251  14.3626  14.3749  14.4035  14.4750  14.4767  14.5148  14.5214
    14.5908  14.6291  14.6783  14.7073  14.7216  14.7793  14.8327  14.8653
    14.9307  15.0506  15.0522  15.0993  15.1704  15.2048  15.2429  15.2835
    15.3081  15.3345  15.3729  15.4302  15.4599  15.5136  15.5636  15.6084
    15.6540  15.6821  15.6924  15.7021  15.7696  15.8087  15.8489  15.9086
    15.9583  16.0668  16.0813  16.1121  16.1529  16.2044  16.2403  16.2760
    16.2865  16.3193  16.3667  16.4129  16.4524  16.4582  16.4812  16.5534
    16.5779  16.5959  16.6085  16.6308  16.6451  16.6801  16.7387  16.7896
    16.8320  16.8507  16.8770  16.8812  16.9212  16.9503  16.9721  17.0573
    17.1225  17.1453  17.1903  17.2159  17.2470  17.3110  17.3791  17.3948
    17.4358  17.4934  17.5059  17.5513  17.6092  17.6216  17.6273  17.6786
    17.6895  17.7018  17.7232  17.7655  17.7853  17.8624  17.9307  17.9862
    18.0389  18.0591  18.0964  18.1412  18.1547  18.2023  18.2204  18.2794
    18.3015  18.3130  18.3423  18.3734  18.4124  18.4214  18.4574  18.4729
    18.4887  18.5293  18.5412  18.5471  18.5651  18.5737  18.6117  18.6238
    18.6484  18.6608  18.6946  18.6961  18.7362  18.7584  18.7874  18.8119
    18.8244  18.9074  18.9466  18.9861

          k = 0.0000 0.0000 0.0094 ( 50979 PWs)   bands (ev):

   -25.4793 -25.4763 -23.2174 -23.2113 -20.4321 -20.3904 -20.2754 -20.1003
   -19.8641 -19.5740 -19.2303 -18.8351 -18.3823 -17.8859 -17.3492 -16.7814
   -16.2005 -15.6505 -15.3737 -15.3358 -15.2619 -15.1335 -15.0905 -14.8885
   -14.7832 -14.6063 -14.4388 -14.3014 -14.0636 -14.0314 -13.9832 -13.8766
   -13.8494 -13.6901 -13.5863 -13.4499 -13.2897 -13.2708 -13.1345 -12.7973
   -12.5338 -12.2875 -11.9618 -11.7414 -11.6409 -11.4164 -11.2921 -11.1620
   -10.8993 -10.8564 -10.6984 -10.4041 -10.2941 -10.1281  -9.9246  -9.6708
    -9.5388  -9.4483  -9.0542  -9.0147  -8.9342  -8.7880  -8.7014  -8.4815
    -8.4642  -8.4121  -8.3885  -8.2899  -8.1385  -8.0101  -7.9231  -7.8657
    -7.7724  -7.6305  -7.5365  -7.5118  -7.4505  -7.1905  -7.1519  -6.9864
    -6.7597  -6.7363  -6.4288  -6.2952  -6.2516  -5.9960  -5.7955  -5.6877
    -5.6226  -5.3551  -5.2465  -5.2144  -4.9719  -4.8533  -4.6550  -4.5800
    -4.4370  -4.2809  -4.1181  -4.0724  -4.0374  -3.4085  -3.2875  -3.2123
    -3.0607  -2.8419  -2.7718  -2.5548  -2.2125  -2.1538  -1.8205  -1.5907
    -1.4060  -1.2012  -0.5395  -0.3920  -0.1186  -0.0797   0.1832   0.3988
     0.4706   0.5736   0.7042   0.7912   0.8426   1.1139   1.2812   1.5026
     1.8236   2.1056   2.2084   2.2732   2.4920   2.5723   2.6708   2.8789
     3.0443   3.1148   3.2567   3.2604   3.3650   3.5177   3.7352   3.8307
     3.8640   3.9004   3.9937   4.1072   4.2326   4.2936   4.4143   4.6085
     4.8022   4.8129   4.8276   4.8352   4.9098   5.0100   5.0979   5.1687
     5.4609   5.5157   5.5764   5.5901   5.6279   5.9169   5.9980   6.0812
     6.3035   6.3514   6.4279   6.4412   6.5021   6.6688   6.7253   6.8949
     6.9514   7.0051   7.0267   7.1052   7.1854   7.3107   7.3503   7.4057
     7.4122   7.4440   7.4660   7.5018   7.5374   7.5634   7.6405   7.6904
     7.6974   7.7680   7.8152   7.8616   8.0416   8.0878   8.1692   8.3090
     8.3648   8.4163   8.4808   8.5083   8.5402   8.5774   8.6630   8.6876
     8.7304   8.7530   8.8542   9.0308   9.0868   9.1916   9.2369   9.2659
     9.3486   9.4158   9.4721   9.5291   9.5592   9.5869   9.5962   9.6119
     9.6303   9.6359   9.6639   9.7001   9.7843   9.7932   9.7982   9.8147
     9.8353   9.8620   9.8860   9.9515   9.9687  10.0116  10.0535  10.0652
    10.0969  10.1329  10.1892  10.2335  10.2487  10.2624  10.3122  10.3466
    10.3723  10.4196  10.4267  10.5034  10.5506  10.5885  10.6165  10.6257
    10.6399  10.6989  10.7477  10.7609  10.7716  10.8364  10.8785  10.9017
    10.9121  10.9335  10.9386  10.9637  10.9931  11.0379  11.0733  11.0895
    11.1069  11.1954  11.2071  11.2544  11.2710  11.3418  11.3584  11.3678
    11.4248  11.4421  11.4750  11.5248  11.5582  11.5834  11.6443  11.6644
    11.6809  11.7093  11.7471  11.7583  11.7666  11.7780  11.7916  11.8420
    11.8594  11.8734  11.9159  11.9435  11.9622  11.9807  12.0012  12.0567
    12.0873  12.0985  12.1372  12.1451  12.1662  12.1905  12.2044  12.2287
    12.2364  12.2473  12.2704  12.2803  12.2851  12.3152  12.3433  12.3700
    12.4247  12.4539  12.4584  12.4820  12.4936  12.5086  12.5300  12.5728
    12.6136  12.6216  12.6491  12.6949  12.7214  12.7671  12.7949  12.8809
    12.9791  13.0194  13.0619  13.0880  13.1940  13.2199  13.3147  13.3420
    13.3676  13.3784  13.3977  13.4077  13.5076  13.5366  13.5402  13.5996
    13.6347  13.6442  13.7080  13.7369  13.7735  13.9205  13.9499  13.9899
    14.0166  14.0322  14.0910  14.1414  14.1903  14.2441  14.2688  14.2912
    14.3329  14.3967  14.4105  14.4457  14.4620  14.4830  14.5491  14.5590
    14.6361  14.6624  14.6753  14.7223  14.7957  14.8118  14.8719  14.8942
    14.9158  15.0076  15.1067  15.1182  15.1757  15.2015  15.2520  15.2651
    15.2736  15.2934  15.3362  15.3852  15.4404  15.4607  15.4999  15.5539
    15.5986  15.6417  15.6776  15.7157  15.7674  15.8088  15.8209  15.9056
    15.9646  16.0101  16.1210  16.1652  16.1854  16.2534  16.2666  16.2905
    16.3090  16.3539  16.4343  16.4642  16.5070  16.5198  16.5469  16.5639
    16.5896  16.6242  16.6517  16.6710  16.6876  16.7194  16.7362  16.7844
    16.8181  16.8272  16.8293  16.8745  16.8981  16.9630  16.9938  17.1132
    17.1498  17.1587  17.1718  17.2486  17.2806  17.2943  17.3340  17.4390
    17.4615  17.4848  17.5255  17.5610  17.6125  17.6185  17.6601  17.6703
    17.6885  17.7212  17.7555  17.8188  17.8430  17.8725  17.8970  17.9329
    17.9552  18.0506  18.0643  18.1252  18.1462  18.1527  18.1875  18.1987
    18.2350  18.2629  18.3183  18.3526  18.3959  18.4190  18.4290  18.4406
    18.4508  18.5083  18.5350  18.5468  18.5626  18.5656  18.5876  18.5961
    18.6383  18.6498  18.6620  18.7036  18.7333  18.7509  18.7984  18.8180
    18.8635  18.9193  18.9581  19.0089

          k = 0.0000 0.0000 0.0141 ( 50967 PWs)   bands (ev):

   -25.4720 -25.4690 -23.2304 -23.2244 -20.4202 -20.3786 -20.2636 -20.0886
   -19.8524 -19.5623 -19.2187 -18.8236 -18.3709 -17.8746 -17.3381 -16.7707
   -16.1915 -15.6622 -15.5208 -15.4699 -15.4047 -15.2463 -15.1634 -14.9861
   -14.8665 -14.6461 -14.5307 -14.3009 -14.1555 -13.9755 -13.8836 -13.7883
   -13.7087 -13.5978 -13.4444 -13.3422 -13.2110 -13.1353 -13.1273 -12.8456
   -12.5559 -12.3108 -11.9993 -11.7124 -11.6090 -11.4595 -11.2492 -11.0809
   -10.9220 -10.8522 -10.6353 -10.3939 -10.2948 -10.1111  -9.8970  -9.6744
    -9.5436  -9.4168  -9.0711  -9.0078  -8.9016  -8.7804  -8.6937  -8.4699
    -8.4570  -8.3967  -8.3769  -8.2905  -8.1280  -8.0060  -7.8950  -7.8525
    -7.7839  -7.6484  -7.5195  -7.5012  -7.4326  -7.1853  -7.1333  -7.0144
    -6.7457  -6.7144  -6.4409  -6.2918  -6.2524  -5.9884  -5.7886  -5.7113
    -5.6179  -5.3715  -5.2473  -5.2003  -5.0187  -4.8503  -4.6537  -4.6142
    -4.4503  -4.3217  -4.1398  -4.1159  -4.0295  -3.4045  -3.3623  -3.2881
    -3.1379  -2.9220  -2.7744  -2.6395  -2.3042  -2.1713  -1.9254  -1.6482
    -1.5351  -1.3443  -0.4023  -0.2590  -0.0778   0.0268   0.2807   0.4733
     0.4938   0.6676   0.7978   0.8846   0.9358   1.1026   1.2973   1.5189
     1.8056   2.1219   2.2241   2.2894   2.4756   2.5881   2.6825   2.8930
     3.0593   3.1291   3.2369   3.2753   3.3788   3.5309   3.7512   3.8321
     3.8798   3.9163   4.0083   4.1008   4.2485   4.3091   4.4219   4.6001
     4.8171   4.8278   4.8397   4.8499   4.9251   5.0154   5.1124   5.1830
     5.4450   5.5237   5.5887   5.6069   5.6351   5.9183   6.0118   6.0880
     6.3156   6.3614   6.4311   6.4408   6.5187   6.6652   6.7244   6.8646
     6.9352   6.9889   7.0160   7.1108   7.1905   7.3220   7.3624   7.4151
     7.4242   7.4678   7.4913   7.5077   7.5254   7.5527   7.6245   7.6859
     7.7122   7.7640   7.8009   7.8228   8.0148   8.0636   8.1304   8.2753
     8.3209   8.4115   8.4379   8.5100   8.5369   8.5904   8.6525   8.7015
     8.7322   8.7464   8.7795   8.9869   9.0754   9.1081   9.1548   9.2269
     9.2417   9.2683   9.2912   9.3256   9.4162   9.5032   9.5714   9.5837
     9.6201   9.6357   9.6520   9.6541   9.6680   9.6926   9.8121   9.8159
     9.8203   9.8330   9.8393   9.8829   9.8996   9.9664   9.9721   9.9858
    10.0360  10.0535  10.1370  10.1663  10.2130  10.2634  10.2889  10.2973
    10.3265  10.3614  10.3828  10.3948  10.4185  10.4859  10.4955  10.5514
    10.6002  10.6167  10.6340  10.6911  10.7080  10.7773  10.8479  10.8686
    10.9801  10.9940  11.0068  11.0220  11.0356  11.0718  11.0962  11.1012
    11.1300  11.1508  11.1964  11.2732  11.3020  11.3314  11.3582  11.4397
    11.4846  11.5025  11.5444  11.5827  11.6041  11.6168  11.6362  11.6438
    11.6498  11.6869  11.7468  11.7609  11.7841  11.8019  11.8144  11.8350
    11.8483  11.8673  11.9071  11.9533  11.9675  11.9809  12.0039  12.0349
    12.0724  12.0853  12.1259  12.1514  12.1715  12.2120  12.2265  12.2403
    12.2722  12.3209  12.3366  12.3429  12.3559  12.4063  12.4148  12.4283
    12.4387  12.4572  12.4668  12.4898  12.5123  12.5503  12.5692  12.5717
    12.5816  12.6081  12.6903  12.6963  12.7162  12.7546  12.7964  12.8651
    12.8770  12.9926  12.9986  13.0893  13.1994  13.2477  13.3066  13.3617
    13.3665  13.3954  13.4396  13.4715  13.5691  13.5892  13.6090  13.6233
    13.6509  13.6809  13.7181  13.8932  13.8995  13.9034  13.9623  14.0198
    14.0548  14.0933  14.1378  14.1643  14.2259  14.2565  14.2875  14.3038
    14.3519  14.4126  14.4275  14.4528  14.5466  14.5677  14.5971  14.6226
    14.6402  14.6862  14.7219  14.8053  14.8267  14.8314  14.8987  14.9281
    15.0141  15.0469  15.0671  15.0751  15.1377  15.1653  15.2064  15.2221
    15.2415  15.2529  15.2887  15.3101  15.4359  15.4428  15.4655  15.4743
    15.6200  15.6529  15.6827  15.7695  15.8272  15.8689  15.8746  15.9457
    15.9606  16.0030  16.0787  16.1369  16.1713  16.2253  16.2582  16.2767
    16.3131  16.3638  16.4099  16.4844  16.5062  16.5224  16.5692  16.6151
    16.6396  16.6634  16.7123  16.7219  16.7302  16.7916  16.8047  16.8254
    16.8537  16.8773  16.9290  17.0040  17.0257  17.0335  17.0506  17.0809
    17.1061  17.1551  17.1693  17.2613  17.2811  17.3065  17.3738  17.4200
    17.4477  17.4896  17.4943  17.5709  17.6015  17.6132  17.6231  17.6381
    17.7251  17.7385  17.7716  17.7904  17.8093  17.8243  17.8818  17.8960
    17.9512  18.0118  18.0641  18.0666  18.0934  18.1282  18.1610  18.2004
    18.2120  18.2259  18.3175  18.3422  18.3561  18.3849  18.3957  18.4023
    18.4336  18.4542  18.4678  18.4884  18.5083  18.5493  18.5734  18.6080
    18.6332  18.6458  18.6754  18.7337  18.7638  18.7995  18.8273  18.8720
    18.9284  18.9579  18.9708  19.0283

          k = 0.0000 0.0000 0.0188 ( 50973 PWs)   bands (ev):

   -25.4619 -25.4589 -23.2484 -23.2426 -20.4037 -20.3621 -20.2471 -20.0721
   -19.8361 -19.5461 -19.2025 -18.8075 -18.3549 -17.8589 -17.3226 -16.7559
   -16.1798 -15.7242 -15.6854 -15.5765 -15.5682 -15.3966 -15.2675 -15.0496
   -14.9967 -14.6973 -14.6375 -14.3302 -14.2567 -13.9116 -13.8560 -13.6068
   -13.5328 -13.4444 -13.2918 -13.2387 -13.2077 -13.0116 -12.9849 -12.9084
   -12.5850 -12.3362 -12.0435 -11.6892 -11.5692 -11.4940 -11.1947 -10.9844
   -10.9593 -10.8331 -10.5421 -10.4091 -10.2987 -10.0575  -9.8805  -9.6820
    -9.5315  -9.3827  -9.0927  -8.9942  -8.8647  -8.7680  -8.6802  -8.4541
    -8.4436  -8.4132  -8.3378  -8.2768  -8.1137  -7.9937  -7.8646  -7.8335
    -7.8129  -7.6553  -7.5010  -7.4777  -7.4065  -7.2014  -7.1201  -7.0165
    -6.7251  -6.6963  -6.4671  -6.2857  -6.2407  -5.9860  -5.7849  -5.7348
    -5.6142  -5.3859  -5.2577  -5.1845  -5.0668  -4.8599  -4.6885  -4.6197
    -4.4742  -4.3766  -4.1769  -4.1701  -4.0186  -3.4621  -3.3993  -3.3877
    -3.2398  -3.0270  -2.7794  -2.7487  -2.4215  -2.1983  -2.0519  -1.7425
    -1.6593  -1.4922  -0.2623  -0.1123  -0.0235   0.1585   0.4060   0.4779
     0.6180   0.7920   0.9224   1.0094   1.0608   1.0870   1.3203   1.5409
     1.7815   2.1445   2.2461   2.3120   2.4503   2.6101   2.7009   2.9132
     3.0799   3.1463   3.2109   3.2968   3.3985   3.5503   3.7735   3.8300
     3.9020   3.9386   4.0286   4.0948   4.2707   4.3308   4.4342   4.5854
     4.8380   4.8480   4.8581   4.8704   4.9464   5.0251   5.1321   5.2033
     5.4201   5.5368   5.6074   5.6281   5.6457   5.9212   6.0309   6.0982
     6.3306   6.3670   6.4319   6.4529   6.5393   6.6621   6.7218   6.8238
     6.9050   6.9637   7.0040   7.1208   7.1967   7.3394   7.3780   7.4292
     7.4376   7.4848   7.4947   7.5300   7.5355   7.5503   7.5930   7.6876
     7.7263   7.7356   7.7629   7.8365   7.9379   8.0540   8.0903   8.2174
     8.2497   8.3811   8.4316   8.5126   8.5165   8.5797   8.6141   8.7149
     8.7266   8.7429   8.7611   8.9136   8.9454   8.9579   8.9758   9.0190
     9.0912   9.1619   9.2043   9.2537   9.2881   9.3364   9.4878   9.5221
     9.5413   9.5633   9.6452   9.6613   9.6656   9.6860   9.6943   9.7321
     9.8039   9.8264   9.8551   9.8564   9.8646   9.8748   9.9378   9.9496
     9.9743  10.0071  10.0607  10.0845  10.1066  10.1624  10.1994  10.2297
    10.2784  10.2930  10.3220  10.3356  10.3564  10.3911  10.4204  10.4299
    10.4592  10.4620  10.4850  10.5462  10.5948  10.7019  10.7115  10.8101
    10.9211  10.9323  10.9980  11.0282  11.0400  11.0842  11.0977  11.1296
    11.1877  11.2177  11.3402  11.3644  11.4079  11.4520  11.4656  11.4874
    11.4980  11.5002  11.5456  11.5562  11.5869  11.6017  11.6182  11.6388
    11.6473  11.6642  11.6978  11.7558  11.7607  11.7877  11.8007  11.8137
    11.8218  11.9205  11.9465  11.9500  11.9675  11.9809  12.0259  12.0785
    12.1149  12.1372  12.1554  12.1647  12.1773  12.1883  12.2424  12.2680
    12.3004  12.3305  12.3461  12.3789  12.4188  12.4309  12.4626  12.4785
    12.5013  12.5206  12.5260  12.5465  12.5682  12.5807  12.5982  12.6191
    12.6381  12.6753  12.7072  12.7328  12.7523  12.7879  12.8031  12.8767
    12.9092  12.9686  12.9984  13.0844  13.1611  13.1869  13.2621  13.3266
    13.3691  13.3894  13.4511  13.4905  13.5190  13.5400  13.6208  13.6535
    13.7910  13.8621  13.9099  13.9184  13.9724  13.9992  14.0241  14.0499
    14.0886  14.1317  14.1794  14.2134  14.2496  14.2851  14.3306  14.3820
    14.3930  14.4353  14.4378  14.5174  14.5763  14.5869  14.6353  14.6793
    14.7381  14.7607  14.7770  14.8226  14.8374  14.8668  14.8871  14.9820
    15.0114  15.0291  15.0606  15.1052  15.1243  15.1527  15.1559  15.1861
    15.2108  15.2626  15.2889  15.3121  15.4042  15.4191  15.4875  15.6104
    15.6671  15.6892  15.7100  15.7660  15.8006  15.8422  15.8839  15.9777
    15.9864  16.0254  16.0593  16.0906  16.1578  16.1594  16.2259  16.3108
    16.3730  16.3840  16.4354  16.4711  16.5028  16.5262  16.6086  16.6656
    16.6910  16.7053  16.7274  16.7551  16.8024  16.8347  16.8652  16.8879
    16.9173  16.9313  16.9779  16.9993  17.0647  17.1339  17.1467  17.1687
    17.1918  17.2199  17.2291  17.2608  17.3053  17.3496  17.3669  17.4108
    17.4647  17.5050  17.5230  17.5310  17.5632  17.5814  17.5979  17.6092
    17.6183  17.6397  17.6618  17.7796  17.8123  17.8363  17.8546  17.8969
    17.9333  17.9498  17.9984  18.0558  18.0821  18.1096  18.1408  18.1762
    18.1974  18.2016  18.2278  18.2318  18.2792  18.3210  18.3452  18.4144
    18.4493  18.5174  18.5267  18.5582  18.5767  18.5935  18.6177  18.6304
    18.6467  18.6585  18.6917  18.7442  18.7933  18.8196  18.8431  18.9045
    18.9461  18.9937  19.0274  19.0451

          k = 0.0000 0.0000 0.0235 ( 50999 PWs)   bands (ev):

   -25.4489 -25.4459 -23.2712 -23.2655 -20.3824 -20.3409 -20.2260 -20.0510
   -19.8151 -19.5251 -19.1817 -18.7868 -18.3344 -17.8386 -17.3027 -16.7370
   -16.1672 -15.8659 -15.8575 -15.7399 -15.6528 -15.5142 -15.4154 -15.1526
   -15.0821 -14.8078 -14.7069 -14.4120 -14.3374 -13.8704 -13.7974 -13.4028
   -13.3465 -13.2885 -13.2735 -13.0990 -13.0879 -12.9902 -12.8607 -12.8244
   -12.6202 -12.3609 -12.0842 -11.7079 -11.5244 -11.4783 -11.1730 -10.9561
   -10.8929 -10.7933 -10.4612 -10.4099 -10.3024  -9.9908  -9.8677  -9.6948
    -9.5043  -9.3448  -9.1178  -8.9712  -8.8308  -8.7507  -8.6565  -8.4591
    -8.4236  -8.4082  -8.3008  -8.2437  -8.0969  -7.9743  -7.8800  -7.8110
    -7.8079  -7.6456  -7.4768  -7.4480  -7.3735  -7.2555  -7.0997  -6.9872
    -6.6990  -6.6981  -6.4910  -6.2756  -6.2249  -5.9925  -5.7990  -5.7393
    -5.6128  -5.3997  -5.2808  -5.1681  -5.1118  -4.8829  -4.7485  -4.6064
    -4.5101  -4.4441  -4.2514  -4.2118  -4.0048  -3.5818  -3.5092  -3.3944
    -3.3591  -3.1521  -2.8799  -2.7843  -2.5568  -2.2525  -2.1741  -1.8832
    -1.7581  -1.6420  -0.1225   0.0215   0.0602   0.3065   0.4845   0.5530
     0.7661   0.9417   1.0669   1.0738   1.1613   1.2132   1.3504   1.5670
     1.7535   2.1737   2.2746   2.3406   2.4160   2.6385   2.7267   2.9399
     3.1042   3.1475   3.2000   3.3245   3.4238   3.5761   3.8014   3.8207
     3.9305   3.9673   4.0544   4.0936   4.2991   4.3586   4.4520   4.5626
     4.8648   4.8728   4.8839   4.8966   4.9736   5.0407   5.1564   5.2295
     5.3885   5.5525   5.6319   5.6493   5.6644   5.9270   6.0552   6.1120
     6.3395   6.3683   6.4438   6.4707   6.5612   6.6606   6.7141   6.7755
     6.8604   6.9288   6.9913   7.1361   7.2034   7.3624   7.3953   7.4477
     7.4484   7.4842   7.4948   7.5251   7.5472   7.5563   7.6116   7.6473
     7.7050   7.7419   7.7714   7.8294   7.8853   7.9989   8.0639   8.1079
     8.2092   8.3506   8.3924   8.4672   8.4926   8.5134   8.6259   8.6501
     8.6917   8.7120   8.7258   8.7644   8.7788   8.8297   8.8553   8.8904
     8.9176   9.0259   9.0859   9.1101   9.2313   9.2998   9.3321   9.3851
     9.4233   9.4585   9.5117   9.6409   9.6775   9.6954   9.7133   9.7214
     9.7358   9.7601   9.8105   9.8287   9.8418   9.8832   9.9043   9.9110
     9.9253   9.9324   9.9632  10.0051  10.0524  10.0667  10.0804  10.1087
    10.1453  10.1545  10.2198  10.2335  10.2432  10.2490  10.2701  10.3481
    10.3615  10.3968  10.4905  10.5070  10.5492  10.5824  10.6224  10.6989
    10.8073  10.8510  10.9127  11.0023  11.0374  11.0442  11.1156  11.1381
    11.2298  11.2365  11.2613  11.2672  11.3570  11.3758  11.4059  11.4249
    11.4606  11.4893  11.5225  11.5711  11.5983  11.6169  11.6555  11.6708
    11.7086  11.7483  11.7783  11.7958  11.8123  11.8243  11.8548  11.8874
    11.9024  11.9407  11.9539  11.9575  12.0082  12.0237  12.0832  12.0997
    12.1454  12.1545  12.1725  12.2214  12.2333  12.2469  12.2508  12.2736
    12.2892  12.3617  12.3853  12.3922  12.4374  12.4610  12.4898  12.5084
    12.5323  12.5478  12.5545  12.5659  12.6108  12.6153  12.6300  12.6730
    12.6883  12.7047  12.7176  12.7688  12.8292  12.8570  12.8885  12.9357
    12.9630  12.9993  13.0296  13.1174  13.1877  13.2167  13.2357  13.2677
    13.3304  13.3794  13.4198  13.4690  13.5654  13.5898  13.6250  13.7138
    13.7994  13.8426  13.9229  13.9644  13.9872  14.0766  14.0972  14.1304
    14.2085  14.2224  14.2459  14.2817  14.3089  14.3562  14.4026  14.4204
    14.4375  14.4867  14.5127  14.5794  14.5926  14.6141  14.7028  14.7278
    14.7427  14.7668  14.8095  14.8483  14.8621  14.9020  14.9131  14.9379
    14.9805  15.0572  15.0706  15.1287  15.1373  15.1450  15.1832  15.2225
    15.3021  15.3591  15.3928  15.4110  15.4352  15.4961  15.5271  15.6148
    15.6489  15.6758  15.7013  15.7155  15.7372  15.8284  15.8756  15.9032
    15.9739  16.0615  16.0864  16.1037  16.1798  16.2494  16.2797  16.3678
    16.3820  16.4355  16.4669  16.4877  16.5267  16.5555  16.6570  16.6822
    16.7243  16.7352  16.7539  16.8253  16.8290  16.8687  16.8849  16.9230
    16.9301  16.9682  16.9999  17.0549  17.0748  17.1102  17.1415  17.1976
    17.2240  17.2837  17.3123  17.3287  17.3490  17.3786  17.4047  17.4119
    17.4440  17.4493  17.4847  17.4926  17.4945  17.5574  17.5886  17.6060
    17.6614  17.6913  17.7156  17.7678  17.7861  17.8071  17.8292  17.8624
    17.8804  17.9064  17.9669  17.9954  18.0610  18.0802  18.0988  18.1282
    18.1495  18.1834  18.2256  18.2401  18.2794  18.2910  18.3704  18.4471
    18.4689  18.4915  18.5444  18.5962  18.6072  18.6343  18.6431  18.6557
    18.7156  18.7197  18.7604  18.7981  18.8334  18.8445  18.8725  18.8993
    18.9297  18.9796  18.9877  19.0540

          k = 0.0000 0.0000 0.0282 ( 51002 PWs)   bands (ev):

   -25.4331 -25.4302 -23.2986 -23.2931 -20.3564 -20.3150 -20.2001 -20.0253
   -19.7894 -19.4996 -19.1563 -18.7616 -18.3094 -17.8139 -17.2785 -16.7144
   -16.1634 -16.0344 -16.0258 -15.9113 -15.7928 -15.5780 -15.5544 -15.3003
   -15.1472 -14.9032 -14.7985 -14.4879 -14.4333 -13.8233 -13.7440 -13.3384
   -13.1955 -13.1394 -13.1126 -13.0698 -12.9573 -12.9054 -12.7215 -12.6660
   -12.6369 -12.3822 -12.1134 -11.7634 -11.4750 -11.4172 -11.2139 -10.8732
   -10.8456 -10.7256 -10.4534 -10.3202 -10.3006  -9.9539  -9.8221  -9.7097
    -9.4734  -9.3041  -9.1372  -8.9410  -8.8090  -8.7277  -8.6201  -8.4780
    -8.3926  -8.3802  -8.2665  -8.1975  -8.0827  -7.9587  -7.9206  -7.7804
    -7.7677  -7.6251  -7.4466  -7.4143  -7.3520  -7.3134  -7.0690  -6.9460
    -6.7345  -6.6676  -6.4943  -6.2705  -6.2070  -6.0086  -5.8258  -5.7270
    -5.6142  -5.4169  -5.3161  -5.1659  -5.1373  -4.9200  -4.8171  -4.5963
    -4.5530  -4.5217  -4.3396  -4.2628  -3.9881  -3.7178  -3.6458  -3.5019
    -3.3816  -3.2925  -3.0238  -2.7981  -2.6999  -2.3807  -2.2396  -2.0423
    -1.8526  -1.7921   0.0162   0.1001   0.2096   0.4585   0.5009   0.7156
     0.9327   1.0436   1.1125   1.2463   1.3358   1.3877   1.3889   1.5918
     1.7273   2.2094   2.3096   2.3634   2.3850   2.6732   2.7599   2.9730
     3.0965   3.1477   3.2254   3.3580   3.4547   3.6084   3.7961   3.8386
     3.9654   4.0023   4.0849   4.1018   4.3339   4.3926   4.4754   4.5310
     4.8972   4.9029   4.9169   4.9284   5.0066   5.0633   5.1825   5.2615
     5.3539   5.5667   5.6617   5.6677   5.6957   5.9374   6.0835   6.1296
     6.3250   6.3836   6.4601   6.4945   6.5741   6.6614   6.6923   6.7320
     6.8092   6.8877   6.9772   7.1563   7.2098   7.3877   7.4093   7.4420
     7.4632   7.4839   7.4958   7.5188   7.5405   7.5624   7.5877   7.6574
     7.6814   7.7500   7.7803   7.8300   7.8890   7.9052   7.9975   8.0664
     8.1204   8.2802   8.3292   8.3541   8.4108   8.4357   8.4618   8.5073
     8.5831   8.5943   8.6750   8.7349   8.7395   8.7671   8.8041   8.8246
     8.8390   8.8929   8.9336   8.9958   9.0818   9.1830   9.2271   9.2647
     9.3047   9.3474   9.4364   9.5163   9.5756   9.6138   9.6517   9.7075
     9.7347   9.7542   9.7619   9.7897   9.8183   9.8287   9.8491   9.8524
     9.8854   9.8988   9.9253   9.9348   9.9408   9.9505   9.9662   9.9965
    10.0383  10.0501  10.0609  10.0721  10.1588  10.1786  10.2051  10.2540
    10.2882  10.3448  10.4012  10.4661  10.5390  10.5509  10.5831  10.6652
    10.7168  10.7296  10.8387  10.9406  10.9570  11.0094  11.0507  11.0633
    11.0825  11.1256  11.1547  11.1934  11.2206  11.2853  11.3328  11.3416
    11.3914  11.4406  11.5060  11.5531  11.6242  11.6286  11.6532  11.7105
    11.7464  11.7716  11.8099  11.8578  11.9011  11.9048  11.9323  11.9396
    11.9761  11.9922  12.0099  12.0208  12.0734  12.0900  12.1265  12.1513
    12.1589  12.1665  12.2262  12.2304  12.2514  12.2734  12.3099  12.3574
    12.3798  12.4070  12.4346  12.4624  12.4865  12.4953  12.5083  12.5341
    12.5570  12.5685  12.5774  12.6072  12.6237  12.6299  12.6531  12.6981
    12.7302  12.7704  12.7920  12.8000  12.8220  12.8938  12.9077  12.9540
    12.9725  13.0768  13.1059  13.1395  13.1729  13.2345  13.2729  13.3170
    13.3599  13.3949  13.4297  13.4836  13.5900  13.6487  13.6766  13.7522
    13.8040  13.8437  13.9423  13.9567  14.0148  14.0252  14.1003  14.1753
    14.2085  14.2320  14.2801  14.3125  14.4105  14.4592  14.4700  14.4950
    14.5228  14.5575  14.6192  14.6726  14.6801  14.6881  14.7032  14.7542
    14.7808  14.8051  14.8158  14.8687  14.9041  14.9524  14.9808  14.9990
    15.0191  15.0782  15.0879  15.1418  15.1563  15.2395  15.3042  15.3317
    15.3544  15.3762  15.4250  15.4806  15.4911  15.5473  15.5601  15.6109
    15.6431  15.6806  15.7023  15.7252  15.7342  15.8028  15.8147  15.9619
    16.0397  16.1028  16.1286  16.1908  16.2320  16.2745  16.3067  16.3630
    16.4345  16.4768  16.4880  16.5108  16.5196  16.5677  16.6919  16.7125
    16.7558  16.7963  16.8102  16.8150  16.8780  16.9203  16.9311  16.9517
    16.9633  17.0063  17.0483  17.0498  17.0995  17.1154  17.1367  17.1698
    17.1833  17.2187  17.2703  17.3009  17.3280  17.3384  17.3475  17.3584
    17.4265  17.4483  17.4865  17.5091  17.5457  17.5682  17.5970  17.6683
    17.6804  17.7115  17.7247  17.7581  17.7689  17.8159  17.8314  17.8519
    17.9069  17.9547  17.9719  17.9899  18.0553  18.0895  18.1192  18.1449
    18.1665  18.2168  18.2635  18.2888  18.3186  18.3523  18.3996  18.4186
    18.4959  18.5202  18.5342  18.5747  18.5863  18.6162  18.6358  18.6525
    18.6637  18.7046  18.7460  18.8166  18.8523  18.8642  18.8832  18.9063
    18.9543  19.0056  19.0346  19.0769

          k = 0.0000 0.0000 0.0329 ( 50998 PWs)   bands (ev):

   -25.4146 -25.4118 -23.3304 -23.3250 -20.3257 -20.2843 -20.1696 -19.9948
   -19.7591 -19.4694 -19.1263 -18.7318 -18.2798 -17.7847 -17.2501 -16.6885
   -16.2444 -16.2080 -16.1442 -16.0495 -15.9592 -15.7432 -15.5961 -15.4181
   -15.2593 -14.9550 -14.9176 -14.5592 -14.5333 -13.7762 -13.7060 -13.3664
   -13.1699 -13.0445 -12.9435 -12.9103 -12.8219 -12.7224 -12.6829 -12.5377
   -12.4953 -12.3803 -12.1295 -11.8222 -11.4416 -11.3383 -11.2554 -10.8638
   -10.7485 -10.6432 -10.3968 -10.3412 -10.1997  -9.9304  -9.7889  -9.6862
    -9.4464  -9.2763  -9.1294  -8.9132  -8.7957  -8.7008  -8.5782  -8.4728
    -8.3548  -8.3461  -8.2305  -8.1608  -8.0790  -7.9675  -7.9037  -7.7465
    -7.7209  -7.5998  -7.4216  -7.4114  -7.3755  -7.2829  -7.0314  -6.9039
    -6.7978  -6.6322  -6.4810  -6.2827  -6.1851  -6.0288  -5.8540  -5.7128
    -5.6172  -5.4437  -5.3563  -5.2029  -5.1217  -4.9706  -4.8910  -4.6429
    -4.6118  -4.5499  -4.4373  -4.3231  -3.9688  -3.8664  -3.7946  -3.6514
    -3.4450  -3.3731  -3.1778  -2.8826  -2.7833  -2.5394  -2.2886  -2.2063
    -1.9515  -1.9407   0.1531   0.1757   0.3685   0.4994   0.6385   0.8896
     1.0182   1.1140   1.2985   1.4319   1.4368   1.5296   1.5838   1.5991
     1.7205   2.2515   2.3174   2.3512   2.4210   2.7141   2.8003   3.0125
     3.0431   3.1840   3.2642   3.3969   3.4910   3.6468   3.7604   3.8798
     4.0065   4.0437   4.1181   4.1229   4.3748   4.4327   4.4901   4.5057
     4.9346   4.9395   4.9559   4.9659   5.0446   5.0931   5.2020   5.2991
     5.3270   5.5742   5.6886   5.6988   5.7342   5.9545   6.1135   6.1498
     6.3005   6.3989   6.4663   6.5243   6.5483   6.6538   6.6724   6.7149
     6.7640   6.8525   6.9604   7.1779   7.2140   7.3889   7.4083   7.4330
     7.4625   7.4780   7.5109   7.5217   7.5247   7.5606   7.5875   7.5995
     7.6727   7.7638   7.7877   7.8410   7.8671   7.8943   7.9483   7.9828
     8.0374   8.1068   8.1763   8.2175   8.2297   8.2694   8.3661   8.4461
     8.4707   8.5200   8.5923   8.6428   8.6612   8.6816   8.7708   8.7980
     8.8253   8.8377   8.8645   8.9095   8.9410   9.0434   9.0944   9.1286
     9.2168   9.2290   9.2743   9.3680   9.4714   9.5357   9.5545   9.5943
     9.6231   9.6411   9.6971   9.7149   9.7487   9.7564   9.7729   9.7891
     9.7986   9.7998   9.8672   9.8737   9.8792   9.9096   9.9124   9.9536
     9.9841  10.0214  10.0274  10.0403  10.0616  10.0893  10.1019  10.1834
    10.2445  10.2786  10.4005  10.4380  10.4529  10.4834  10.5744  10.5973
    10.6154  10.7035  10.7169  10.7803  10.8302  10.8689  10.9033  10.9677
    10.9995  11.0806  11.0924  11.1211  11.1344  11.1457  11.2369  11.2938
    11.3664  11.4049  11.4625  11.5714  11.5993  11.6144  11.6723  11.6871
    11.7213  11.7710  11.8111  11.8421  11.8736  11.9099  11.9280  11.9571
    11.9697  11.9717  12.0542  12.0692  12.1149  12.1581  12.1655  12.1862
    12.2008  12.2644  12.2731  12.2907  12.3605  12.3813  12.4176  12.4205
    12.4550  12.4698  12.4934  12.5128  12.5322  12.5458  12.5668  12.5849
    12.6147  12.6290  12.6416  12.6477  12.6725  12.6879  12.6978  12.7322
    12.7640  12.8037  12.8121  12.8461  12.8669  12.8900  12.8979  12.9853
    13.0003  13.0457  13.0785  13.1366  13.1722  13.3053  13.3283  13.3714
    13.4020  13.4361  13.4509  13.5545  13.5690  13.6182  13.7570  13.8130
    13.8802  13.9051  13.9390  13.9807  14.0028  14.0341  14.1024  14.1812
    14.2071  14.2196  14.2786  14.3320  14.3629  14.4510  14.5290  14.5556
    14.5642  14.5907  14.6512  14.7708  14.7985  14.8048  14.8368  14.8774
    14.9011  14.9174  14.9312  14.9628  14.9637  14.9796  14.9934  15.0738
    15.0978  15.1261  15.1403  15.1924  15.2278  15.2537  15.3201  15.3225
    15.3485  15.3722  15.4761  15.5035  15.5283  15.5495  15.6389  15.6661
    15.7096  15.7380  15.7493  15.8165  15.8339  15.8578  15.8842  15.9845
    16.0930  16.1479  16.1963  16.2264  16.2553  16.2773  16.3554  16.4062
    16.4442  16.4789  16.5230  16.5462  16.5725  16.5736  16.6261  16.6800
    16.7681  16.7975  16.8367  16.8796  16.9008  16.9343  16.9481  16.9591
    16.9698  16.9998  17.0658  17.1021  17.1084  17.1223  17.1539  17.1827
    17.1891  17.2109  17.2270  17.2531  17.2555  17.3223  17.3532  17.3819
    17.4044  17.4538  17.4670  17.4983  17.5609  17.5815  17.5950  17.6106
    17.6761  17.6859  17.7031  17.7367  17.7694  17.8074  17.8592  17.9097
    17.9670  17.9921  18.0196  18.0391  18.1070  18.1604  18.1942  18.2147
    18.2509  18.2562  18.3027  18.3310  18.3792  18.3933  18.4336  18.4571
    18.4928  18.5097  18.5237  18.5666  18.6107  18.6324  18.6535  18.6912
    18.6934  18.7391  18.7608  18.7879  18.8006  18.8589  18.8780  18.8984
    18.9399  19.0118  19.0996  19.1379

          k = 0.0000 0.0000 0.0376 ( 51046 PWs)   bands (ev):

   -25.3935 -25.3907 -23.3661 -23.3610 -20.2902 -20.2490 -20.1343 -19.9597
   -19.7241 -19.4346 -19.0917 -18.6974 -18.2458 -17.7511 -17.2175 -16.6613
   -16.4117 -16.3811 -16.2917 -16.1316 -16.0766 -15.8995 -15.7077 -15.4599
   -15.4001 -15.0535 -14.9828 -14.6622 -14.6036 -13.7442 -13.6706 -13.4045
   -13.2168 -13.0224 -12.8049 -12.7029 -12.6860 -12.5788 -12.5399 -12.4684
   -12.3103 -12.2844 -12.1372 -11.8642 -11.4651 -11.2555 -11.2319 -10.9222
   -10.6214 -10.5453 -10.3938 -10.2850 -10.1069  -9.9113  -9.7801  -9.6152
    -9.4339  -9.2487  -9.1013  -8.9000  -8.7653  -8.6741  -8.5425  -8.4307
    -8.3144  -8.3102  -8.1955  -8.1706  -8.0500  -7.9471  -7.8680  -7.7100
    -7.6747  -7.5821  -7.4879  -7.3722  -7.3326  -7.2398  -6.9887  -6.8938
    -6.8449  -6.5941  -6.4639  -6.3170  -6.1623  -6.0435  -5.8849  -5.7097
    -5.6150  -5.4849  -5.3928  -5.2468  -5.1109  -5.0250  -4.9683  -4.7313
    -4.7068  -4.5428  -4.5225  -4.3919  -4.0244  -3.9570  -3.9426  -3.8098
    -3.6047  -3.3751  -3.3281  -3.0405  -2.8022  -2.7050  -2.3724  -2.3421
    -2.0860  -2.0548   0.2542   0.2876   0.5150   0.5284   0.8095   0.9904
     1.0726   1.3058   1.4747   1.5064   1.5706   1.6441   1.7386   1.7486
     1.7956   2.2584   2.3001   2.3991   2.4692   2.7609   2.8475   2.9787
     3.0582   3.2287   3.3108   3.4396   3.5319   3.6903   3.7149   3.9277
     4.0539   4.0914   4.1516   4.1555   4.4219   4.4467   4.4794   4.5383
     4.9765   4.9823   4.9992   5.0093   5.0857   5.1298   5.1974   5.3298
     5.3418   5.5721   5.7178   5.7392   5.7780   5.9796   6.1380   6.1698
     6.2788   6.3756   6.4451   6.5034   6.5547   6.6327   6.6765   6.7283
     6.7354   6.8359   6.9394   7.1871   7.2178   7.3450   7.3898   7.4126
     7.4591   7.4743   7.5085   7.5126   7.5367   7.5462   7.5729   7.6047
     7.6358   7.7131   7.7663   7.8089   7.8297   7.8619   7.8979   7.9280
     7.9335   7.9727   8.0444   8.0552   8.1153   8.1177   8.2596   8.3476
     8.3640   8.4203   8.4868   8.5166   8.5773   8.6288   8.6823   8.7135
     8.7826   8.8033   8.8455   8.8797   8.9139   8.9482   8.9757   9.0185
     9.0711   9.0895   9.1611   9.2190   9.3190   9.3850   9.4010   9.4166
     9.4397   9.4898   9.5395   9.6046   9.6244   9.6253   9.7098   9.7767
     9.7828   9.7932   9.8071   9.8257   9.8325   9.8507   9.8712   9.8958
     9.9310   9.9362   9.9454  10.0223  10.0842  10.1086  10.1347  10.1858
    10.2104  10.2594  10.2724  10.3449  10.3798  10.4358  10.4745  10.4860
    10.5346  10.5747  10.6200  10.6758  10.7024  10.7687  10.7986  10.8473
    10.8893  10.9587  11.0158  11.0668  11.1467  11.1684  11.1996  11.2226
    11.2604  11.3627  11.4294  11.4948  11.5464  11.6161  11.6228  11.6447
    11.6905  11.7448  11.7825  11.8244  11.8502  11.9104  11.9319  11.9569
    11.9954  12.0209  12.0442  12.0649  12.0816  12.1137  12.1916  12.2139
    12.2259  12.2946  12.3023  12.3545  12.3801  12.4273  12.4386  12.4867
    12.5030  12.5331  12.5605  12.5889  12.6039  12.6182  12.6272  12.6692
    12.6745  12.6824  12.7070  12.7292  12.7561  12.7689  12.7826  12.7882
    12.8244  12.8424  12.8487  12.8816  12.9005  12.9231  12.9349  12.9570
    13.0290  13.0772  13.0964  13.1600  13.2102  13.3410  13.3624  13.4161
    13.4573  13.4763  13.4917  13.5335  13.6188  13.6393  13.6441  13.8134
    13.8382  13.9090  13.9304  14.0377  14.0793  14.1138  14.1566  14.1745
    14.2279  14.2637  14.2958  14.3054  14.4680  14.4720  14.5738  14.5853
    14.6112  14.6753  14.7148  14.7797  14.8141  14.8593  14.8791  14.9239
    14.9507  14.9780  14.9991  15.0479  15.0921  15.0994  15.1341  15.1692
    15.1762  15.2070  15.2436  15.2594  15.2721  15.3115  15.3274  15.3419
    15.4114  15.4387  15.4921  15.5450  15.5913  15.6346  15.6707  15.7149
    15.7457  15.8398  15.8670  15.8786  15.9252  15.9437  15.9858  16.0043
    16.1266  16.1818  16.2075  16.2419  16.2908  16.3479  16.3967  16.4168
    16.4755  16.5185  16.5337  16.5452  16.5995  16.6436  16.6459  16.6950
    16.7460  16.7567  16.8090  16.8163  16.8352  16.8722  16.9169  16.9630
    17.0046  17.0246  17.0377  17.0709  17.1130  17.1363  17.1514  17.1924
    17.2219  17.2228  17.2451  17.2658  17.3088  17.3203  17.3859  17.4393
    17.4674  17.4927  17.5037  17.5291  17.5381  17.5686  17.5752  17.6070
    17.6336  17.6842  17.7144  17.7508  17.8323  17.8441  17.8740  17.9272
    17.9736  17.9849  18.0429  18.0894  18.1429  18.1983  18.2280  18.2529
    18.2662  18.2864  18.3178  18.3503  18.3696  18.4278  18.4692  18.5120
    18.5322  18.6081  18.6321  18.6542  18.6839  18.6999  18.7409  18.7631
    18.7721  18.7746  18.7871  18.7903  18.8756  18.9013  18.9107  18.9150
    18.9316  19.0734  19.1082  19.1588

          k = 0.0000 0.0000 0.0423 ( 51056 PWs)   bands (ev):

   -25.3699 -25.3672 -23.4054 -23.4005 -20.2501 -20.2090 -20.0944 -19.9199
   -19.6845 -19.3952 -19.0525 -18.6585 -18.2073 -17.7133 -17.1812 -16.6464
   -16.5866 -16.5398 -16.4619 -16.3003 -16.1359 -15.9886 -15.8577 -15.5509
   -15.4648 -15.1867 -15.0216 -14.7612 -14.6744 -13.7325 -13.6263 -13.4699
   -13.2196 -13.0733 -12.7633 -12.5968 -12.4749 -12.4695 -12.3423 -12.3173
   -12.1570 -12.1288 -12.1095 -11.8725 -11.5222 -11.1810 -11.1566 -10.9904
   -10.5532 -10.4411 -10.3794 -10.1824 -10.0258  -9.9179  -9.7244  -9.5580
    -9.4231  -9.1942  -9.0936  -8.8798  -8.7133  -8.6485  -8.5081  -8.3690
    -8.3050  -8.2594  -8.1952  -8.1387  -8.0008  -7.9050  -7.8269  -7.6913
    -7.6467  -7.5799  -7.4920  -7.3293  -7.2849  -7.2013  -6.9678  -6.9415
    -6.8156  -6.5560  -6.4548  -6.3634  -6.1486  -6.0441  -5.9216  -5.7291
    -5.6015  -5.5375  -5.4248  -5.2945  -5.1557  -5.0598  -5.0251  -4.8424
    -4.8110  -4.6430  -4.4966  -4.4663  -4.1890  -4.1174  -3.9746  -3.9225
    -3.7697  -3.5123  -3.3476  -3.2072  -2.8741  -2.8190  -2.5345  -2.4099
    -2.2221  -2.1621   0.3354   0.4171   0.5367   0.6869   0.9634   0.9847
     1.2602   1.5020   1.5298   1.5391   1.7109   1.7968   1.8614   1.9604
     2.0205   2.1931   2.3552   2.4535   2.5242   2.8109   2.9002   2.9106
     3.1096   3.2796   3.3641   3.4799   3.5752   3.6683   3.7413   3.9820
     4.1075   4.1454   4.1792   4.1952   4.4095   4.4749   4.5316   4.5746
     5.0208   5.0273   5.0439   5.0592   5.1195   5.1722   5.1870   5.3647
     5.3872   5.5625   5.7512   5.7839   5.8254   6.0128   6.1431   6.1769
     6.2512   6.3060   6.3933   6.4977   6.5730   6.6292   6.6828   6.7226
     6.7733   6.8349   6.9147   7.1571   7.2240   7.2926   7.3424   7.3714
     7.4330   7.4437   7.4823   7.5077   7.5417   7.5491   7.5556   7.5707
     7.6002   7.6243   7.6991   7.7113   7.7184   7.7343   7.7757   7.8355
     7.9115   7.9415   7.9805   7.9998   8.0715   8.0935   8.1304   8.2331
     8.2465   8.2907   8.3200   8.4557   8.4843   8.5392   8.5799   8.6377
     8.7318   8.7421   8.7625   8.8198   8.8338   8.8810   8.9540   8.9628
     8.9980   9.0155   9.0780   9.0920   9.1444   9.1567   9.1882   9.2302
     9.3305   9.3651   9.4003   9.4226   9.4609   9.5086   9.6104   9.6259
     9.6503   9.7022   9.7852   9.8073   9.8091   9.8322   9.8672   9.8777
     9.8970   9.9301   9.9755  10.0146  10.0687  10.0781  10.1180  10.1843
    10.1858  10.1997  10.2136  10.2460  10.2679  10.3189  10.3489  10.3794
    10.4146  10.5113  10.5405  10.5898  10.6099  10.6724  10.7165  10.7462
    10.8534  10.8984  10.9424  10.9772  11.0775  11.1516  11.1924  11.2198
    11.2439  11.2771  11.3674  11.4148  11.4777  11.5149  11.5475  11.5913
    11.6895  11.7375  11.7446  11.8038  11.8465  11.8867  11.9255  11.9649
    11.9836  12.0091  12.0671  12.1010  12.1303  12.1345  12.1820  12.2232
    12.2549  12.2742  12.3099  12.3449  12.3962  12.4063  12.4471  12.4811
    12.5079  12.5345  12.5636  12.5772  12.5875  12.6101  12.6398  12.6833
    12.6908  12.7158  12.7427  12.7744  12.7851  12.8206  12.8346  12.8668
    12.8914  12.9046  12.9391  12.9586  13.0145  13.0464  13.0764  13.0997
    13.1096  13.1509  13.1928  13.2591  13.2984  13.3383  13.3974  13.4123
    13.4486  13.4776  13.5169  13.5580  13.6390  13.6608  13.6893  13.7051
    13.7388  13.8448  13.8644  14.0888  14.1090  14.1487  14.1739  14.1835
    14.2720  14.3314  14.4252  14.4891  14.5086  14.5429  14.5850  14.6311
    14.6730  14.6802  14.7624  14.7948  14.8262  14.8651  14.9027  14.9451
    14.9583  15.0023  15.0631  15.1185  15.1395  15.1745  15.2461  15.2629
    15.2827  15.3145  15.3491  15.3941  15.4030  15.4274  15.4437  15.4659
    15.5116  15.5266  15.5467  15.5814  15.6228  15.6464  15.7328  15.8348
    15.8584  15.8833  15.9068  15.9328  15.9655  16.0123  16.0273  16.0692
    16.1158  16.1603  16.2216  16.2777  16.3619  16.3780  16.4274  16.4661
    16.5097  16.5286  16.5421  16.5530  16.6002  16.6153  16.6379  16.6842
    16.7452  16.7843  16.8104  16.8263  16.8386  16.8683  16.8815  16.9757
    16.9915  17.0320  17.0428  17.0848  17.0940  17.1377  17.1723  17.1752
    17.2234  17.2489  17.2573  17.3132  17.3175  17.3615  17.3811  17.4251
    17.4765  17.5373  17.5533  17.5715  17.6081  17.6267  17.6559  17.6627
    17.6709  17.7017  17.7277  17.7571  17.7871  17.8761  17.9323  17.9629
    18.0159  18.0623  18.0878  18.1080  18.1270  18.1532  18.2224  18.2740
    18.3078  18.3411  18.3705  18.3968  18.4452  18.4697  18.4870  18.5217
    18.6018  18.6629  18.6849  18.6962  18.7351  18.7634  18.7816  18.7963
    18.8190  18.8335  18.8973  18.9119  18.9215  18.9898  19.0116  19.0592
    19.0861  19.1288  19.1913  19.2068

          k = 0.0000 0.0000 0.0469 ( 51116 PWs)   bands (ev):

   -25.3439 -25.3412 -23.4480 -23.4433 -20.2052 -20.1643 -20.0498 -19.8755
   -19.6403 -19.3512 -19.0088 -18.6152 -18.1644 -17.6712 -17.1417 -16.7623
   -16.7493 -16.6352 -16.5831 -16.4567 -16.2810 -16.0195 -15.9815 -15.7006
   -15.4862 -15.2948 -15.0920 -14.8320 -14.7558 -13.7281 -13.5938 -13.5332
   -13.2109 -13.1380 -12.7277 -12.6544 -12.2984 -12.2392 -12.1740 -12.1487
   -12.1134 -11.9692 -11.9171 -11.8272 -11.5736 -11.1564 -11.0641 -11.0099
   -10.6083 -10.3327 -10.2548 -10.1259  -9.9547  -9.8809  -9.6732  -9.5132
    -9.3767  -9.1623  -9.0744  -8.8320  -8.6788  -8.6073  -8.4687  -8.3406
    -8.2831  -8.2019  -8.1640  -8.0866  -7.9527  -7.8521  -7.7816  -7.7471
    -7.6088  -7.5363  -7.4571  -7.2826  -7.2338  -7.1865  -7.0287  -6.8948
    -6.7851  -6.5259  -6.4781  -6.3860  -6.1536  -6.0370  -5.9565  -5.7679
    -5.6169  -5.5685  -5.4522  -5.3446  -5.2485  -5.1406  -5.0077  -4.9740
    -4.9166  -4.7441  -4.5546  -4.4580  -4.3581  -4.2858  -4.1427  -3.9418
    -3.8931  -3.6803  -3.3780  -3.3385  -3.0410  -2.8482  -2.6875  -2.4996
    -2.3393  -2.2718   0.4186   0.5190   0.5873   0.8386   0.9431   1.1608
     1.4499   1.4739   1.6046   1.7109   1.8599   1.9283   2.0872   2.1218
     2.1941   2.2565   2.4167   2.5141   2.5856   2.8130   2.8892   2.9606
     3.1659   3.3361   3.4239   3.4918   3.6131   3.6620   3.7946   4.0427
     4.1653   4.1781   4.2062   4.2455   4.3994   4.5335   4.5895   4.6111
     5.0311   5.0753   5.0947   5.1150   5.1446   5.2182   5.2212   5.4148
     5.4299   5.5551   5.7802   5.8309   5.8723   6.0502   6.1141   6.1268
     6.1741   6.3166   6.3583   6.4835   6.5804   6.6394   6.7027   6.7511
     6.7981   6.8416   6.9006   7.0841   7.1856   7.2300   7.2859   7.3144
     7.3471   7.3582   7.4307   7.4364   7.4596   7.4648   7.5077   7.5586
     7.5780   7.5910   7.5976   7.6395   7.6571   7.6814   7.7273   7.7634
     7.8153   7.8899   7.9285   7.9493   8.0145   8.0643   8.1225   8.1400
     8.1682   8.1794   8.2379   8.3313   8.3545   8.4275   8.5071   8.5550
     8.6067   8.6461   8.6756   8.7652   8.7848   8.8106   8.8344   8.8707
     8.9191   8.9388   8.9822   8.9952   9.0538   9.0637   9.1005   9.1634
     9.1748   9.1888   9.2012   9.3093   9.3189   9.3921   9.4497   9.4650
     9.5459   9.5559   9.6658   9.7452   9.7797   9.8375   9.8686   9.8721
     9.9115   9.9204   9.9268   9.9521   9.9718  10.0056  10.0255  10.1008
    10.1162  10.1474  10.1794  10.2210  10.2533  10.2643  10.2817  10.3131
    10.3392  10.3699  10.4469  10.5467  10.6066  10.6145  10.6781  10.7009
    10.7522  10.8037  10.8768  10.9477  10.9954  11.0343  11.1808  11.2166
    11.2316  11.2937  11.3015  11.3318  11.3928  11.4226  11.4893  11.5194
    11.6362  11.6971  11.7489  11.7851  11.8316  11.9107  11.9207  11.9270
    12.0001  12.0223  12.0939  12.1114  12.1638  12.1785  12.2119  12.2251
    12.2556  12.2618  12.2915  12.3137  12.3420  12.3532  12.4035  12.4328
    12.4858  12.5049  12.5094  12.5395  12.5658  12.5824  12.6015  12.6958
    12.7074  12.7279  12.7632  12.8173  12.8471  12.8664  12.8983  12.9015
    12.9284  12.9556  12.9732  13.0114  13.1057  13.1640  13.2260  13.2327
    13.2500  13.3026  13.3389  13.3515  13.3976  13.4000  13.4056  13.4300
    13.4407  13.4691  13.4860  13.5572  13.5923  13.6734  13.6928  13.7222
    13.7433  13.8071  13.8779  14.1181  14.1284  14.1613  14.1802  14.2293
    14.3181  14.4102  14.4445  14.4807  14.5246  14.5819  14.6225  14.6513
    14.6676  14.7175  14.7439  14.8176  14.9009  14.9546  14.9837  15.0444
    15.0582  15.1134  15.1150  15.1835  15.2251  15.2430  15.2805  15.3173
    15.3851  15.4304  15.4506  15.4606  15.4764  15.5149  15.5213  15.5599
    15.5969  15.6317  15.6555  15.6622  15.7548  15.7817  15.7874  15.8555
    15.8975  15.9150  15.9272  15.9893  16.0086  16.0322  16.0812  16.1355
    16.1619  16.2049  16.2419  16.2657  16.3051  16.3834  16.3873  16.4142
    16.4410  16.5179  16.5819  16.6027  16.6243  16.6541  16.6652  16.7298
    16.7452  16.7628  16.8337  16.8445  16.8553  16.9124  16.9357  16.9606
    17.0035  17.0549  17.1111  17.1200  17.1459  17.1838  17.2101  17.2349
    17.2382  17.2853  17.3038  17.3253  17.3578  17.3800  17.4013  17.4185
    17.4342  17.5091  17.5317  17.5673  17.6264  17.6462  17.6807  17.7423
    17.7677  17.7740  17.8106  17.8411  17.8937  17.9337  17.9541  17.9564
    18.0194  18.1021  18.1091  18.1694  18.2075  18.2376  18.2709  18.3040
    18.3118  18.3696  18.4416  18.4843  18.5119  18.5377  18.5583  18.5845
    18.6966  18.7139  18.7297  18.7419  18.7663  18.7911  18.8140  18.8388
    18.8581  18.9162  18.9179  18.9246  18.9453  19.0742  19.1347  19.1790
    19.2222  19.2500  19.2656  19.3186

          k = 0.0000 0.0000 0.0516 ( 51142 PWs)   bands (ev):

   -25.3156 -25.3130 -23.4933 -23.4889 -20.1557 -20.1149 -20.0006 -19.8264
   -19.5914 -19.3026 -18.9606 -18.5673 -18.1171 -17.6251 -17.1019 -16.9323
   -16.9136 -16.8020 -16.6664 -16.5105 -16.4400 -16.1750 -15.9792 -15.8294
   -15.5721 -15.3349 -15.1963 -14.8749 -14.8478 -13.7291 -13.6331 -13.5231
   -13.2605 -13.1392 -12.7388 -12.6824 -12.2187 -12.1911 -11.9952 -11.9550
   -11.9002 -11.8120 -11.7325 -11.7090 -11.5906 -11.2046 -10.9691 -10.9462
   -10.6911 -10.2813 -10.1312 -10.0508  -9.8830  -9.8207  -9.6252  -9.4405
    -9.3364  -9.1578  -9.0032  -8.7736  -8.6783  -8.5475  -8.4264  -8.3334
    -8.2148  -8.1392  -8.1156  -8.0303  -7.9165  -7.8247  -7.7766  -7.7322
    -7.5593  -7.4789  -7.4131  -7.2340  -7.2312  -7.1772  -7.0355  -6.8520
    -6.7623  -6.5511  -6.4932  -6.3706  -6.1756  -6.0696  -5.9485  -5.8201
    -5.6926  -5.5716  -5.4635  -5.3967  -5.3603  -5.2257  -5.1325  -5.0395
    -4.9535  -4.8447  -4.6443  -4.5299  -4.4565  -4.4207  -4.3129  -4.1099
    -3.8688  -3.8491  -3.5465  -3.3376  -3.2008  -2.9221  -2.7971  -2.6161
    -2.4322  -2.3822   0.5032   0.5608   0.7001   0.8951   1.0180   1.3364
     1.4191   1.6284   1.6906   1.8979   1.9517   2.0472   2.1541   2.3213
     2.4345   2.4847   2.5017   2.5801   2.6535   2.7373   2.9494   3.0243
     3.2240   3.3948   3.4556   3.4903   3.6607   3.7075   3.8481   4.1096
     4.1378   4.2341   4.2727   4.3025   4.4281   4.5946   4.6401   4.6567
     5.0014   5.1246   5.1541   5.1751   5.1959   5.2672   5.2772   5.4554
     5.4733   5.5708   5.7799   5.8754   5.8908   6.0059   6.0811   6.1071
     6.1350   6.3271   6.3876   6.4481   6.5874   6.6555   6.7327   6.7508
     6.8038   6.8597   6.9238   6.9676   7.0500   7.1343   7.1732   7.2223
     7.2357   7.2986   7.3230   7.3367   7.3884   7.4147   7.4462   7.4836
     7.4955   7.5242   7.5602   7.6176   7.6333   7.6894   7.7163   7.7542
     7.7582   7.7894   7.8112   7.8869   7.9745   8.0113   8.0430   8.0833
     8.1046   8.1158   8.2273   8.2567   8.2592   8.3063   8.3938   8.4467
     8.4856   8.5658   8.6002   8.6309   8.6605   8.6877   8.7203   8.7487
     8.8317   8.8589   8.8999   8.9291   8.9745   8.9882   9.0208   9.0901
     9.1120   9.1252   9.1565   9.2020   9.2223   9.2906   9.2934   9.3198
     9.4026   9.4381   9.5114   9.6301   9.6653   9.6732   9.7459   9.7764
     9.8299   9.8582   9.8981   9.9533   9.9652   9.9757   9.9791  10.0166
    10.0266  10.0798  10.1166  10.1797  10.1852  10.2657  10.2916  10.3136
    10.3517  10.3738  10.3881  10.4712  10.5396  10.5521  10.6314  10.6533
    10.6807  10.7898  10.8138  10.8553  10.9664  11.0034  11.0460  11.0957
    11.2009  11.2589  11.3155  11.3424  11.3517  11.3923  11.4255  11.4418
    11.5647  11.6526  11.7772  11.7991  11.8070  11.8681  11.9293  11.9597
    12.0066  12.0291  12.0606  12.0929  12.1230  12.1599  12.1706  12.2061
    12.2108  12.2262  12.2834  12.2961  12.3020  12.3391  12.3929  12.4024
    12.4515  12.4586  12.4907  12.5418  12.5602  12.5729  12.5783  12.6991
    12.7220  12.7586  12.8025  12.8113  12.8509  12.8912  12.9223  12.9475
    12.9686  13.0131  13.0592  13.1096  13.1231  13.1786  13.2241  13.2419
    13.2912  13.3282  13.3513  13.3624  13.3672  13.4240  13.4419  13.4764
    13.5592  13.5832  13.6241  13.6266  13.6621  13.6890  13.7416  13.7617
    13.7704  13.8350  14.0420  14.1215  14.1449  14.1664  14.1851  14.2582
    14.3252  14.3989  14.4043  14.4410  14.5324  14.5870  14.6286  14.6514
    14.6824  14.7211  14.8619  14.9221  14.9538  15.0078  15.0419  15.1216
    15.1667  15.1930  15.2393  15.2523  15.2813  15.3083  15.3659  15.3839
    15.4052  15.4602  15.5087  15.5238  15.5495  15.6077  15.6469  15.6635
    15.7043  15.7171  15.7325  15.8058  15.8204  15.8547  15.8873  15.8932
    15.9235  15.9290  15.9589  16.0086  16.0467  16.0807  16.0948  16.1341
    16.1378  16.2013  16.2314  16.2488  16.3211  16.3831  16.4192  16.4364
    16.4846  16.5364  16.5452  16.5936  16.6278  16.7106  16.7217  16.7449
    16.7779  16.8073  16.8235  16.8377  16.8887  16.9136  16.9765  17.0223
    17.0611  17.1071  17.1294  17.1465  17.1562  17.2179  17.2369  17.2568
    17.2900  17.3587  17.3729  17.3830  17.4031  17.4286  17.4506  17.4772
    17.5313  17.5345  17.5592  17.6072  17.6465  17.6982  17.7466  17.7821
    17.8044  17.8231  17.8278  17.8876  17.9582  18.0107  18.0138  18.0376
    18.0886  18.1326  18.1786  18.2086  18.2599  18.2777  18.3334  18.3501
    18.3990  18.4509  18.4953  18.5131  18.5944  18.6235  18.6628  18.6948
    18.7487  18.7606  18.7876  18.8310  18.8365  18.8620  18.8655  18.9148
    18.9165  18.9388  18.9947  19.0150  19.0649  19.1088  19.1616  19.2152
    19.2584  19.3085  19.3203  19.3281

          k = 0.0000 0.0000 0.0563 ( 51136 PWs)   bands (ev):

   -25.2852 -25.2828 -23.5410 -23.5368 -20.1015 -20.0609 -19.9467 -19.7727
   -19.5380 -19.2495 -18.9078 -18.5150 -18.0656 -17.5753 -17.1195 -17.0825
   -17.0480 -16.9551 -16.8219 -16.6037 -16.4838 -16.3227 -16.0608 -15.8648
   -15.7015 -15.3340 -15.3155 -14.9471 -14.9078 -13.7558 -13.6592 -13.5185
   -13.3086 -13.1235 -12.7928 -12.6698 -12.2309 -12.1822 -11.8005 -11.7478
   -11.7025 -11.6623 -11.6282 -11.5195 -11.4743 -11.2533 -10.8953 -10.8592
   -10.7584 -10.3286 -10.0024  -9.9098  -9.8835  -9.7212  -9.5286  -9.3942
    -9.3156  -9.0820  -8.9436  -8.7571  -8.6352  -8.4970  -8.3887  -8.2835
    -8.1418  -8.0772  -8.0617  -7.9914  -7.9098  -7.8211  -7.7155  -7.6790
    -7.5054  -7.4183  -7.3716  -7.3078  -7.1779  -7.1221  -7.0072  -6.8337
    -6.7433  -6.6028  -6.4951  -6.3390  -6.2098  -6.1357  -5.9071  -5.8841
    -5.7861  -5.6104  -5.4990  -5.4506  -5.4418  -5.3094  -5.2903  -5.1470
    -4.9575  -4.9042  -4.7402  -4.7020  -4.6279  -4.4833  -4.3801  -4.2799
    -4.0203  -3.8411  -3.7122  -3.4055  -3.2901  -3.0592  -2.8460  -2.7482
    -2.5108  -2.4915   0.5883   0.5916   0.8260   0.8770   1.1692   1.3578
     1.5172   1.7314   1.8566   1.9724   1.9927   2.1462   2.3823   2.5586
     2.5606   2.6284   2.6771   2.6828   2.7277   2.7551   3.0216   3.0879
     3.2698   3.4003   3.4748   3.5627   3.7266   3.7685   3.8885   4.0922
     4.1834   4.3060   4.3456   4.3634   4.4818   4.6323   4.6844   4.7259
     4.9765   5.1616   5.2182   5.2389   5.2620   5.3117   5.3437   5.4698
     5.5334   5.6181   5.7040   5.8085   5.9099   6.0105   6.0612   6.1303
     6.1510   6.3251   6.4184   6.4450   6.5601   6.6537   6.6866   6.7443
     6.7910   6.8588   6.8875   6.9026   6.9413   6.9978   7.0718   7.1488
     7.1541   7.1731   7.2244   7.2616   7.2980   7.3395   7.3486   7.3873
     7.4420   7.4998   7.5243   7.5582   7.6225   7.6342   7.6437   7.6913
     7.7540   7.7717   7.7914   7.8347   7.8967   7.9200   7.9890   8.0229
     8.0486   8.0881   8.1215   8.1425   8.2546   8.2638   8.3054   8.3362
     8.3575   8.4164   8.4318   8.4859   8.5037   8.6057   8.6189   8.7142
     8.7249   8.7395   8.7975   8.8637   8.9074   8.9351   8.9420   9.0173
     9.0680   9.0786   9.1113   9.1486   9.1955   9.2130   9.2351   9.2588
     9.2832   9.3242   9.3513   9.4470   9.4564   9.5558   9.6186   9.6376
     9.6920   9.7315   9.7436   9.7558   9.9065   9.9647  10.0131  10.0352
    10.0584  10.0731  10.1002  10.1487  10.1801  10.2193  10.2509  10.3379
    10.3473  10.3734  10.4033  10.4180  10.4469  10.4678  10.5257  10.6516
    10.7036  10.7152  10.7947  10.8228  10.8486  10.9556  10.9792  11.0668
    11.1367  11.1516  11.2262  11.2911  11.3877  11.4058  11.4310  11.4510
    11.5506  11.6114  11.7616  11.7713  11.7794  11.8368  11.8881  11.9026
    11.9264  11.9646  12.0032  12.0561  12.0727  12.1361  12.1587  12.1804
    12.2088  12.2131  12.2574  12.2749  12.3151  12.3744  12.3963  12.4148
    12.4379  12.4423  12.4609  12.5267  12.5756  12.5924  12.5994  12.6440
    12.7218  12.7453  12.8275  12.8601  12.8825  12.9462  12.9507  12.9851
    13.0027  13.0293  13.0468  13.0807  13.1030  13.1404  13.1695  13.1868
    13.2521  13.3202  13.3473  13.3935  13.4096  13.4577  13.5070  13.5177
    13.5645  13.6097  13.6385  13.6608  13.8171  13.8384  13.8848  13.9111
    13.9203  13.9599  14.0418  14.0581  14.1314  14.1859  14.2316  14.2619
    14.2888  14.3670  14.4378  14.4843  14.5624  14.6164  14.6550  14.7056
    14.7265  14.7606  14.9211  14.9570  15.0168  15.0275  15.0589  15.0899
    15.1468  15.2027  15.2741  15.3565  15.3628  15.4022  15.4327  15.4770
    15.5054  15.5119  15.5313  15.5714  15.6163  15.6968  15.7265  15.7724
    15.7788  15.7926  15.8054  15.8186  15.8587  15.8784  15.9064  15.9202
    15.9576  15.9913  16.0098  16.0263  16.0595  16.0896  16.1164  16.1339
    16.1459  16.2213  16.2656  16.3114  16.3820  16.3955  16.4234  16.4736
    16.5258  16.5513  16.5883  16.6592  16.6798  16.7181  16.7698  16.7768
    16.7971  16.8313  16.8715  16.8773  16.9303  16.9518  16.9727  17.0356
    17.0820  17.1100  17.1375  17.1646  17.1716  17.2491  17.2712  17.2861
    17.3438  17.3892  17.3978  17.4155  17.4634  17.5601  17.5833  17.6199
    17.6564  17.6661  17.7018  17.7286  17.7520  17.7603  17.7698  17.7955
    17.8149  17.8456  17.9015  17.9345  18.0228  18.0288  18.1059  18.1387
    18.1773  18.2048  18.2113  18.2346  18.2472  18.3670  18.4098  18.4873
    18.5051  18.5086  18.5326  18.5642  18.6422  18.6687  18.7710  18.7816
    18.8066  18.8500  18.8614  18.8779  18.8986  18.9063  18.9095  18.9545
    19.0296  19.0995  19.1151  19.1706  19.1782  19.2163  19.2277  19.2449
    19.2755  19.3604  19.3780  19.4254

          k = 0.0000 0.0000 0.0610 ( 51150 PWs)   bands (ev):

   -25.2531 -25.2507 -23.5905 -23.5866 -20.0426 -20.0022 -19.8882 -19.7144
   -19.4799 -19.1918 -18.8506 -18.4584 -18.0099 -17.5233 -17.2763 -17.2431
   -17.1500 -16.9924 -16.9692 -16.7586 -16.5279 -16.3898 -16.1997 -15.8533
   -15.8265 -15.4491 -15.3178 -15.0475 -14.9442 -13.8003 -13.6642 -13.5497
   -13.3152 -13.1273 -12.8212 -12.6716 -12.2529 -12.1840 -11.7321 -11.6729
   -11.5042 -11.4519 -11.4297 -11.3057 -11.2888 -11.2614 -10.9098 -10.7788
   -10.7344 -10.3924  -9.9909  -9.7962  -9.7591  -9.6127  -9.4548  -9.3773
    -9.2196  -8.9868  -8.9174  -8.7486  -8.5453  -8.4565  -8.3560  -8.2045
    -8.0741  -8.0516  -7.9972  -7.9769  -7.8613  -7.7798  -7.6475  -7.6217
    -7.4533  -7.4112  -7.3555  -7.3031  -7.1199  -7.0690  -6.9718  -6.8680
    -6.7173  -6.6277  -6.5113  -6.3186  -6.2511  -6.1961  -5.9624  -5.8977
    -5.8500  -5.6877  -5.6274  -5.5184  -5.4896  -5.4358  -5.3325  -5.2539
    -5.0596  -4.8782  -4.8645  -4.8329  -4.7981  -4.6524  -4.4488  -4.3370
    -4.1881  -3.8943  -3.7954  -3.5579  -3.2946  -3.2114  -2.8891  -2.8793
    -2.5969  -2.5846   0.6243   0.6721   0.8599   0.9516   1.3015   1.3233
     1.6928   1.7985   1.9111   2.0507   2.0730   2.3594   2.5530   2.6137
     2.6406   2.7421   2.8069   2.8081   2.9363   3.0140   3.1012   3.1295
     3.2754   3.4230   3.5456   3.6415   3.8021   3.8357   3.8801   4.0892
     4.2631   4.3830   4.4206   4.4251   4.5479   4.6254   4.7565   4.8016
     4.9764   5.1659   5.2813   5.3044   5.3357   5.3583   5.4158   5.4953
     5.5401   5.6200   5.6761   5.7164   5.9127   6.0458   6.0901   6.1593
     6.1771   6.3201   6.4062   6.4354   6.5206   6.5543   6.5769   6.7013
     6.7444   6.7749   6.8493   6.8731   6.9079   6.9770   7.0134   7.0339
     7.0738   7.1171   7.1355   7.1671   7.2011   7.2256   7.3012   7.3344
     7.3631   7.3900   7.4141   7.5235   7.5603   7.5767   7.6322   7.6666
     7.6796   7.7265   7.7505   7.8258   7.8645   7.8747   7.9542   7.9591
     8.0047   8.0181   8.0316   8.0839   8.1318   8.1645   8.1944   8.2372
     8.2429   8.2937   8.3428   8.4018   8.4277   8.4501   8.5218   8.5608
     8.6069   8.6176   8.7320   8.7553   8.8634   8.9045   8.9180   8.9631
     8.9986   9.0109   9.0231   9.0941   9.1244   9.1658   9.1838   9.2107
     9.2260   9.2739   9.2910   9.3227   9.3390   9.4299   9.4627   9.5017
     9.5492   9.5554   9.5878   9.6157   9.7851   9.9030   9.9922  10.0362
    10.0596  10.0900  10.1223  10.1313  10.1677  10.1798  10.2131  10.2838
    10.2968  10.3231  10.3662  10.4163  10.4642  10.4865  10.5248  10.5625
    10.5910  10.6793  10.7787  10.7946  10.8482  10.9208  10.9354  11.0084
    11.0689  11.1276  11.1631  11.2129  11.3374  11.4509  11.4897  11.4944
    11.5581  11.6022  11.6709  11.6792  11.6873  11.7224  11.7547  11.8022
    11.8498  11.9134  11.9659  12.0301  12.1114  12.1443  12.1819  12.2074
    12.2270  12.2370  12.2552  12.2792  12.3048  12.3267  12.3697  12.3802
    12.4311  12.4763  12.5144  12.5348  12.5585  12.5994  12.6039  12.6606
    12.7090  12.7710  12.7971  12.8150  12.8449  12.9142  12.9327  12.9628
    12.9932  13.0066  13.0722  13.0968  13.1206  13.1420  13.1876  13.2177
    13.2376  13.2695  13.3522  13.3760  13.4284  13.4299  13.5033  13.5177
    13.5597  13.6901  13.7629  13.7659  13.8647  13.8928  13.9106  13.9398
    14.0005  14.0386  14.0443  14.1169  14.2003  14.2601  14.2746  14.3138
    14.3366  14.3892  14.4565  14.4870  14.6371  14.6833  14.6890  14.7242
    14.7961  14.8592  14.9026  14.9620  15.0128  15.0458  15.0698  15.0706
    15.1100  15.1706  15.2764  15.3598  15.4405  15.4513  15.4867  15.5269
    15.5538  15.5854  15.6199  15.6381  15.6693  15.7072  15.7284  15.7359
    15.7520  15.7648  15.7955  15.8147  15.8755  15.9182  15.9325  15.9615
    15.9689  16.0278  16.0473  16.0936  16.1093  16.1314  16.1869  16.2086
    16.2472  16.2958  16.3671  16.3915  16.4346  16.4660  16.4954  16.5088
    16.5505  16.6060  16.6516  16.6592  16.6818  16.7027  16.7832  16.8196
    16.8516  16.8784  16.9046  16.9242  16.9491  16.9977  17.0626  17.0917
    17.1422  17.1597  17.2015  17.2108  17.2490  17.2688  17.3164  17.3491
    17.3768  17.3948  17.4569  17.4896  17.5093  17.6145  17.6660  17.6921
    17.7178  17.7608  17.7814  17.8186  17.8262  17.8439  17.8867  17.9248
    17.9638  18.0111  18.0162  18.0298  18.0433  18.0849  18.1680  18.1822
    18.2082  18.2578  18.2885  18.3205  18.3382  18.3954  18.4487  18.5597
    18.5773  18.6011  18.6752  18.7104  18.7574  18.7728  18.7957  18.8236
    18.8428  18.8892  18.9015  18.9074  18.9188  18.9519  18.9768  19.0727
    19.0977  19.1267  19.1342  19.2065  19.3101  19.3353  19.3910  19.4067
    19.4380  19.4801  19.4944  19.5128

          k = 0.0000 0.0000 0.0657 ( 51140 PWs)   bands (ev):

   -25.2193 -25.2170 -23.6413 -23.6377 -19.9791 -19.9389 -19.8250 -19.6515
   -19.4174 -19.1296 -18.7889 -18.3974 -17.9504 -17.4818 -17.4373 -17.3896
   -17.3049 -17.1402 -16.9668 -16.8773 -16.6659 -16.3658 -16.3354 -15.9857
   -15.8014 -15.5743 -15.3229 -15.1334 -14.9904 -13.8359 -13.7079 -13.5551
   -13.3250 -13.1332 -12.8259 -12.6856 -12.2619 -12.1991 -11.7185 -11.6649
   -11.3102 -11.2436 -11.2151 -11.1935 -11.0884 -11.0820 -10.9511 -10.7345
   -10.6602 -10.4292 -10.0482  -9.6514  -9.6328  -9.5571  -9.3766  -9.2781
    -9.1112  -8.9791  -8.8399  -8.6961  -8.4746  -8.4003  -8.3271  -8.1199
    -8.0842  -7.9828  -7.9331  -7.9128  -7.7904  -7.7326  -7.5908  -7.5579
    -7.4972  -7.3809  -7.2954  -7.2543  -7.0597  -7.0321  -6.9412  -6.9224
    -6.7028  -6.6359  -6.5272  -6.3552  -6.3142  -6.1876  -6.0553  -6.0113
    -5.8095  -5.8015  -5.7572  -5.6641  -5.5745  -5.5021  -5.3708  -5.2927
    -5.1654  -5.0494  -4.9679  -4.9424  -4.8201  -4.8038  -4.6150  -4.3575
    -4.2872  -4.0536  -3.7701  -3.7165  -3.3651  -3.2920  -3.0192  -2.9283
    -2.6930  -2.6576   0.6604   0.7463   0.8565   1.0715   1.2511   1.4760
     1.7808   1.8677   1.9369   2.1536   2.2464   2.4652   2.5769   2.7266
     2.8283   2.8476   2.8925   3.0547   3.0969   3.1883   3.1954   3.2782
     3.3135   3.4924   3.6206   3.7264   3.8112   3.8884   3.9112   4.1400
     4.3491   4.4364   4.4746   4.5103   4.6162   4.6274   4.8377   4.8819
[...]
     4.7463   4.7989   4.8668   4.9056   5.0146   5.0487   5.0980   5.2073
     5.2590   5.2876   5.3298   5.3545   5.3936   5.4109   5.4377   5.4586
     5.4981   5.5862   5.6332   5.7041   5.7354   5.7793   5.7875   5.8757
     6.0093   6.1210   6.1722   6.2100   6.2804   6.3057   6.3356   6.3393
     6.3680   6.3913   6.4065   6.4317   6.4588   6.5463   6.5644   6.6012
     6.6264   6.6522   6.6650   6.7002   6.7216   6.7562   6.7727   6.8537
     6.8815   6.9030   6.9486   6.9823   7.0060   7.0192   7.0934   7.1105
     7.1315   7.1479   7.1698   7.2201   7.2681   7.2751   7.2942   7.3624
     7.3870   7.4415   7.4754   7.4940   7.5202   7.5377   7.5831   7.6175
     7.6783   7.7085   7.7962   7.8377   7.8626   7.9077   7.9687   7.9863
     8.0252   8.0340   8.0532   8.0737   8.1471   8.2212   8.2914   8.3728
     8.3892   8.4516   8.5036   8.5800   8.6228   8.7271   8.7903   8.8449
     8.8861   8.9192   8.9376   8.9631   9.0070   9.0221   9.0721   9.1082
     9.2118   9.2762   9.3315   9.3601   9.4323   9.4580   9.6849   9.7389
     9.8306   9.8504   9.9251   9.9446   9.9516  10.0045  10.0264  10.0610
    10.1157  10.1673  10.1917  10.2911  10.3302  10.3421  10.3651  10.4340
    10.4688  10.5962  10.6442  10.6722  10.7401  10.8625  10.9492  10.9692
    11.0471  11.0694  11.0743  11.1015  11.1772  11.1917  11.2165  11.2226
    11.2407  11.2950  11.3293  11.3557  11.4625  11.5163  11.6103  11.6189
    11.6697  11.6989  11.7271  11.8174  11.8599  11.8714  11.8908  11.9727
    11.9919  12.0577  12.0953  12.1157  12.1406  12.1858  12.2623  12.2851
    12.3254  12.3964  12.4275  12.4477  12.4987  12.5184  12.5756  12.6089
    12.6698  12.7054  12.7258  12.7855  12.8135  12.9048  12.9594  12.9714
    12.9993  13.0318  13.0531  13.0873  13.0945  13.1204  13.1530  13.1663
    13.3557  13.3930  13.4102  13.4607  13.4933  13.5260  13.5922  13.6087
    13.6362  13.8322  13.8494  13.8727  13.8907  13.9196  13.9367  13.9585
    14.0171  14.0373  14.0588  14.1441  14.1475  14.2204  14.3038  14.3192
    14.3723  14.4384  14.5080  14.5296  14.6225  14.6791  14.7436  14.7638
    14.8278  14.8899  14.9002  15.0211  15.0415  15.0644  15.0814  15.1434
    15.1598  15.1749  15.2202  15.2398  15.2590  15.3418  15.4023  15.4386
    15.4701  15.5600  15.5968  15.6077  15.6607  15.6875  15.7057  15.8127
    15.8396  15.8594  15.9045  15.9339  16.0035  16.0365  16.1192  16.1332
    16.1772  16.2093  16.2670  16.2878  16.3173  16.3498  16.4925  16.5235
    16.5420  16.5760  16.6109  16.6430  16.7591  16.7883  16.8021  16.8361
    16.8492  16.8515  16.9992  17.0574  17.1011  17.1307  17.1584  17.2406
    17.2597  17.2800  17.3185  17.3676  17.4026  17.4431  17.4593  17.4794
    17.5744  17.5791  17.6165  17.6419  17.6834  17.7225  17.7524  17.7669
    17.7937  17.8213  17.8403  17.8752  17.8824  17.9182  17.9366  17.9696
    18.0218  18.0413  18.0957  18.1128  18.1673  18.2450  18.2882  18.3991
    18.4336  18.4825  18.5587  18.6047  18.6248  18.6902  18.7156  18.7370
    18.7805  18.8712  18.9171  18.9774  19.0177  19.0398  19.0491  19.0709
    19.1405  19.1743  19.2119  19.3626  19.3922  19.4171  19.4506  19.4692
    19.5078  19.6124  19.6476  19.6568  19.6741  19.7104  19.7228  19.7533
    19.8593  19.8920  19.9456  19.9723  20.0580  20.0702  20.0879  20.1497
    20.1746  20.2193  20.2644  20.3184

          k = 0.0000 0.0000 0.1080 ( 51156 PWs)   bands (ev):

   -24.9339 -24.9327 -24.0302 -24.0286 -19.2002 -19.1642 -19.0532 -18.8858
   -18.7387 -18.7013 -18.6577 -18.5795 -18.4367 -18.3489 -18.1957 -18.0242
   -17.9115 -17.6427 -17.5756 -17.2158 -17.1806 -16.7703 -16.7127 -16.2994
   -16.2062 -15.8131 -15.6990 -15.3754 -15.3011 -14.0673 -13.9748 -13.6490
   -13.4893 -13.0840 -12.9263 -12.5427 -12.3457 -12.0860 -11.7551 -11.6300
   -11.3142 -11.1902 -11.1721 -10.8314 -10.5515 -10.1998  -9.9178  -9.5661
    -9.3498  -9.1045  -8.9852  -8.9325  -8.8965  -8.8658  -8.6479  -8.3770
    -8.2778  -8.1321  -8.0230  -7.9969  -7.9116  -7.8962  -7.8826  -7.8319
    -7.7853  -7.7414  -7.6354  -7.5860  -7.5045  -7.4719  -7.4055  -7.3654
    -7.3297  -7.2933  -7.2550  -7.2338  -7.2266  -7.1906  -7.0989  -7.0638
    -7.0129  -6.9946  -6.8726  -6.7724  -6.6680  -6.6400  -6.5982  -6.5205
    -6.4603  -6.4263  -6.3315  -6.2960  -6.2590  -6.2259  -6.0553  -6.0458
    -5.9229  -5.8318  -5.7569  -5.5950  -5.4107  -5.3101  -5.0263  -4.9759
    -4.6080  -4.6023  -4.2022  -4.1723  -3.8004  -3.7565  -3.4460  -3.4140
    -3.0923  -3.0831   0.8473   0.8796   1.1103   1.1977   1.5593   1.6757
     2.1139   2.2262   2.7096   2.7897   2.9595   3.1856   3.3726   3.3766
     3.6252   3.7964   3.8618   3.9253   3.9370   3.9920   4.0150   4.2281
     4.3517   4.4124   4.4681   4.4901   4.5228   4.6050   4.6674   4.7084
     4.7685   4.8806   4.9058   4.9332   4.9832   5.0664   5.0988   5.2274
     5.2378   5.3480   5.3603   5.3981   5.4383   5.4705   5.5209   5.5618
     5.5895   5.6033   5.6517   5.6800   5.7061   5.7708   5.8901   5.9107
     5.9250   6.0737   6.1079   6.1737   6.1841   6.2037   6.2362   6.3128
     6.3198   6.4298   6.4467   6.4749   6.4910   6.5338   6.5542   6.5782
     6.5938   6.6079   6.6313   6.6713   6.6733   6.6991   6.7703   6.7751
     6.8507   6.8634   6.8893   6.9461   6.9495   6.9987   7.0197   7.0563
     7.0735   7.1266   7.1449   7.1897   7.2152   7.2344   7.2980   7.3451
     7.3532   7.3962   7.4204   7.4541   7.4754   7.5000   7.5503   7.5878
     7.6522   7.7020   7.7665   7.7881   7.8347   7.8845   7.9158   7.9833
     8.0172   8.0508   8.0764   8.0826   8.1725   8.1859   8.2782   8.3255
     8.3623   8.4408   8.4772   8.5662   8.5985   8.6888   8.7217   8.7774
     8.8020   8.8559   8.9425   8.9640   9.0352   9.1029   9.1167   9.1192
     9.2159   9.3214   9.3719   9.3749   9.4539   9.5542   9.6157   9.6832
     9.6906   9.7595   9.8150   9.9110   9.9354   9.9465  10.0081  10.0515
    10.1023  10.1525  10.1623  10.2501  10.3577  10.3736  10.4775  10.4902
    10.5069  10.6012  10.6637  10.7257  10.7712  10.8197  10.8291  10.8545
    11.0351  11.0523  11.1242  11.1288  11.1418  11.1777  11.1989  11.2500
    11.2973  11.3438  11.3910  11.4078  11.4585  11.5224  11.6589  11.7003
    11.7405  11.7499  11.7606  11.8050  11.8311  11.8697  11.8859  11.9020
    11.9244  11.9862  11.9939  12.0123  12.0868  12.1481  12.2250  12.2811
    12.3253  12.3483  12.3845  12.4487  12.4649  12.5135  12.5487  12.5569
    12.6387  12.6467  12.7093  12.7637  12.8267  12.8835  12.9171  13.0465
    13.0840  13.1103  13.1174  13.1405  13.1745  13.2108  13.2385  13.2568
    13.2669  13.3567  13.4060  13.4265  13.5199  13.5372  13.5583  13.5692
    13.6517  13.7265  13.7540  13.7871  13.8621  13.8902  13.9166  13.9775
    13.9903  14.0315  14.0547  14.1062  14.2177  14.2692  14.2800  14.3149
    14.3749  14.4382  14.4670  14.5074  14.5979  14.6823  14.7204  14.7312
    14.7617  14.9112  14.9269  14.9664  15.0524  15.0770  15.1062  15.1551
    15.1873  15.2257  15.2382  15.2819  15.2948  15.3364  15.3672  15.3930
    15.4704  15.5969  15.6254  15.6437  15.6648  15.7014  15.7717  15.7895
    15.8496  15.8977  15.9325  15.9589  16.0251  16.0436  16.1589  16.1798
    16.2074  16.2613  16.3047  16.3242  16.3425  16.4029  16.4329  16.4937
    16.5183  16.5479  16.5809  16.6846  16.7405  16.7678  16.7929  16.8406
    16.8916  16.9323  16.9428  16.9908  17.0245  17.0936  17.1917  17.2027
    17.2151  17.2849  17.2918  17.3100  17.4591  17.4850  17.4987  17.5207
    17.5374  17.5651  17.5761  17.6083  17.6412  17.7021  17.7419  17.7935
    17.8122  17.8355  17.8400  17.8640  17.9132  17.9257  17.9672  17.9931
    18.0245  18.0510  18.0626  18.1403  18.1753  18.2392  18.2693  18.3368
    18.3566  18.4760  18.5751  18.6149  18.6220  18.6870  18.7067  18.7347
    18.7754  18.8221  18.8486  18.9357  18.9680  19.0112  19.0591  19.1106
    19.1763  19.2000  19.3097  19.3833  19.3952  19.4449  19.5330  19.5529
    19.5895  19.6318  19.7098  19.7234  19.7713  19.8282  19.9146  19.9752
    19.9802  20.0582  20.0678  20.1270  20.1518  20.1997  20.2327  20.2536
    20.3043  20.3451  20.3815  20.4030

          k = 0.0000 0.0000 0.1127 ( 51138 PWs)   bands (ev):

   -24.9216 -24.9204 -24.0456 -24.0440 -19.0915 -19.0568 -18.9482 -18.8574
   -18.8307 -18.7688 -18.7126 -18.5537 -18.5313 -18.3123 -18.2558 -18.0288
   -17.9230 -17.6940 -17.5391 -17.3101 -17.1007 -16.8732 -16.6244 -16.4005
   -16.1215 -15.9051 -15.6304 -15.4373 -15.2810 -14.0973 -13.9359 -13.7131
   -13.4338 -13.1465 -12.8702 -12.5847 -12.2978 -12.1072 -11.7174 -11.6427
   -11.3288 -11.2342 -11.1375 -10.8783 -10.5188 -10.2332  -9.8820  -9.5736
    -9.3057  -9.0240  -8.8869  -8.7545  -8.6817  -8.6459  -8.6067  -8.4056
    -8.2692  -8.2091  -8.1365  -8.0871  -8.0598  -8.0595  -7.7456  -7.7298
    -7.6642  -7.6470  -7.5634  -7.5046  -7.4368  -7.4257  -7.4033  -7.3930
    -7.3821  -7.3713  -7.3642  -7.3435  -7.3286  -7.3269  -7.1545  -7.0067
    -6.9295  -6.8984  -6.7974  -6.7729  -6.6940  -6.6466  -6.6020  -6.5748
    -6.5027  -6.4639  -6.3743  -6.3019  -6.2772  -6.2255  -6.1103  -6.0376
    -6.0177  -5.8776  -5.7462  -5.6206  -5.4339  -5.2993  -5.0909  -4.9258
    -4.7142  -4.5153  -4.3030  -4.0970  -3.8834  -3.7059  -3.4981  -3.3982
    -3.1106  -3.0868   0.8379   0.9067   1.0669   1.2643   1.4818   1.7763
     2.0089   2.3499   2.5939   2.9133   3.0677   3.2610   3.2664   3.5073
     3.5295   3.7793   3.9141   3.9457   4.0408   4.0833   4.1207   4.2668
     4.3259   4.3928   4.4050   4.4480   4.5779   4.6030   4.6650   4.6971
     4.8353   4.8565   4.9285   4.9958   5.0212   5.0547   5.1261   5.1872
     5.2308   5.2620   5.3470   5.4054   5.4669   5.5398   5.5610   5.6338
     5.6664   5.6943   5.7119   5.7531   5.7833   5.8014   5.8419   5.9771
     5.9888   6.0437   6.0503   6.0892   6.0942   6.1405   6.1701   6.2072
     6.3334   6.3574   6.4064   6.4301   6.4734   6.5612   6.5776   6.5882
     6.5964   6.6163   6.6228   6.6479   6.6786   6.6898   6.6985   6.7569
     6.8253   6.8571   6.8751   6.9138   6.9283   6.9376   6.9743   6.9874
     7.0291   7.0689   7.1233   7.1787   7.1956   7.2606   7.2734   7.3348
     7.3423   7.3660   7.3894   7.4355   7.4637   7.5229   7.5501   7.5775
     7.6610   7.6682   7.6892   7.7632   7.7922   7.8642   7.8844   7.9496
     7.9913   8.0647   8.1106   8.1299   8.1489   8.2528   8.3094   8.3241
     8.3725   8.3908   8.4590   8.5167   8.5774   8.6263   8.6618   8.7306
     8.7778   8.8062   8.8679   8.9754   9.0658   9.1102   9.1903   9.2407
     9.2489   9.3523   9.4270   9.4656   9.5039   9.5182   9.5532   9.6003
     9.6368   9.7014   9.7366   9.7917   9.8567   9.9358   9.9807  10.0113
    10.0962  10.1301  10.2038  10.3010  10.3392  10.4245  10.5503  10.5876
    10.6240  10.6360  10.6614  10.6667  10.7413  10.7787  10.7922  10.8947
    10.9088  10.9666  11.0047  11.0384  11.1245  11.1928  11.2913  11.3250
    11.3616  11.4237  11.4726  11.4878  11.5456  11.5945  11.6055  11.6864
    11.7174  11.7362  11.7542  11.7597  11.8021  11.8309  11.8996  11.9108
    11.9261  11.9552  11.9956  12.0665  12.0867  12.1495  12.1841  12.2096
    12.2538  12.3427  12.3478  12.3659  12.4068  12.4450  12.4956  12.5483
    12.6268  12.6668  12.6979  12.7965  12.8266  12.8547  12.9240  13.0539
    13.1562  13.1623  13.1904  13.2107  13.2351  13.2407  13.2720  13.3037
    13.3411  13.3509  13.4156  13.4465  13.4598  13.4831  13.5140  13.5729
    13.6092  13.6605  13.7022  13.7185  13.7503  13.8142  13.9113  13.9667
    14.0250  14.0406  14.1151  14.1595  14.1827  14.2351  14.2882  14.3738
    14.3878  14.4411  14.4834  14.5240  14.5828  14.6120  14.6402  14.7478
    14.8007  14.8703  14.9084  14.9236  15.0208  15.0825  15.1362  15.2012
    15.2131  15.2444  15.2642  15.3065  15.3235  15.3469  15.3634  15.3866
    15.4568  15.5977  15.6249  15.6581  15.6778  15.7033  15.7821  15.8229
    15.8711  15.9181  15.9468  15.9791  16.0574  16.0798  16.1646  16.1702
    16.2157  16.2552  16.3115  16.3524  16.3931  16.3980  16.4437  16.4607
    16.5194  16.5684  16.6064  16.6783  16.7149  16.7550  16.8087  16.8293
    16.8563  16.8946  16.9696  17.0035  17.0595  17.1185  17.1431  17.1513
    17.1837  17.2477  17.2867  17.3295  17.4081  17.4363  17.4591  17.5288
    17.5362  17.6028  17.6034  17.6153  17.6508  17.7059  17.7367  17.7675
    17.8010  17.8305  17.8386  17.8682  17.8782  17.9099  18.0017  18.0123
    18.0675  18.0817  18.1237  18.1560  18.1830  18.2460  18.2530  18.3200
    18.3376  18.4684  18.4730  18.5444  18.5748  18.6226  18.6721  18.7251
    18.7742  18.8182  18.8618  18.9118  18.9965  19.0279  19.1057  19.1458
    19.2049  19.2094  19.2698  19.3322  19.3742  19.4393  19.5650  19.6126
    19.6629  19.7086  19.7302  19.7972  19.8381  19.9048  19.9932  20.0479
    20.0917  20.1219  20.1769  20.2541  20.2658  20.3021  20.3126  20.3899
    20.4322  20.4546  20.5118  20.5356

          k = 0.0000 0.0000-0.1174 ( 51140 PWs)   bands (ev):

   -24.9174 -24.9162 -24.0508 -24.0493 -18.9880 -18.9724 -18.9585 -18.9250
   -18.8507 -18.8090 -18.6869 -18.6325 -18.4641 -18.3934 -18.1802 -18.1107
   -17.8479 -17.7740 -17.4657 -17.3879 -17.0300 -16.9480 -16.5579 -16.4704
   -16.0632 -15.9656 -15.5910 -15.4744 -15.2739 -14.1077 -13.9150 -13.7424
   -13.4081 -13.1747 -12.8452 -12.6067 -12.2721 -12.1238 -11.6829 -11.6661
   -11.3332 -11.2527 -11.1177 -10.9014 -10.5025 -10.2498  -9.8660  -9.5813
    -9.2896  -8.9973  -8.8530  -8.7025  -8.5508  -8.5495  -8.4167  -8.3975
    -8.3490  -8.3467  -8.2231  -8.2225  -8.0947  -8.0940  -7.6087  -7.6011
    -7.5740  -7.5518  -7.5378  -7.5283  -7.5064  -7.4737  -7.4659  -7.4191
    -7.4113  -7.4050  -7.3879  -7.3589  -7.3568  -7.3117  -7.2507  -6.9365
    -6.8690  -6.8279  -6.8136  -6.7787  -6.7338  -6.6810  -6.6421  -6.5294
    -6.4875  -6.4709  -6.4430  -6.3178  -6.2889  -6.1462  -6.1292  -6.0782
    -6.0661  -5.8367  -5.8131  -5.5494  -5.5219  -5.2031  -5.1942  -4.8350
    -4.8094  -4.4458  -4.3760  -4.0502  -3.9327  -3.6807  -3.5237  -3.3921
    -3.1173  -3.0879   0.8347   0.9201   1.0479   1.3019   1.4405   1.8477
     1.9361   2.4718   2.4740   2.9820   3.1121   3.2126   3.2896   3.4641
     3.6378   3.6768   3.8704   4.0828   4.1145   4.1644   4.1709   4.2217
     4.2579   4.2612   4.4189   4.4805   4.5802   4.6439   4.6845   4.7094
     4.7358   4.9402   4.9787   4.9852   5.0000   5.0849   5.1103   5.1665
     5.2154   5.2775   5.2961   5.4159   5.4694   5.5055   5.6487   5.6615
     5.6736   5.7597   5.7858   5.7875   5.7973   5.8211   5.8762   5.9053
     5.9291   6.0053   6.0066   6.1072   6.1631   6.1739   6.2165   6.2328
     6.2386   6.2629   6.3650   6.3758   6.4488   6.4851   6.5276   6.5671
     6.6041   6.6544   6.6695   6.6973   6.7022   6.7183   6.7676   6.7811
     6.7929   6.8165   6.8332   6.8449   6.8702   6.9629   6.9660   6.9976
     7.0201   7.0344   7.1065   7.1956   7.2089   7.2304   7.2599   7.2833
     7.3082   7.3620   7.4630   7.4805   7.4949   7.5020   7.5186   7.5710
     7.6075   7.6646   7.7097   7.7399   7.7559   7.8511   7.8827   7.9503
     8.0192   8.0369   8.0758   8.1434   8.1670   8.2840   8.3171   8.3683
     8.3912   8.3990   8.4465   8.4986   8.5206   8.5962   8.6146   8.6615
     8.8264   8.8298   8.8536   8.9852   9.0017   9.0954   9.2772   9.3112
     9.3454   9.3476   9.4270   9.4347   9.4677   9.5180   9.5444   9.5929
     9.6082   9.6671   9.7313   9.7662   9.8443   9.8983   9.9594   9.9789
    10.0629  10.1396  10.2427  10.2846  10.4534  10.4547  10.5120  10.5529
    10.5831  10.6706  10.7530  10.7561  10.7626  10.7731  10.7852  10.8311
    10.8551  10.8692  10.9597  11.0301  11.0532  11.2278  11.3117  11.4343
    11.4541  11.4644  11.4685  11.5649  11.5662  11.5862  11.5869  11.6105
    11.6551  11.6693  11.6938  11.7468  11.8241  11.8640  11.8803  11.9174
    11.9757  12.0132  12.0380  12.1054  12.1179  12.1446  12.1824  12.1969
    12.2007  12.2321  12.2581  12.3583  12.4148  12.4297  12.4957  12.5257
    12.6049  12.6188  12.7310  12.8304  12.8758  12.8847  12.9365  12.9509
    13.1430  13.1799  13.2133  13.2570  13.2767  13.3057  13.3268  13.3374
    13.3577  13.3754  13.3857  13.4345  13.4593  13.4607  13.4891  13.5358
    13.5627  13.6223  13.6574  13.6964  13.7563  13.8228  13.8556  13.9653
    14.0401  14.1030  14.1153  14.1611  14.1618  14.2008  14.3144  14.3912
    14.4376  14.4454  14.4733  14.4943  14.5455  14.6252  14.6476  14.7697
    14.8058  14.8138  14.8843  14.9176  15.0078  15.0841  15.1508  15.2127
    15.2453  15.2472  15.2506  15.3257  15.3283  15.3407  15.3833  15.3837
    15.5146  15.5489  15.6010  15.6233  15.6879  15.7023  15.8202  15.8554
    15.9278  15.9657  15.9695  15.9791  15.9932  16.0212  16.1275  16.1467
    16.2622  16.2869  16.3480  16.3635  16.4258  16.4357  16.4605  16.4726
    16.4876  16.4958  16.5986  16.6334  16.7030  16.7807  16.8221  16.8433
    16.8842  16.9155  16.9446  17.0058  17.0422  17.0851  17.1217  17.1969
    17.2248  17.2477  17.2508  17.3072  17.3778  17.4071  17.4120  17.5269
    17.5550  17.5562  17.6555  17.6831  17.6980  17.7040  17.7224  17.7544
    17.7656  17.7803  17.8175  17.8946  17.8992  17.9360  17.9693  18.0100
    18.0498  18.1019  18.1437  18.1916  18.1959  18.2578  18.3012  18.3037
    18.3557  18.4244  18.4673  18.4674  18.5172  18.5968  18.6640  18.7515
    18.7832  18.7995  18.8166  18.8989  19.0178  19.1195  19.1262  19.1592
    19.2056  19.2305  19.2389  19.2867  19.3423  19.4024  19.6213  19.6417
    19.6498  19.6594  19.8041  19.8104  19.8810  20.0416  20.0631  20.0865
    20.1011  20.1320  20.1746  20.1961  20.2714  20.3195  20.3367  20.3814
    20.4745  20.5530  20.5734  20.5836

     the Fermi energy is    -0.9302 ev

     Writing output data file AGNR_OH_25.save/

     init_run     :     11.34s CPU     11.51s WALL (       1 calls)
     electrons    :   2848.88s CPU   2860.67s WALL (       1 calls)

     Called by init_run:
     wfcinit      :      0.00s CPU      0.00s WALL (       1 calls)
     potinit      :      0.56s CPU      0.61s WALL (       1 calls)
     hinit0       :      9.71s CPU      9.73s WALL (       1 calls)

     Called by electrons:
     c_bands      :   2848.83s CPU   2860.62s WALL (       1 calls)
     v_of_rho     :      0.45s CPU      0.47s WALL (       1 calls)
     newd         :      0.38s CPU      0.45s WALL (       1 calls)

     Called by c_bands:
     init_us_2    :      0.21s CPU      0.22s WALL (      26 calls)
     cegterg      :   2783.99s CPU   2794.15s WALL (      27 calls)

     Called by sum_band:

     Called by *egterg:
     h_psi        :    487.20s CPU    491.84s WALL (     544 calls)
     s_psi        :     55.16s CPU     55.17s WALL (     544 calls)
     g_psi        :      3.91s CPU      3.91s WALL (     491 calls)
     cdiaghg      :   1534.16s CPU   1534.48s WALL (     517 calls)

     Called by h_psi:
     h_psi:pot    :    485.43s CPU    489.36s WALL (     544 calls)
     h_psi:calbec :     57.08s CPU     57.57s WALL (     544 calls)
     vloc_psi     :    373.27s CPU    376.70s WALL (     544 calls)
     add_vuspsi   :     55.08s CPU     55.09s WALL (     544 calls)

     General routines
     calbec       :     57.08s CPU     57.57s WALL (     544 calls)
     fft          :      0.48s CPU      0.52s WALL (      14 calls)
     ffts         :      0.00s CPU      0.01s WALL (       1 calls)
     fftw         :    338.96s CPU    342.12s WALL (  350214 calls)
     interpolate  :      0.03s CPU      0.03s WALL (       1 calls)
     davcio       :      0.01s CPU      0.92s WALL (      52 calls)

     Parallel routines
     fft_scatt_xy :     53.13s CPU     53.58s WALL (  350229 calls)
     fft_scatt_yz :    111.87s CPU    113.26s WALL (  350229 calls)

     PWSCF        : 47m51.89s CPU    50m30.33s WALL


   This run was terminated on:  23:41: 6  21Apr2021            

=------------------------------------------------------------------------------=
   JOB DONE.
=------------------------------------------------------------------------------=
