
     Program PWSCF v.6.3 starts on  2Jan2022 at 18:11:36 

     This program is part of the open-source Quantum ESPRESSO suite
     for quantum simulation of materials; please cite
         "P. Giannozzi et al., J. Phys.:Condens. Matter 21 395502 (2009);
         "P. Giannozzi et al., J. Phys.:Condens. Matter 29 465901 (2017);
          URL http://www.quantum-espresso.org", 
     in publications or presentations arising from this work. More details at
     http://www.quantum-espresso.org/quote

     Parallel version (MPI), running on    16 processors
     R & G space division:  proc/nbgrp/npool/nimage =      16
     Waiting for input...
     Reading input from standard input
Warning: card H	5.2700000000	27.6230581920	2.4770000000		 ignored
     Message from routine read_cards :
     DEPRECATED: no units specified in CELL_PARAMETERS card

     Current dimensions of program PWSCF are:
     Max number of different atomic species (ntypx) = 10
     Max number of k-points (npk) =  40000
     Max angular momentum in pseudopotentials (lmaxx) =  3

     Atomic positions and unit cell read from directory:
     /home/zfwang/scratch/GNRDATASET/AGNR/AGNR_OH_26/AGNR_OH_26.save/


     Subspace diagonalization in iterative solution of the eigenvalue problem:
     a serial algorithm will be used


     Parallelization info
     --------------------
     sticks:   dense  smooth     PW     G-vecs:    dense   smooth      PW
     Min        3649    1215    343               136676    26306    3939
     Max        3651    1217    345               136677    26307    3940
     Sum       58399   19465   5501              2186827   420909   63033



     bravais-lattice index     =            0
     lattice parameter (alat)  =       1.8897  a.u.
     unit-cell volume          =   12315.6025 (a.u.)^3
     number of atoms/cell      =           60
     number of atomic types    =            3
     number of electrons       =       236.00
     number of Kohn-Sham states=          500
     kinetic-energy cutoff     =      40.0000  Ry
     charge density cutoff     =     480.0000  Ry
     Exchange-correlation      = PBE ( 1  4  3  4 0 0)

     celldm(1)=  18.897261  celldm(2)=   4.284000  celldm(3)=   0.426000
     celldm(4)=   0.000000  celldm(5)=   0.000000  celldm(6)=   0.000000

     crystal axes: (cart. coord. in units of alat)
               a(1) = (  10.000000   0.000000   0.000000 )  
               a(2) = (   0.000000  42.840000   0.000000 )  
               a(3) = (   0.000000   0.000000   4.260000 )  

     reciprocal axes: (cart. coord. in units 2 pi/alat)
               b(1) = (  0.100000  0.000000  0.000000 )  
               b(2) = (  0.000000  0.023343  0.000000 )  
               b(3) = (  0.000000  0.000000  0.234742 )  


     PseudoPot. # 1 for C  read from file:
     /home/zfwang/hp_home/MySoftware/qe-6.3/pseudo/C.pbe-n-rrkjus_psl.0.1.UPF
     MD5 check sum: fff530ed632a789b3b184014e67dd7f1
     Pseudo is Ultrasoft + core correction, Zval =  4.0
     Generated using "atomic" code by A. Dal Corso v.5.0.2 svn rev. 9415
     Using radial grid of 1073 points,  4 beta functions with: 
                l(1) =   0
                l(2) =   0
                l(3) =   1
                l(4) =   1
     Q(r) pseudized with 0 coefficients 


     PseudoPot. # 2 for O  read from file:
     /home/zfwang/hp_home/MySoftware/qe-6.3/pseudo/O.pbe-n-rrkjus_psl.0.1.UPF
     MD5 check sum: 73b3d1dec572cf22214b1d95c6304b69
     Pseudo is Ultrasoft + core correction, Zval =  6.0
     Generated using "atomic" code by A. Dal Corso v.6.3MaX
     Using radial grid of 1095 points,  4 beta functions with: 
                l(1) =   0
                l(2) =   0
                l(3) =   1
                l(4) =   1
     Q(r) pseudized with 0 coefficients 


     PseudoPot. # 3 for H  read from file:
     /home/zfwang/hp_home/MySoftware/qe-6.3/pseudo/H.pbe-rrkjus_psl.0.1.UPF
     MD5 check sum: e164a6907b691c6980f16942be34de84
     Pseudo is Ultrasoft, Zval =  1.0
     Generated using "atomic" code by A. Dal Corso v.5.0.2 svn rev. 9415
     Using radial grid of  929 points,  2 beta functions with: 
                l(1) =   0
                l(2) =   0
     Q(r) pseudized with 0 coefficients 


     atomic species   valence    mass     pseudopotential
        C              4.00    12.01070     C ( 1.00)
        O              6.00    18.99840     O ( 1.00)
        H              1.00     1.00794     H ( 1.00)

     No symmetry found



   Cartesian axes

     site n.     atom                  positions (alat units)
         1           C   tau(   1) = (   4.8069454   6.0589578   2.8018798  )
         2           C   tau(   2) = (   4.9440358   7.2396173   3.5495907  )
         3           C   tau(   3) = (   5.1495658   6.0771663   1.4677791  )
         4           C   tau(   4) = (   5.0093198   8.4739190   2.8371511  )
         5           C   tau(   5) = (   5.0154521   9.7102043   3.5502820  )
         6           C   tau(   6) = (   5.0497569   7.2441405   0.7083596  )
         7           C   tau(   7) = (   4.9987314   8.4771756   1.4220035  )
         8           C   tau(   8) = (   5.0063465  10.9405952   2.8417545  )
         9           C   tau(   9) = (   5.0000499  12.1732153   3.5502901  )
        10           C   tau(  10) = (   4.9921314   9.7116581   0.7088874  )
        11           C   tau(  11) = (   4.9969793  10.9412025   1.4180548  )
        12           C   tau(  12) = (   4.9989006  13.4077395   2.8402953  )
        13           C   tau(  13) = (   4.9996190  14.6396798   3.5488390  )
        14           C   tau(  14) = (   4.9998536  12.1732787   0.7096915  )
        15           C   tau(  15) = (   5.0002064  13.4077420   1.4198041  )
        16           C   tau(  16) = (   5.0000289  15.8725946   2.8399595  )
        17           C   tau(  17) = (   5.0000638  17.1060096   3.5495902  )
        18           C   tau(  18) = (   5.0000713  14.6395268   0.7112280  )
        19           C   tau(  19) = (   5.0001081  15.8723679   1.4199408  )
        20           C   tau(  20) = (   5.0000645  18.3376099   2.8406263  )
        21           C   tau(  21) = (   5.0000753  19.5703622   3.5498862  )
        22           C   tau(  22) = (   5.0001254  17.1060530   0.7102503  )
        23           C   tau(  23) = (   5.0000667  18.3377365   1.4191915  )
        24           C   tau(  24) = (   5.0000593  20.8031825   2.8405341  )
        25           C   tau(  25) = (   5.0000310  22.0351002   3.5493483  )
        26           C   tau(  26) = (   5.0000249  19.5701816   0.7100000  )
        27           C   tau(  27) = (   5.0000316  20.8033701   1.4193687  )
        28           C   tau(  28) = (   5.0000213  23.2681949   2.8399351  )
        29           C   tau(  29) = (   5.0000648  24.5007571   3.5489309  )
        30           C   tau(  30) = (   5.0000624  22.0352371   0.7105099  )
        31           C   tau(  31) = (   5.0000773  23.2681346   1.4198030  )
        32           C   tau(  32) = (   5.0001144  25.7324549   2.8395314  )
        33           C   tau(  33) = (   5.0000516  26.9665472   3.5478854  )
        34           C   tau(  34) = (   5.0000549  24.5008653   0.7104376  )
        35           C   tau(  35) = (   5.0000189  25.7327070   1.4187565  )
        36           C   tau(  36) = (   5.0000785  28.1992807   2.8371275  )
        37           C   tau(  37) = (   5.0006350  29.4319138   3.5435474  )
        38           C   tau(  38) = (   4.9999662  26.9660892   0.7079617  )
        39           C   tau(  39) = (   4.9997373  28.1996356   1.4147284  )
        40           C   tau(  40) = (   5.0004651  30.6665836   2.8318356  )
        41           C   tau(  41) = (   4.9959520  31.8997728   3.5396479  )
        42           C   tau(  42) = (   4.9994671  29.4311832   0.7038927  )
        43           C   tau(  43) = (   5.0005121  30.6661394   1.4127173  )
        44           C   tau(  44) = (   4.9879791  33.1302048   2.8305104  )
        45           C   tau(  45) = (   4.9939141  34.3673183   3.5422174  )
        46           C   tau(  46) = (   5.0048348  31.8986622   0.7034114  )
        47           C   tau(  47) = (   5.0110548  33.1288224   1.4115590  )
        48           C   tau(  48) = (   5.0567622  35.6017736   2.8292641  )
        49           C   tau(  49) = (   5.1876165  36.7841649   3.5760904  )
        50           C   tau(  50) = (   5.0051053  34.3635991   0.6977959  )
        51           C   tau(  51) = (   4.9524441  35.5972875   1.4101954  )
        52           C   tau(  52) = (   4.8467557  36.7637964   0.6500596  )
        53           O   tau(  53) = (   4.4097148   4.8081734   3.1836208  )
        54           O   tau(  54) = (   5.5291782   4.8202556   1.0138121  )
        55           O   tau(  55) = (   4.4528852  38.0177438   1.1016149  )
        56           O   tau(  56) = (   5.5686978  38.0386381   3.1909889  )
        57           H   tau(  57) = (   4.7958675   4.5938006   4.0994340  )
        58           H   tau(  58) = (   5.2560651   4.2484378   1.7869786  )
        59           H   tau(  59) = (   4.7302772  38.5940941   0.3331719  )
        60           H   tau(  60) = (   5.1709254  38.2472978   2.2774600  )

     number of k points=    26  Marzari-Vanderbilt smearing, width (Ry)=  0.0100
                       cart. coord. in units 2pi/alat
        k(    1) = (   0.0000000   0.0000000   0.0000000), wk =   0.0400000
        k(    2) = (   0.0000000   0.0000000   0.0046948), wk =   0.0800000
        k(    3) = (   0.0000000   0.0000000   0.0093897), wk =   0.0800000
        k(    4) = (   0.0000000   0.0000000   0.0140845), wk =   0.0800000
        k(    5) = (   0.0000000   0.0000000   0.0187793), wk =   0.0800000
        k(    6) = (   0.0000000   0.0000000   0.0234742), wk =   0.0800000
        k(    7) = (   0.0000000   0.0000000   0.0281690), wk =   0.0800000
        k(    8) = (   0.0000000   0.0000000   0.0328638), wk =   0.0800000
        k(    9) = (   0.0000000   0.0000000   0.0375587), wk =   0.0800000
        k(   10) = (   0.0000000   0.0000000   0.0422535), wk =   0.0800000
        k(   11) = (   0.0000000   0.0000000   0.0469484), wk =   0.0800000
        k(   12) = (   0.0000000   0.0000000   0.0516432), wk =   0.0800000
        k(   13) = (   0.0000000   0.0000000   0.0563380), wk =   0.0800000
        k(   14) = (   0.0000000   0.0000000   0.0610329), wk =   0.0800000
        k(   15) = (   0.0000000   0.0000000   0.0657277), wk =   0.0800000
        k(   16) = (   0.0000000   0.0000000   0.0704225), wk =   0.0800000
        k(   17) = (   0.0000000   0.0000000   0.0751174), wk =   0.0800000
        k(   18) = (   0.0000000   0.0000000   0.0798122), wk =   0.0800000
        k(   19) = (   0.0000000   0.0000000   0.0845070), wk =   0.0800000
        k(   20) = (   0.0000000   0.0000000   0.0892019), wk =   0.0800000
        k(   21) = (   0.0000000   0.0000000   0.0938967), wk =   0.0800000
        k(   22) = (   0.0000000   0.0000000   0.0985915), wk =   0.0800000
        k(   23) = (   0.0000000   0.0000000   0.1032864), wk =   0.0800000
        k(   24) = (   0.0000000   0.0000000   0.1079812), wk =   0.0800000
        k(   25) = (   0.0000000   0.0000000   0.1126761), wk =   0.0800000
        k(   26) = (   0.0000000   0.0000000  -0.1173709), wk =   0.0400000

     Dense  grid:  2186827 G-vectors     FFT dimensions: ( 135, 576,  60)

     Smooth grid:   420909 G-vectors     FFT dimensions: (  80, 360,  36)

     Estimated max dynamical RAM per process >     583.89 MB

     Estimated total dynamical RAM >       9.12 GB

     Check: negative/imaginary core charge=   -0.000005    0.000000

     The potential is recalculated from file :
     /home/zfwang/scratch/GNRDATASET/AGNR/AGNR_OH_26/AGNR_OH_26.save/charge-density.dat


     negative rho (up, down):  9.437E-04 0.000E+00
     Starting wfcs are  228 randomized atomic wfcs +  272 random wfcs

     Band Structure Calculation
     Davidson diagonalization with overlap
     c_bands:  1 eigenvalues not converged
     c_bands:  1 eigenvalues not converged

     ethr =  4.24E-09,  avg # of iterations = 33.5

     total cpu time spent up to now is     3664.2 secs

     End of band structure calculation

          k = 0.0000 0.0000 0.0000 ( 52485 PWs)   bands (ev):

   -25.4844 -25.4815 -23.2032 -23.1912 -20.4249 -20.3867 -20.2818 -20.1189
   -19.9015 -19.6338 -19.3150 -18.9482 -18.5328 -18.0671 -17.5651 -17.0296
   -16.4720 -15.9148 -15.4067 -15.1757 -15.1673 -15.0687 -15.0118 -14.9204
   -14.7772 -14.6504 -14.5399 -14.3157 -14.2610 -14.1259 -14.1012 -13.9721
   -13.9286 -13.9226 -13.7125 -13.6618 -13.5940 -13.4130 -13.4116 -13.2271
   -12.8710 -12.5961 -12.3710 -12.0779 -11.7977 -11.7137 -11.5423 -11.3138
   -11.2938 -11.0828 -10.8665 -10.8374 -10.6344 -10.3282 -10.2629 -10.1735
    -9.7571  -9.7311  -9.6236  -9.2712  -9.1956  -9.0127  -8.8767  -8.7498
    -8.6710  -8.6361  -8.4795  -8.4318  -8.3411  -8.2028  -8.1895  -8.1288
    -7.9292  -7.9175  -7.7653  -7.7078  -7.6189  -7.4809  -7.4113  -7.3818
    -7.2627  -7.0262  -6.9011  -6.7916  -6.6070  -6.4488  -6.3047  -6.0849
    -5.9790  -5.8958  -5.5726  -5.5478  -5.4459  -5.2529  -5.1629  -4.9113
    -4.8228  -4.8057  -4.4877  -4.3903  -4.3103  -4.1980  -4.0809  -4.0027
    -3.7112  -3.2136  -3.1438  -3.0946  -3.0034  -2.7965  -2.5281  -2.4781
    -2.2025  -1.8817  -1.8230  -1.3931  -1.3244  -0.9079  -0.8143  -0.3969
    -0.3595  -0.0746   0.1769   0.2235   0.3812   0.5448   0.6660   0.7463
     0.7946   0.8449   1.2657   1.4495   1.5601   2.1079   2.1835   2.2016
     2.2667   2.5408   2.6201   2.8510   2.9017   3.0321   3.0762   3.1878
     3.3585   3.4716   3.5835   3.7377   3.8543   3.8742   3.8973   3.9055
     4.2035   4.2597   4.3023   4.3228   4.7275   4.7498   4.7613   4.7811
     4.8366   4.8516   5.0404   5.1268   5.1469   5.4101   5.4497   5.4715
     5.5128   5.7436   5.7875   5.8777   6.1582   6.2023   6.2189   6.3029
     6.3400   6.5385   6.7023   6.7161   6.8578   6.8820   7.0006   7.0065
     7.0930   7.0999   7.1661   7.1891   7.2809   7.2849   7.3960   7.4310
     7.4754   7.5352   7.5767   7.6337   7.6711   7.7142   7.7441   7.8336
     7.9032   7.9875   8.0411   8.1068   8.1983   8.2514   8.2574   8.3354
     8.3766   8.4566   8.5023   8.5308   8.5759   8.6790   8.7177   8.7729
     8.8322   9.0535   9.1852   9.2314   9.2578   9.2911   9.3351   9.3567
     9.4365   9.4662   9.5808   9.6183   9.6411   9.6744   9.6844   9.7350
     9.7362   9.7885   9.8097   9.8118   9.8552   9.8739   9.8904   9.9243
     9.9371  10.0375  10.0593  10.0859  10.1051  10.1197  10.1700  10.1826
    10.1872  10.2281  10.2288  10.2484  10.2800  10.3505  10.3525  10.3796
    10.4272  10.4349  10.4510  10.4804  10.5362  10.5649  10.5880  10.5913
    10.6161  10.6526  10.6674  10.7160  10.7730  10.7866  10.8133  10.8312
    10.8824  10.9052  10.9736  11.0281  11.0447  11.1447  11.1613  11.1817
    11.1945  11.2439  11.2593  11.2700  11.3354  11.3365  11.3650  11.3657
    11.3981  11.4362  11.4687  11.4920  11.5326  11.5441  11.5542  11.5898
    11.6163  11.6297  11.6462  11.6734  11.7040  11.7142  11.7407  11.7792
    11.7896  11.8228  11.8413  11.8757  11.9112  11.9150  11.9284  11.9304
    11.9474  11.9596  11.9826  12.0561  12.0819  12.1110  12.1460  12.1547
    12.1996  12.2064  12.2103  12.2339  12.2872  12.2966  12.3210  12.3469
    12.3651  12.4136  12.4217  12.4238  12.4311  12.4873  12.5049  12.5264
    12.5800  12.6157  12.6789  12.6982  12.7173  12.8220  12.8425  12.8648
    12.8664  12.9088  12.9551  12.9673  13.0173  13.0379  13.1436  13.1665
    13.1737  13.1909  13.2100  13.2241  13.2845  13.3205  13.3866  13.4210
    13.5004  13.5288  13.5510  13.5533  13.5882  13.6213  13.6551  13.7349
    13.8032  13.8160  13.8453  13.9738  14.0671  14.1313  14.1709  14.2048
    14.2131  14.2407  14.2897  14.3104  14.3316  14.3600  14.3986  14.4077
    14.4330  14.5179  14.5278  14.5495  14.6100  14.6456  14.6713  14.6846
    14.7200  14.7391  14.8339  14.9310  14.9754  15.0049  15.0509  15.0594
    15.0931  15.1261  15.1849  15.2798  15.3363  15.3773  15.4037  15.4449
    15.4612  15.5269  15.5516  15.5547  15.6019  15.6593  15.6816  15.7085
    15.7533  15.8252  15.8543  15.9115  15.9601  15.9798  16.0613  16.0679
    16.0920  16.1055  16.1467  16.1571  16.1922  16.2151  16.2778  16.2922
    16.4352  16.4651  16.4678  16.4978  16.5119  16.5824  16.6159  16.6318
    16.6570  16.6995  16.7191  16.7216  16.7489  16.8671  16.8734  16.9227
    16.9358  16.9629  16.9857  17.0086  17.0317  17.0456  17.0611  17.1093
    17.1655  17.2113  17.2601  17.3129  17.3746  17.4139  17.4425  17.4976
    17.5282  17.5615  17.5777  17.5963  17.6041  17.6607  17.6903  17.7641
    17.8204  17.8543  17.8617  17.9126  17.9365  17.9410  17.9724  17.9825
    17.9848  18.0795  18.0847  18.1263  18.1742  18.2623  18.2959  18.3183
    18.3377  18.3637  18.3886  18.4063  18.4447  18.4873  18.5026  18.5276
    18.5518  18.5582  18.5841  18.6120

          k = 0.0000 0.0000 0.0047 ( 52497 PWs)   bands (ev):

   -25.4829 -25.4800 -23.2058 -23.1938 -20.4225 -20.3843 -20.2795 -20.1165
   -19.8992 -19.6315 -19.3127 -18.9458 -18.5305 -18.0648 -17.5628 -17.0274
   -16.4700 -15.9134 -15.4117 -15.2278 -15.2038 -15.1221 -15.0112 -14.9530
   -14.8024 -14.6572 -14.5587 -14.3199 -14.2781 -14.0812 -14.0650 -13.9922
   -13.9067 -13.8962 -13.7168 -13.6525 -13.5659 -13.3740 -13.3537 -13.2283
   -12.8821 -12.6032 -12.3760 -12.0867 -11.7965 -11.7048 -11.5488 -11.3131
   -11.2761 -11.0787 -10.8635 -10.8364 -10.6231 -10.3321 -10.2655 -10.1594
    -9.7661  -9.7230  -9.6179  -9.2724  -9.1927  -9.0102  -8.8759  -8.7494
    -8.6677  -8.6331  -8.4771  -8.4295  -8.3391  -8.2081  -8.1811  -8.1267
    -7.9335  -7.9127  -7.7651  -7.7023  -7.6156  -7.4798  -7.4236  -7.3724
    -7.2606  -7.0203  -6.9006  -6.7967  -6.6042  -6.4461  -6.3028  -6.0922
    -5.9766  -5.8923  -5.5729  -5.5530  -5.4424  -5.2603  -5.1588  -4.9114
    -4.8467  -4.7888  -4.4981  -4.3915  -4.3084  -4.2070  -4.0847  -4.0116
    -3.7099  -3.2294  -3.1598  -3.0944  -3.0197  -2.8136  -2.5461  -2.4797
    -2.2221  -1.8891  -1.8442  -1.4279  -1.3407  -1.0285  -0.6946  -0.3656
    -0.3418  -0.0510   0.1980   0.2264   0.4015   0.5647   0.6857   0.7659
     0.8141   0.8434   1.2691   1.4495   1.5602   2.1111   2.1793   2.2048
     2.2700   2.5439   2.6233   2.8540   2.8972   3.0352   3.0791   3.1909
     3.3613   3.4746   3.5805   3.7409   3.8573   3.8771   3.9005   3.9070
     4.2066   4.2626   4.2989   4.3250   4.7306   4.7520   4.7644   4.7837
     4.8395   4.8546   5.0412   5.1296   5.1446   5.4129   5.4492   5.4745
     5.5158   5.7449   5.7902   5.8791   6.1545   6.2070   6.2210   6.3027
     6.3447   6.5380   6.7005   6.7155   6.8581   6.8820   6.9948   7.0057
     7.0915   7.1007   7.1673   7.1906   7.2818   7.2881   7.3979   7.4394
     7.4743   7.5341   7.5781   7.6396   7.6683   7.7062   7.7414   7.8285
     7.9024   7.9736   8.0485   8.0946   8.2009   8.2452   8.2594   8.3375
     8.3756   8.4596   8.5043   8.5059   8.5707   8.6669   8.7124   8.7740
     8.8416   9.0289   9.1711   9.2338   9.2539   9.2761   9.3238   9.3590
     9.4339   9.4759   9.5873   9.6162   9.6433   9.6498   9.6720   9.6786
     9.7316   9.7933   9.8077   9.8124   9.8179   9.8373   9.8481   9.8594
     9.9239   9.9558   9.9667   9.9977  10.0489  10.0718  10.1081  10.1386
    10.1682  10.1997  10.2449  10.2892  10.3188  10.3652  10.3765  10.3885
    10.4588  10.4733  10.4916  10.4922  10.5492  10.5599  10.5850  10.5949
    10.6177  10.6510  10.7000  10.7358  10.7432  10.7663  10.8195  10.8778
    10.9180  10.9327  10.9802  10.9997  11.0310  11.0802  11.1353  11.1734
    11.2031  11.2234  11.2296  11.2531  11.2564  11.2800  11.3408  11.3632
    11.4008  11.4277  11.4766  11.4847  11.5312  11.5403  11.5556  11.5781
    11.5930  11.6266  11.6644  11.6740  11.7272  11.7502  11.7928  11.8297
    11.8461  11.8503  11.8940  11.9049  11.9220  11.9318  11.9436  11.9677
    11.9983  12.0119  12.0311  12.0530  12.0673  12.1049  12.1373  12.1783
    12.1945  12.2256  12.2358  12.2453  12.2648  12.2940  12.3064  12.3267
    12.3901  12.4046  12.4137  12.4264  12.4388  12.4491  12.4567  12.5099
    12.5424  12.5500  12.5526  12.6658  12.6938  12.7745  12.8147  12.8447
    12.9159  12.9424  12.9705  13.0136  13.0791  13.1010  13.1476  13.1792
    13.1915  13.1977  13.2088  13.2547  13.2925  13.3644  13.4197  13.4232
    13.4754  13.5034  13.5463  13.5659  13.5918  13.6632  13.7072  13.7263
    13.7735  13.8343  13.8824  13.9728  14.0555  14.1251  14.1564  14.2081
    14.2219  14.2580  14.2659  14.2749  14.3168  14.3751  14.3846  14.4420
    14.4646  14.5279  14.5517  14.5741  14.5959  14.6499  14.6843  14.7381
    14.7497  14.7768  14.8950  14.9217  14.9589  15.0013  15.0393  15.0678
    15.0894  15.1445  15.1957  15.2810  15.2998  15.3268  15.3729  15.4007
    15.4333  15.4891  15.5278  15.5543  15.5852  15.6494  15.6951  15.7410
    15.7638  15.8007  15.8584  15.9037  15.9145  16.0155  16.0620  16.0852
    16.0952  16.1315  16.1706  16.2101  16.2273  16.2539  16.2950  16.3394
    16.4531  16.4775  16.4819  16.5171  16.5282  16.5624  16.5727  16.5928
    16.6077  16.6254  16.6562  16.6977  16.7393  16.8460  16.8739  16.9191
    16.9652  17.0058  17.0461  17.0598  17.0771  17.1245  17.1306  17.1379
    17.2214  17.2422  17.2568  17.3230  17.3575  17.4154  17.4321  17.4568
    17.5099  17.5286  17.5720  17.5866  17.6056  17.6743  17.7103  17.7497
    17.8135  17.8302  17.8668  17.8755  17.8872  17.9392  17.9588  17.9855
    17.9875  18.0560  18.0849  18.1159  18.1881  18.2362  18.2737  18.2846
    18.3106  18.3462  18.3877  18.4082  18.4363  18.4678  18.5067  18.5445
    18.5460  18.5759  18.6037  18.6066

          k = 0.0000 0.0000 0.0094 ( 52517 PWs)   bands (ev):

   -25.4785 -25.4756 -23.2137 -23.2018 -20.4154 -20.3772 -20.2724 -20.1095
   -19.8921 -19.6245 -19.3058 -18.9389 -18.5236 -18.0580 -17.5561 -17.0208
   -16.4638 -15.9093 -15.4376 -15.3455 -15.2914 -15.2382 -15.0939 -15.0026
   -14.8581 -14.7263 -14.5639 -14.4077 -14.2438 -14.0851 -13.9752 -13.9581
   -13.8693 -13.8126 -13.7237 -13.5701 -13.4672 -13.2857 -13.2452 -13.2150
   -12.9144 -12.6241 -12.3897 -12.1117 -11.7958 -11.6785 -11.5646 -11.3090
   -11.2264 -11.0736 -10.8551 -10.8236 -10.5969 -10.3350 -10.2738 -10.1222
    -9.7805  -9.7157  -9.5956  -9.2767  -9.1856  -9.0012  -8.8728  -8.7474
    -8.6572  -8.6276  -8.4699  -8.4201  -8.3325  -8.2156  -8.1658  -8.1221
    -7.9398  -7.9011  -7.7625  -7.6881  -7.6058  -7.4810  -7.4481  -7.3512
    -7.2535  -7.0050  -6.9019  -6.8094  -6.5941  -6.4385  -6.3007  -6.1093
    -5.9697  -5.8840  -5.5761  -5.5658  -5.4329  -5.2770  -5.1521  -4.9189
    -4.8742  -4.7749  -4.5271  -4.3971  -4.3030  -4.2331  -4.0967  -4.0383
    -3.7061  -3.2760  -3.2069  -3.0944  -3.0669  -2.8635  -2.5986  -2.4844
    -2.2790  -1.9271  -1.8881  -1.5190  -1.3895  -1.1866  -0.5395  -0.3006
    -0.2734   0.0162   0.2342   0.2598   0.4608   0.6232   0.7438   0.8236
     0.8389   0.8717   1.2794   1.4484   1.5616   2.1206   2.1668   2.2144
     2.2797   2.5533   2.6328   2.8631   2.8833   3.0444   3.0877   3.2000
     3.3697   3.4837   3.5713   3.7506   3.8661   3.8856   3.9098   3.9118
     4.2160   4.2703   4.2899   4.3318   4.7397   4.7587   4.7737   4.7919
     4.8484   4.8633   5.0423   5.1375   5.1395   5.4212   5.4476   5.4834
     5.5247   5.7490   5.7982   5.8837   6.1448   6.2192   6.2277   6.3029
     6.3576   6.5366   6.6941   6.7148   6.8571   6.8831   6.9806   6.9995
     7.0850   7.1053   7.1712   7.1958   7.2854   7.2969   7.4040   7.4624
     7.4727   7.5322   7.5822   7.6529   7.6594   7.6873   7.7347   7.8134
     7.8994   7.9375   8.0542   8.0689   8.2070   8.2316   8.2645   8.3419
     8.3757   8.4338   8.4695   8.5124   8.5570   8.6359   8.6805   8.7890
     8.8580   8.9732   9.1111   9.2023   9.2441   9.2508   9.3204   9.3678
     9.4167   9.4759   9.5176   9.5437   9.5568   9.6148   9.6316   9.6442
     9.6568   9.6691   9.6910   9.7237   9.7588   9.8102   9.8226   9.8355
     9.8571   9.8807   9.9275   9.9661   9.9717  10.0531  10.0682  10.0866
    10.1002  10.1289  10.1767  10.1992  10.2834  10.3329  10.3487  10.3802
    10.4095  10.4325  10.4731  10.4986  10.5386  10.5471  10.5651  10.6116
    10.6354  10.7137  10.7421  10.7785  10.8247  10.8292  10.8804  10.8878
    10.9104  10.9488  10.9581  10.9787  10.9867  11.0134  11.0604  11.0805
    11.1203  11.1843  11.1996  11.2444  11.2605  11.2777  11.2886  11.3526
    11.3739  11.4298  11.4374  11.5202  11.5439  11.5536  11.5914  11.6066
    11.6185  11.6909  11.7428  11.7567  11.7703  11.7788  11.8114  11.8349
    11.8528  11.8577  11.9066  11.9198  11.9268  11.9507  12.0229  12.0328
    12.0436  12.0773  12.0974  12.1200  12.1300  12.1506  12.1783  12.1986
    12.2051  12.2307  12.2439  12.2583  12.2641  12.2770  12.2836  12.2956
    12.3137  12.3446  12.4182  12.4323  12.4409  12.4499  12.4667  12.4884
    12.4896  12.5264  12.5502  12.5849  12.6029  12.7675  12.7884  12.8159
    12.8635  12.9269  12.9573  12.9938  13.0804  13.1333  13.1681  13.1879
    13.1974  13.2523  13.2751  13.3677  13.4263  13.4278  13.4409  13.4599
    13.5144  13.5470  13.5630  13.5932  13.6093  13.6367  13.7004  13.7341
    13.8217  13.9472  13.9804  14.0005  14.0185  14.0613  14.1185  14.1359
    14.1596  14.2505  14.2693  14.2891  14.3709  14.4545  14.4658  14.4727
    14.4868  14.5749  14.5855  14.6083  14.6309  14.6718  14.7376  14.7628
    14.8082  14.8704  14.9196  14.9394  14.9854  14.9980  15.0224  15.0433
    15.0646  15.1798  15.2191  15.2415  15.2833  15.3032  15.3166  15.3372
    15.3594  15.3874  15.4766  15.5147  15.5439  15.6743  15.7039  15.7177
    15.7701  15.8603  15.8741  15.8943  16.0005  16.0241  16.0584  16.0862
    16.1020  16.1316  16.1625  16.2203  16.2526  16.3110  16.3633  16.3942
    16.4116  16.4354  16.4401  16.4985  16.5141  16.5312  16.5887  16.6243
    16.6727  16.6901  16.7122  16.7447  16.7532  16.8431  16.9079  16.9412
    16.9733  17.0120  17.0605  17.0990  17.1344  17.1672  17.1867  17.2238
    17.2560  17.2760  17.3113  17.3355  17.3671  17.3827  17.4738  17.5053
    17.5386  17.5485  17.5705  17.5836  17.6046  17.6436  17.6948  17.7239
    17.7316  17.7513  17.7695  17.8427  17.8984  17.9177  17.9539  17.9750
    17.9942  17.9966  18.0620  18.0828  18.1179  18.1812  18.2350  18.3009
    18.3225  18.3304  18.3368  18.3851  18.4376  18.4506  18.4950  18.5180
    18.5360  18.5567  18.5596  18.5787

          k = 0.0000 0.0000 0.0141 ( 52481 PWs)   bands (ev):

   -25.4712 -25.4683 -23.2267 -23.2149 -20.4036 -20.3654 -20.2606 -20.0977
   -19.8804 -19.6128 -19.2942 -18.9274 -18.5121 -18.0466 -17.5449 -17.0099
   -16.4536 -15.9035 -15.5258 -15.4945 -15.3897 -15.3650 -15.2183 -15.1087
   -14.9003 -14.8452 -14.5863 -14.5051 -14.2470 -14.1476 -13.9345 -13.8801
   -13.7776 -13.6884 -13.6025 -13.4432 -13.3326 -13.2588 -13.1169 -13.1103
   -12.9647 -12.6575 -12.4095 -12.1474 -11.8059 -11.6385 -11.5747 -11.3094
   -11.1489 -11.0690 -10.8607 -10.7696 -10.5751 -10.3148 -10.2887 -10.0762
    -9.7872  -9.7216  -9.5545  -9.2847  -9.1777  -8.9845  -8.8668  -8.7418
    -8.6388  -8.6242  -8.4578  -8.4001  -8.3201  -8.2269  -8.1476  -8.1160
    -7.9397  -7.8834  -7.7552  -7.6712  -7.5903  -7.5095  -7.4519  -7.3206
    -7.2401  -6.9940  -6.9074  -6.8161  -6.5771  -6.4279  -6.3060  -6.1253
    -5.9594  -5.8752  -5.5978  -5.5699  -5.4195  -5.2951  -5.1508  -4.9522
    -4.8785  -4.7714  -4.5706  -4.4107  -4.2949  -4.2744  -4.1180  -4.0822
    -3.6997  -3.3507  -3.2823  -3.1460  -3.0907  -2.9429  -2.6817  -2.4933
    -2.3667  -2.0218  -1.9203  -1.6449  -1.4649  -1.3471  -0.3837  -0.2306
    -0.1527   0.1187   0.2483   0.3559   0.5552   0.7170   0.8316   0.8372
     0.9167   0.9647   1.2966   1.4427   1.5679   2.1346   2.1479   2.2303
     2.2959   2.5687   2.6487   2.8602   2.8782   3.0597   3.1025   3.2151
     3.3835   3.4989   3.5552   3.7666   3.8807   3.8995   3.9211   3.9253
     4.2314   4.2672   4.2911   4.3429   4.7548   4.7701   4.7892   4.8057
     4.8634   4.8776   5.0389   5.1359   5.1520   5.4348   5.4441   5.4981
     5.5395   5.7562   5.8113   5.8920   6.1308   6.2353   6.2411   6.3045
     6.3772   6.5344   6.6822   6.7149   6.8508   6.8847   6.9608   6.9851
     7.0729   7.1142   7.1789   7.2067   7.2918   7.3103   7.4147   7.4726
     7.4903   7.5394   7.5886   7.6290   7.6634   7.6841   7.7251   7.7863
     7.8840   7.9049   7.9859   8.0944   8.2070   8.2241   8.2656   8.3120
     8.3752   8.3819   8.4838   8.5102   8.5470   8.5756   8.6329   8.8068
     8.8373   8.9522   8.9830   9.1232   9.2141   9.2306   9.2506   9.2756
     9.3200   9.3671   9.3984   9.4183   9.4413   9.5033   9.5404   9.5663
     9.6415   9.6515   9.6550   9.6649   9.6917   9.7536   9.7884   9.8381
     9.8546   9.8631   9.8878   9.9149   9.9462   9.9664   9.9795  10.0206
    10.0409  10.0912  10.1161  10.1572  10.2330  10.2584  10.2868  10.3096
    10.3272  10.3514  10.3688  10.4153  10.4461  10.5068  10.5128  10.6036
    10.6167  10.6492  10.6600  10.7140  10.7308  10.7848  10.7958  10.8492
    10.8983  10.9410  10.9637  10.9697  10.9986  11.0698  11.0788  11.1327
    11.1375  11.2082  11.2134  11.2376  11.3016  11.3334  11.3515  11.3668
    11.4239  11.4613  11.5146  11.5530  11.5785  11.5929  11.5994  11.6113
    11.6596  11.6885  11.7143  11.7235  11.7736  11.8205  11.8314  11.8564
    11.8595  11.8902  11.9047  11.9219  11.9419  11.9800  11.9973  12.0318
    12.0551  12.0590  12.0770  12.0866  12.1024  12.1524  12.1611  12.1997
    12.2271  12.2317  12.2598  12.2775  12.2906  12.3499  12.3727  12.3899
    12.4034  12.4413  12.4499  12.4596  12.4735  12.4808  12.4887  12.4916
    12.5161  12.5303  12.5650  12.5983  12.6245  12.6947  12.7130  12.7903
    12.8589  12.9089  12.9186  13.0104  13.0274  13.0426  13.1908  13.2031
    13.2072  13.2503  13.3345  13.3839  13.4143  13.4598  13.5000  13.5296
    13.5371  13.5721  13.6302  13.6585  13.7037  13.7270  13.8391  13.8682
    13.8746  13.9185  13.9440  13.9718  14.0050  14.0743  14.1444  14.1831
    14.2266  14.2433  14.2710  14.3322  14.4236  14.4740  14.5048  14.5321
    14.5704  14.6230  14.6281  14.6387  14.6658  14.7100  14.7537  14.8196
    14.8800  14.9079  14.9349  14.9487  14.9841  15.0045  15.0408  15.0669
    15.0695  15.1194  15.1522  15.1839  15.2387  15.2403  15.3014  15.3247
    15.3862  15.4086  15.5004  15.5505  15.5614  15.6575  15.7178  15.7360
    15.7487  15.8444  15.8978  15.9100  15.9589  16.0048  16.0323  16.0823
    16.1191  16.1238  16.1620  16.1672  16.2553  16.2766  16.2930  16.3190
    16.3982  16.4499  16.5447  16.5794  16.5942  16.6311  16.6560  16.7479
    16.7561  16.7643  16.7767  16.8458  16.9023  16.9214  16.9280  16.9396
    16.9710  17.0046  17.0740  17.1114  17.1238  17.1456  17.1812  17.2084
    17.2542  17.2953  17.3082  17.4001  17.4102  17.4491  17.4800  17.5085
    17.5464  17.5548  17.5705  17.5842  17.6106  17.6338  17.6379  17.7098
    17.7403  17.7795  17.7863  17.8081  17.8106  17.8458  17.8988  17.9688
    17.9962  18.0026  18.0057  18.0749  18.1014  18.1308  18.1369  18.2361
    18.2677  18.3179  18.3324  18.3779  18.4100  18.4231  18.4465  18.4696
    18.4864  18.5105  18.5320  18.5611

          k = 0.0000 0.0000 0.0188 ( 52473 PWs)   bands (ev):

   -25.4611 -25.4582 -23.2448 -23.2331 -20.3870 -20.3489 -20.2441 -20.0813
   -19.8641 -19.5965 -19.2779 -18.9113 -18.4961 -18.0308 -17.5292 -16.9947
   -16.4396 -15.8998 -15.6720 -15.6570 -15.5522 -15.4625 -15.3044 -15.2552
   -15.0070 -14.9209 -14.6761 -14.5744 -14.3130 -14.2082 -13.9160 -13.8288
   -13.5884 -13.5211 -13.4342 -13.3190 -13.2277 -13.1824 -13.0316 -12.9799
   -12.9596 -12.7004 -12.4339 -12.1848 -11.8392 -11.5937 -11.5575 -11.3284
   -11.0666 -11.0260 -10.8833 -10.6852 -10.5625 -10.3186 -10.2528 -10.0372
    -9.7823  -9.7281  -9.5053  -9.2962  -9.1678  -8.9635  -8.8563  -8.7304
    -8.6296  -8.6057  -8.4404  -8.3696  -8.3015  -8.2484  -8.1283  -8.1020
    -7.9284  -7.8592  -7.7426  -7.6659  -7.5733  -7.5406  -7.4382  -7.2823
    -7.2202  -7.0207  -6.8949  -6.8055  -6.5607  -6.4188  -6.3189  -6.1329
    -5.9478  -5.8686  -5.6313  -5.5703  -5.4038  -5.3118  -5.1605  -4.9983
    -4.8708  -4.7781  -4.6252  -4.4352  -4.3320  -4.2814  -4.1500  -4.1418
    -3.6909  -3.4499  -3.3823  -3.2471  -3.0896  -3.0470  -2.7899  -2.5181
    -2.4673  -2.1468  -1.9576  -1.7907  -1.5589  -1.5079  -0.2291  -0.1470
    -0.0108   0.2431   0.2718   0.4806   0.6793   0.8220   0.8414   0.9615
     1.0412   1.0893   1.3206   1.4292   1.5829   2.1153   2.1608   2.2526
     2.3187   2.5902   2.6711   2.8281   2.8994   3.0811   3.1236   3.2357
     3.4025   3.5197   3.5323   3.7890   3.9009   3.9181   3.9364   3.9470
     4.2406   4.2569   4.3113   4.3585   4.7759   4.7862   4.8110   4.8253
     4.8846   4.8962   5.0251   5.1429   5.1709   5.4379   5.4535   5.5186
     5.5602   5.7668   5.8291   5.9048   6.1136   6.2523   6.2632   6.3069
     6.4025   6.5316   6.6656   6.7138   6.8371   6.8728   6.9453   6.9651
     7.0553   7.1271   7.1912   7.2247   7.3006   7.3278   7.4298   7.4771
     7.4973   7.5796   7.5909   7.5973   7.6456   7.6951   7.7234   7.7454
     7.8560   7.8920   7.9015   8.1178   8.1659   8.2023   8.2281   8.2940
     8.3843   8.3894   8.4618   8.4911   8.5106   8.5564   8.5858   8.7817
     8.7833   8.8330   8.9607   8.9674   8.9962   9.0536   9.1378   9.1655
     9.1807   9.2591   9.3285   9.3502   9.3849   9.4158   9.4507   9.5155
     9.5650   9.5909   9.6013   9.6689   9.6728   9.6964   9.7351   9.7764
     9.7992   9.8750   9.8808   9.8854   9.9006   9.9217   9.9628   9.9825
     9.9949  10.0389  10.0550  10.0724  10.1078  10.1267  10.1922  10.1972
    10.2735  10.2904  10.3234  10.3523  10.3589  10.4175  10.4471  10.4739
    10.4802  10.4852  10.5639  10.5953  10.6180  10.6647  10.7083  10.7780
    10.8286  10.8883  10.9055  10.9163  10.9544  11.0444  11.1626  11.2043
    11.2538  11.2624  11.2868  11.3543  11.3622  11.3929  11.4014  11.4581
    11.4799  11.5003  11.5107  11.5435  11.5542  11.5873  11.6023  11.6214
    11.6597  11.6713  11.6904  11.7190  11.7664  11.7819  11.8251  11.8444
    11.8932  11.9217  11.9307  11.9430  11.9685  11.9861  12.0007  12.0173
    12.0231  12.0593  12.0700  12.0979  12.1562  12.1790  12.2015  12.2143
    12.2554  12.2571  12.2857  12.2999  12.3132  12.3497  12.3647  12.3832
    12.4491  12.4773  12.4979  12.5139  12.5221  12.5382  12.5513  12.5557
    12.5810  12.6092  12.6599  12.6615  12.6677  12.7448  12.7535  12.7762
    12.7956  12.8859  12.9414  12.9622  13.0296  13.1369  13.1722  13.2050
    13.2432  13.2569  13.3139  13.3287  13.3490  13.4275  13.5016  13.5141
    13.5840  13.6128  13.6987  13.7319  13.7679  13.8023  13.8391  13.8754
    13.9596  14.0049  14.0230  14.0480  14.1367  14.1551  14.1927  14.2275
    14.2631  14.2871  14.3710  14.4092  14.4153  14.4533  14.5290  14.5512
    14.6165  14.6277  14.6611  14.7063  14.7763  14.7860  14.7912  14.8071
    14.8173  14.9195  14.9295  14.9705  14.9760  15.0261  15.0500  15.0748
    15.0897  15.1382  15.1604  15.1759  15.2285  15.2723  15.3232  15.3387
    15.4349  15.4632  15.5426  15.5975  15.6357  15.6800  15.7084  15.7339
    15.7698  15.7845  15.8114  15.8636  15.8923  15.9356  16.0305  16.0810
    16.1082  16.1454  16.1574  16.1967  16.2564  16.2660  16.2970  16.3934
    16.4751  16.5258  16.5891  16.6046  16.6683  16.6916  16.7119  16.7514
    16.7870  16.8433  16.8743  16.9046  16.9530  16.9662  16.9889  17.0110
    17.0278  17.0506  17.0664  17.1052  17.1272  17.1344  17.2166  17.2282
    17.3026  17.3171  17.3593  17.3887  17.3925  17.4471  17.4865  17.5168
    17.5381  17.5395  17.5544  17.5663  17.5952  17.6029  17.6293  17.6594
    17.7073  17.7182  17.7345  17.7477  17.8682  17.8928  17.9022  17.9391
    17.9580  17.9957  18.0073  18.0398  18.0981  18.1660  18.1870  18.2283
    18.2517  18.2823  18.2845  18.3010  18.3503  18.3664  18.4247  18.4301
    18.5063  18.5251  18.5790  18.5937

          k = 0.0000 0.0000 0.0235 ( 52499 PWs)   bands (ev):

   -25.4480 -25.4452 -23.2677 -23.2562 -20.3657 -20.3277 -20.2230 -20.0602
   -19.8430 -19.5756 -19.2571 -18.8905 -18.4755 -18.0104 -17.5091 -16.9751
   -16.4222 -15.9201 -15.8381 -15.8115 -15.7142 -15.6141 -15.4170 -15.3456
   -15.1409 -15.0048 -14.7545 -14.6736 -14.3748 -14.3082 -13.8597 -13.7872
   -13.3821 -13.3474 -13.2731 -13.2447 -13.1369 -13.0468 -13.0331 -12.8620
   -12.7991 -12.7301 -12.4640 -12.2151 -11.8907 -11.5618 -11.5088 -11.3583
   -10.9996 -10.9485 -10.8934 -10.6070 -10.5260 -10.3527 -10.1745 -10.0068
    -9.7982  -9.6950  -9.4599  -9.3092  -9.1520  -8.9454  -8.8382  -8.7109
    -8.6279  -8.5701  -8.4186  -8.3363  -8.2873  -8.2629  -8.1071  -8.0753
    -7.9099  -7.8289  -7.7312  -7.6911  -7.5596  -7.5276  -7.4178  -7.2391
    -7.1944  -7.0821  -6.8621  -6.7813  -6.5597  -6.4165  -6.3228  -6.1352
    -5.9399  -5.8631  -5.6690  -5.5718  -5.3873  -5.3276  -5.1842  -5.0452
    -4.8654  -4.7906  -4.6887  -4.4727  -4.4005  -4.2664  -4.2193  -4.1894
    -3.6800  -3.5694  -3.5025  -3.3688  -3.1720  -3.0877  -2.9172  -2.6271
    -2.5063  -2.2900  -2.0044  -1.9472  -1.6683  -1.6651  -0.0764  -0.0544
     0.1423   0.2887   0.3977   0.6274   0.8106   0.8277   0.9909   1.1122
     1.1928   1.2414   1.3514   1.4070   1.6078   2.0787   2.1895   2.2813
     2.3479   2.6169   2.6998   2.7880   2.9266   3.1086   3.1512   3.2612
     3.4250   3.5022   3.5478   3.8178   3.9265   3.9395   3.9588   3.9748
     4.2126   4.2834   4.3387   4.3780   4.8027   4.8072   4.8388   4.8507
     4.9119   4.9149   5.0045   5.1621   5.1944   5.4282   5.4765   5.5448
     5.5867   5.7817   5.8503   5.9227   6.0945   6.2722   6.2885   6.3103
     6.4330   6.5287   6.6447   6.7078   6.8152   6.8319   6.9290   6.9604
     7.0347   7.1434   7.2081   7.2501   7.3116   7.3482   7.4487   7.4842
     7.4957   7.5552   7.5907   7.6157   7.6459   7.6729   7.7055   7.7521
     7.7929   7.8480   7.8955   8.0327   8.1401   8.1651   8.2204   8.3024
     8.3399   8.4024   8.4233   8.4621   8.5027   8.5455   8.5642   8.6257
     8.6689   8.7219   8.7472   8.7700   8.8927   8.9387   9.0054   9.0399
     9.0698   9.1085   9.2099   9.2571   9.2927   9.3843   9.4153   9.4586
     9.4794   9.4910   9.5531   9.6022   9.6284   9.6942   9.7093   9.7356
     9.7453   9.7649   9.8104   9.8735   9.8876   9.9019   9.9091   9.9449
     9.9600   9.9822   9.9919  10.0125  10.0351  10.0502  10.0968  10.1517
    10.1578  10.1908  10.2030  10.2544  10.2603  10.2774  10.2902  10.3318
    10.3494  10.3613  10.4794  10.4934  10.5625  10.5986  10.6278  10.7282
    10.7636  10.8235  10.8767  10.9212  10.9553  11.0242  11.0706  11.1449
    11.1515  11.2246  11.2554  11.2914  11.3210  11.3545  11.3645  11.4019
    11.4549  11.5157  11.5225  11.5701  11.5987  11.6199  11.6425  11.6897
    11.7027  11.7165  11.7322  11.7626  11.8066  11.8584  11.8660  11.8992
    11.9061  11.9204  11.9470  11.9776  11.9865  12.0063  12.0275  12.0453
    12.0651  12.0896  12.0985  12.1372  12.1765  12.1831  12.2180  12.2380
    12.2457  12.2971  12.3106  12.3501  12.3610  12.3740  12.3957  12.4208
    12.4832  12.5013  12.5287  12.5368  12.5422  12.5704  12.5833  12.6239
    12.6442  12.6653  12.6859  12.7053  12.7249  12.7337  12.8035  12.8224
    12.8613  12.9491  12.9644  13.0093  13.0950  13.1491  13.2040  13.2191
    13.2297  13.2869  13.3152  13.3323  13.4075  13.4217  13.4690  13.5169
    13.5573  13.5916  13.6947  13.7307  13.7966  13.8084  13.8301  13.9428
    14.0016  14.0383  14.1131  14.1518  14.2267  14.2676  14.2789  14.3111
    14.3557  14.3782  14.3968  14.4531  14.4991  14.5135  14.5889  14.6001
    14.6164  14.6336  14.6429  14.7084  14.7452  14.7845  14.8084  14.8504
    14.9368  14.9437  14.9565  15.0171  15.0266  15.0506  15.0751  15.0878
    15.1148  15.1293  15.1618  15.3031  15.3442  15.3555  15.3770  15.4016
    15.4416  15.4845  15.5209  15.5424  15.5847  15.6726  15.6813  15.7414
    15.7617  15.8180  15.8366  15.8895  15.9349  15.9562  16.0172  16.0847
    16.1041  16.1354  16.1894  16.2286  16.3142  16.3328  16.3740  16.4599
    16.4833  16.5706  16.5951  16.6499  16.6647  16.7191  16.7659  16.8107
    16.8241  16.8516  16.8712  16.8971  16.9221  16.9907  17.0033  17.0216
    17.0375  17.0527  17.0981  17.1405  17.1495  17.2011  17.2876  17.3171
    17.3497  17.3727  17.3925  17.4097  17.4178  17.4212  17.4699  17.4773
    17.4806  17.5019  17.5359  17.5649  17.5741  17.5899  17.6245  17.6388
    17.6739  17.7196  17.7553  17.8188  17.8495  17.8695  17.9018  17.9188
    17.9776  17.9990  18.0108  18.0337  18.0707  18.1051  18.1427  18.2046
    18.2491  18.2816  18.2971  18.3104  18.3694  18.3985  18.4513  18.4718
    18.4855  18.5063  18.5404  18.5982

          k = 0.0000 0.0000 0.0282 ( 52502 PWs)   bands (ev):

   -25.4322 -25.4295 -23.2952 -23.2839 -20.3397 -20.3018 -20.1971 -20.0344
   -19.8173 -19.5500 -19.2317 -18.8652 -18.4504 -17.9855 -17.4846 -16.9515
   -16.4023 -16.0424 -16.0104 -15.9382 -15.8114 -15.7824 -15.5788 -15.4257
   -15.2268 -15.1316 -14.8169 -14.7851 -14.4482 -14.4084 -13.8017 -13.7496
   -13.3038 -13.1987 -13.1647 -13.0872 -13.0589 -12.9450 -12.8787 -12.8128
   -12.6475 -12.6304 -12.4987 -12.2334 -11.9445 -11.5711 -11.4397 -11.3583
   -11.0110 -10.9000 -10.7766 -10.5611 -10.4812 -10.3455 -10.1070  -9.9764
    -9.8146  -9.6431  -9.4246  -9.3143  -9.1338  -8.9275  -8.8150  -8.6808
    -8.6188  -8.5349  -8.3961  -8.3276  -8.2758  -8.2294  -8.0813  -8.0399
    -7.8990  -7.7933  -7.7583  -7.6875  -7.5308  -7.4954  -7.3924  -7.2032
    -7.1734  -7.1369  -6.8241  -6.7497  -6.5895  -6.4119  -6.3085  -6.1399
    -5.9439  -5.8530  -5.7055  -5.5769  -5.3741  -5.3439  -5.2195  -5.0899
    -4.8811  -4.7951  -4.7569  -4.5253  -4.4803  -4.3084  -4.2514  -4.2366
    -3.7052  -3.6683  -3.6373  -3.5063  -3.3116  -3.0965  -3.0492  -2.7727
    -2.5268  -2.4444  -2.1103  -2.0610  -1.8251  -1.7803   0.0436   0.0743
     0.3016   0.3183   0.5574   0.7894   0.7997   0.9949   1.1613   1.2848
     1.3669   1.3771   1.3900   1.4169   1.6419   2.0346   2.2251   2.3164
     2.3836   2.6458   2.7346   2.7441   2.9594   3.1421   3.1853   3.2886
     3.4388   3.4828   3.5807   3.8530   3.9571   3.9603   3.9890   4.0089
     4.1817   4.3179   4.3724   4.4007   4.8330   4.8345   4.8725   4.8813
     4.9169   4.9459   4.9988   5.1913   5.2208   5.4156   5.5034   5.5765
     5.6190   5.8016   5.8726   5.9460   6.0768   6.2926   6.2989   6.3302
     6.4680   6.5238   6.6172   6.6928   6.7642   6.7952   6.9055   6.9636
     7.0250   7.1617   7.2294   7.2816   7.3238   7.3694   7.4694   7.4854
     7.4961   7.5365   7.5585   7.5812   7.6328   7.6707   7.6874   7.7444
     7.7928   7.8311   7.8846   7.9360   8.0524   8.1559   8.1850   8.2840
     8.3034   8.3664   8.4018   8.4066   8.4286   8.4605   8.4785   8.4987
     8.5488   8.5956   8.6210   8.6663   8.7108   8.8198   8.8614   8.9111
     8.9753   9.0501   9.0701   9.1221   9.1492   9.2894   9.3403   9.3990
     9.4198   9.4882   9.4959   9.5147   9.5481   9.5682   9.5888   9.6837
     9.7194   9.7293   9.7484   9.8231   9.8429   9.8490   9.8761   9.8862
     9.9077   9.9380   9.9622   9.9655   9.9739   9.9920  10.0099  10.0351
    10.0425  10.0655  10.0722  10.0782  10.1261  10.1642  10.2024  10.2379
    10.3071  10.3670  10.4306  10.4423  10.4674  10.5021  10.5312  10.7205
    10.7416  10.7801  10.8082  10.9026  10.9178  10.9663  10.9743  11.0063
    11.0236  11.0747  11.0980  11.1711  11.2259  11.2648  11.2851  11.3560
    11.4019  11.4585  11.5404  11.5543  11.5832  11.6540  11.6905  11.7041
    11.7188  11.7370  11.7734  11.8398  11.8450  11.8607  11.9026  11.9180
    11.9391  11.9553  11.9641  11.9885  12.0253  12.0402  12.0684  12.0933
    12.1223  12.1607  12.1954  12.2018  12.2149  12.2418  12.2595  12.2845
    12.2930  12.3467  12.3871  12.4076  12.4275  12.4566  12.4693  12.4836
    12.5055  12.5227  12.5441  12.5639  12.5933  12.6031  12.6128  12.6320
    12.6542  12.6899  12.7086  12.7489  12.7693  12.7733  12.8329  12.8729
    12.8954  12.9411  12.9912  13.0792  13.1007  13.1934  13.2070  13.2500
    13.2983  13.3173  13.3399  13.3417  13.4070  13.4904  13.5001  13.5181
    13.5776  13.5989  13.7054  13.7807  13.8041  13.8611  13.9196  13.9302
    14.0052  14.0375  14.0706  14.1081  14.2293  14.2733  14.2958  14.3797
    14.4513  14.4614  14.4896  14.5216  14.5756  14.6013  14.6301  14.6433
    14.7105  14.7244  14.7440  14.7658  14.7951  14.8544  14.8721  14.8952
    14.9602  14.9873  15.0013  15.0217  15.0637  15.0887  15.1152  15.1279
    15.1605  15.2198  15.2373  15.3210  15.3635  15.3697  15.3778  15.4429
    15.4605  15.5117  15.5390  15.5858  15.6265  15.6745  15.7024  15.7630
    15.7744  15.8322  15.9065  15.9673  15.9864  15.9901  16.0436  16.0873
    16.1613  16.1734  16.2808  16.2929  16.3203  16.3574  16.4115  16.4852
    16.5410  16.5916  16.6125  16.6445  16.6657  16.6966  16.7254  16.8342
    16.8726  16.8861  16.9103  16.9310  16.9734  16.9919  16.9984  17.0209
    17.0591  17.0669  17.0802  17.1201  17.1497  17.1967  17.2503  17.2810
    17.3109  17.3240  17.3465  17.3565  17.3986  17.4385  17.4556  17.4789
    17.4913  17.5431  17.5641  17.5788  17.6186  17.6727  17.6927  17.7108
    17.7562  17.7728  17.8145  17.8552  17.8666  17.8965  17.9057  17.9191
    17.9239  17.9775  18.0186  18.0416  18.0939  18.1114  18.1481  18.1723
    18.2370  18.2430  18.2770  18.3088  18.3117  18.3548  18.4202  18.4455
    18.4663  18.5320  18.5818  18.6069

          k = 0.0000 0.0000 0.0329 ( 52532 PWs)   bands (ev):

   -25.4137 -25.4110 -23.3270 -23.3160 -20.3090 -20.2711 -20.1665 -20.0039
   -19.7870 -19.5198 -19.2016 -18.8354 -18.4207 -17.9561 -17.4558 -16.9238
   -16.3840 -16.2135 -16.1812 -16.1034 -15.9550 -15.8479 -15.7147 -15.5636
   -15.2789 -15.2564 -14.9409 -14.8396 -14.5486 -14.4872 -13.7638 -13.7014
   -13.3505 -13.1887 -13.0115 -12.9460 -12.8817 -12.8628 -12.7024 -12.6836
   -12.5795 -12.4748 -12.4432 -12.2394 -11.9875 -11.6213 -11.3622 -11.3138
   -11.0867 -10.7959 -10.6477 -10.5538 -10.4649 -10.2469 -10.0764  -9.9559
    -9.7853  -9.6039  -9.3959  -9.3062  -9.1142  -8.8982  -8.7992  -8.6372
    -8.6005  -8.5141  -8.3739  -8.3166  -8.2394  -8.1788  -8.0522  -8.0003
    -7.9265  -7.7680  -7.7524  -7.6594  -7.4948  -7.4577  -7.3626  -7.2573
    -7.1425  -7.1091  -6.7864  -6.7215  -6.6394  -6.3986  -6.2853  -6.1540
    -5.9621  -5.8358  -5.7371  -5.5883  -5.3817  -5.3541  -5.2539  -5.1337
    -4.9273  -4.8393  -4.7729  -4.5959  -4.5690  -4.4069  -4.3026  -4.2239
    -3.8534  -3.7881  -3.6578  -3.6495  -3.4625  -3.2208  -3.0770  -2.9295
    -2.6075  -2.5493  -2.2739  -2.1329  -1.9751  -1.9007   0.1448   0.2218
     0.3532   0.4639   0.7264   0.7857   0.9666   1.1768   1.3413   1.3477
     1.4345   1.4762   1.5608   1.6119   1.6844   1.9841   2.2672   2.3576
     2.4258   2.6506   2.7222   2.7764   2.9972   3.1814   3.2258   3.3072
     3.4236   3.5053   3.6190   3.8945   3.9675   3.9950   4.0267   4.0493
     4.1605   4.3589   4.4111   4.4258   4.8597   4.8632   4.8940   4.9141
     4.9229   4.9859   5.0245   5.2285   5.2459   5.4040   5.5328   5.6133
     5.6570   5.8267   5.8906   5.9743   6.0670   6.2842   6.3177   6.3637
     6.4966   6.5095   6.5917   6.6610   6.6996   6.7752   6.8827   6.9501
     7.0429   7.1794   7.2540   7.3122   7.3381   7.3865   7.4675   7.4836
     7.4994   7.5157   7.5373   7.5455   7.5821   7.6202   7.6643   7.7223
     7.8142   7.8457   7.8792   7.9123   7.9353   8.1017   8.1161   8.1300
     8.1727   8.2372   8.2721   8.3060   8.3604   8.3855   8.4347   8.4558
     8.5064   8.5220   8.5639   8.6022   8.6234   8.6889   8.6976   8.8050
     8.8327   8.8905   8.9748   9.0295   9.0779   9.1838   9.2024   9.2605
     9.2997   9.3528   9.3903   9.4369   9.5084   9.5612   9.5763   9.5863
     9.6198   9.6316   9.6756   9.6880   9.7287   9.7711   9.7851   9.8122
     9.8253   9.8551   9.8702   9.8948   9.9094   9.9209   9.9293   9.9314
     9.9720  10.0363  10.0399  10.0587  10.0894  10.1095  10.1227  10.1890
    10.2213  10.3261  10.3899  10.4024  10.4438  10.4716  10.4894  10.6165
    10.6749  10.7158  10.7292  10.7563  10.7922  10.8058  10.8316  10.8721
    10.9385  11.0054  11.0331  11.0948  11.1392  11.2089  11.2514  11.2799
    11.3170  11.4400  11.5036  11.5142  11.5880  11.5898  11.6588  11.6793
    11.6991  11.7151  11.7524  11.7872  11.8226  11.8254  11.8789  11.9012
    11.9490  11.9767  12.0086  12.0361  12.0404  12.0753  12.1250  12.1730
    12.1964  12.2032  12.2157  12.2687  12.3055  12.3146  12.3550  12.3889
    12.3986  12.4405  12.4474  12.4534  12.4695  12.4859  12.5355  12.5491
    12.5615  12.5850  12.6235  12.6371  12.6637  12.6725  12.6836  12.6918
    12.6986  12.7180  12.7351  12.7523  12.7665  12.7908  12.8398  12.9152
    12.9474  12.9879  13.0207  13.0476  13.1203  13.1429  13.2456  13.2698
    13.2840  13.3330  13.3373  13.4385  13.4647  13.5127  13.5245  13.5675
    13.5868  13.6457  13.7776  13.8203  13.8412  13.8722  13.9410  13.9575
    14.0362  14.0723  14.0784  14.1443  14.1856  14.1985  14.3193  14.3618
    14.4178  14.4790  14.5178  14.5684  14.6314  14.6631  14.7335  14.7959
    14.8013  14.8553  14.8877  14.9030  14.9113  14.9576  14.9662  14.9851
    14.9907  15.0177  15.0324  15.0517  15.0783  15.0929  15.1426  15.1497
    15.2158  15.2721  15.3039  15.3563  15.3797  15.3856  15.4175  15.4775
    15.5172  15.6156  15.6280  15.6477  15.7097  15.7111  15.7362  15.7598
    15.8126  15.8780  15.9199  15.9773  16.0020  16.0700  16.1415  16.1899
    16.2275  16.2475  16.2854  16.3354  16.3555  16.4068  16.4491  16.4933
    16.5299  16.5630  16.6113  16.6535  16.7059  16.7416  16.7791  16.8282
    16.8694  16.8771  16.9091  16.9297  16.9387  16.9624  16.9868  16.9981
    17.0641  17.0871  17.1009  17.1578  17.1604  17.1975  17.2220  17.2300
    17.2469  17.2802  17.3348  17.3460  17.3752  17.4346  17.4563  17.4825
    17.5070  17.5571  17.5836  17.6280  17.6533  17.6819  17.7195  17.7444
    17.7736  17.7961  17.8446  17.8750  17.9128  17.9496  17.9673  17.9806
    17.9961  18.0128  18.0311  18.0733  18.0911  18.1267  18.1437  18.1863
    18.2097  18.2197  18.2750  18.3080  18.3285  18.3673  18.4338  18.4781
    18.5291  18.5445  18.5588  18.6067

          k = 0.0000 0.0000 0.0376 ( 52574 PWs)   bands (ev):

   -25.3926 -25.3899 -23.3628 -23.3521 -20.2736 -20.2358 -20.1313 -19.9687
   -19.7519 -19.4849 -19.1669 -18.8009 -18.3866 -17.9223 -17.4226 -16.8926
   -16.4099 -16.3897 -16.3100 -16.2766 -16.1239 -15.9661 -15.7548 -15.7206
   -15.4304 -15.2840 -15.0595 -14.9081 -14.6355 -14.5721 -13.7384 -13.6524
   -13.4177 -13.1609 -13.0935 -12.7749 -12.6798 -12.6726 -12.6374 -12.5317
   -12.4847 -12.3042 -12.2822 -12.2294 -12.0085 -11.6786 -11.3025 -11.2452
   -11.1447 -10.7393 -10.5499 -10.5271 -10.3975 -10.1437 -10.0650  -9.9359
    -9.7304  -9.5653  -9.3726  -9.2964  -9.0726  -8.8645  -8.7972  -8.5827
    -8.5748  -8.5001  -8.3388  -8.2822  -8.1999  -8.1177  -8.0366  -7.9823
    -7.9468  -7.7371  -7.7091  -7.6250  -7.4692  -7.4179  -7.3341  -7.3168
    -7.1006  -7.0638  -6.7621  -6.7370  -6.6461  -6.3840  -6.2664  -6.1752
    -5.9870  -5.8233  -5.7569  -5.6089  -5.4148  -5.3734  -5.2662  -5.1771
    -4.9961  -4.9186  -4.7503  -4.6867  -4.6652  -4.5096  -4.3715  -4.1989
    -4.0110  -3.9456  -3.8143  -3.6436  -3.6131  -3.3806  -3.0951  -3.0759
    -2.7724  -2.5841  -2.4322  -2.2298  -2.1056  -2.0244   0.2479   0.3557
     0.4040   0.6262   0.7750   0.9014   1.1511   1.3005   1.3715   1.4812
     1.5522   1.6806   1.7354   1.7697   1.8231   1.9281   2.3157   2.4045
     2.4744   2.6011   2.7555   2.8234   3.0382   3.2253   3.2722   3.2939
     3.4324   3.5443   3.6612   3.9417   3.9506   4.0377   4.0716   4.0961
     4.1649   4.4061   4.4420   4.4621   4.8331   4.8958   4.9267   4.9593
     4.9648   5.0321   5.0664   5.2600   5.2730   5.4038   5.5623   5.6547
     5.7003   5.8555   5.8983   6.0060   6.0743   6.2615   6.3271   6.3832
     6.4494   6.5444   6.5744   6.6069   6.6842   6.7523   6.8626   6.9350
     7.0744   7.1917   7.2778   7.3134   7.3657   7.3940   7.4365   7.4468
     7.4801   7.5052   7.5140   7.5462   7.5565   7.5863   7.6272   7.6480
     7.7498   7.8330   7.8627   7.8754   7.8963   7.9331   7.9813   8.0241
     8.0374   8.0854   8.1216   8.2468   8.3049   8.3370   8.3541   8.3903
     8.4317   8.4725   8.5080   8.5531   8.5846   8.6074   8.6358   8.7051
     8.7133   8.7405   8.8894   8.9092   8.9829   9.0140   9.0725   9.1273
     9.2025   9.2404   9.2678   9.3511   9.3793   9.3969   9.4240   9.4639
     9.4717   9.5812   9.5939   9.6144   9.6383   9.6679   9.7015   9.7050
     9.7082   9.7909   9.8073   9.8129   9.8338   9.8993   9.9088   9.9240
     9.9301   9.9586   9.9866  10.0278  10.0775  10.0928  10.1291  10.1642
    10.1943  10.2888  10.3299  10.3734  10.4078  10.4177  10.4438  10.5088
    10.5172  10.5250  10.5549  10.6651  10.6731  10.7347  10.7869  10.8086
    10.8437  10.8609  10.9346  11.0825  11.0952  11.1196  11.2052  11.2865
    11.2957  11.3443  11.3947  11.4667  11.5065  11.5576  11.5828  11.6393
    11.6520  11.7200  11.7398  11.7689  11.7945  11.8196  11.8213  11.8763
    11.9411  11.9713  12.0276  12.0562  12.0729  12.0904  12.1918  12.2013
    12.2209  12.2587  12.2703  12.2920  12.2996  12.3067  12.3817  12.4200
    12.4320  12.4409  12.4629  12.5143  12.5365  12.5393  12.5767  12.6107
    12.6267  12.6570  12.6808  12.6958  12.6979  12.7477  12.7609  12.7791
    12.7909  12.7946  12.8224  12.8397  12.8644  12.8800  12.8842  12.9390
    12.9932  13.0126  13.0262  13.1196  13.1508  13.1777  13.2176  13.2672
    13.3307  13.3491  13.3898  13.4604  13.4909  13.5252  13.5427  13.5631
    13.5717  13.6732  13.7185  13.7916  13.8356  13.8694  13.9800  14.0135
    14.0776  14.1085  14.1525  14.1818  14.2708  14.2914  14.3249  14.3782
    14.4605  14.4729  14.5916  14.6067  14.6258  14.7005  14.7349  14.8004
    14.8593  14.8724  14.9042  14.9467  14.9587  14.9760  15.0342  15.1136
    15.1248  15.1406  15.1575  15.1700  15.2055  15.2184  15.2397  15.2656
    15.2709  15.3206  15.3793  15.4034  15.4289  15.4688  15.5104  15.5419
    15.5701  15.6114  15.6151  15.6647  15.7246  15.7655  15.8061  15.8312
    15.8658  15.9442  15.9951  16.0201  16.0840  16.0905  16.1881  16.1909
    16.2606  16.3175  16.3476  16.4104  16.4157  16.4356  16.5104  16.5439
    16.5731  16.5843  16.6452  16.6724  16.7164  16.7351  16.7554  16.7846
    16.8021  16.8086  16.8278  16.8880  16.9034  16.9164  16.9625  17.0315
    17.0677  17.1027  17.1289  17.1654  17.1798  17.1988  17.2432  17.2636
    17.2849  17.3207  17.3904  17.3943  17.4387  17.4463  17.4799  17.4936
    17.5159  17.5563  17.5693  17.6143  17.6563  17.6709  17.6885  17.7146
    17.7908  17.8392  17.8550  17.8679  17.8957  17.9073  17.9203  17.9516
    17.9986  18.0494  18.0821  18.1012  18.1579  18.1915  18.2377  18.2459
    18.2800  18.3341  18.3489  18.3659  18.3772  18.4041  18.4629  18.5392
    18.5803  18.6253  18.6584  18.6663

          k = 0.0000 0.0000 0.0423 ( 52594 PWs)   bands (ev):

   -25.3689 -25.3663 -23.4022 -23.3918 -20.2334 -20.1958 -20.0913 -19.9289
   -19.7123 -19.4455 -19.1277 -18.7619 -18.3479 -17.8841 -17.3854 -16.8590
   -16.5673 -16.5563 -16.4522 -16.3495 -16.2523 -16.1260 -15.8833 -15.7574
   -15.5702 -15.3580 -15.1279 -15.0087 -14.6974 -14.6680 -13.7169 -13.6231
   -13.4675 -13.1883 -13.1273 -12.7208 -12.6886 -12.4600 -12.4411 -12.3529
   -12.2910 -12.2335 -12.1423 -12.0895 -11.9799 -11.7223 -11.3250 -11.1625
   -11.1168 -10.7916 -10.4434 -10.4371 -10.3276 -10.0917  -9.9918  -9.9152
    -9.6851  -9.4937  -9.3910  -9.2546  -9.0062  -8.8712  -8.7690  -8.5479
    -8.5339  -8.4563  -8.2941  -8.2378  -8.1646  -8.0768  -8.0497  -7.9619
    -7.9035  -7.6902  -7.6629  -7.5864  -7.5033  -7.3741  -7.3300  -7.2868
    -7.0620  -7.0188  -6.8234  -6.7130  -6.6113  -6.3759  -6.2813  -6.1742
    -6.0131  -5.8448  -5.7448  -5.6397  -5.4632  -5.4113  -5.2699  -5.2070
    -5.0829  -5.0025  -4.8042  -4.7750  -4.7117  -4.6112  -4.4485  -4.1768
    -4.1694  -4.1096  -3.9785  -3.7896  -3.6144  -3.5463  -3.2608  -3.0826
    -2.9353  -2.6614  -2.5522  -2.3594  -2.2080  -2.1496   0.3518   0.4215
     0.5249   0.7458   0.8089   1.0798   1.2586   1.3412   1.5403   1.5722
     1.7613   1.7907   1.8681   1.9003   1.9920   2.0479   2.3707   2.4531
     2.5292   2.5392   2.8066   2.8748   3.0758   3.2444   3.2864   3.3265
     3.4731   3.5894   3.7034   3.9097   3.9970   4.0857   4.1232   4.1493
     4.1962   4.4539   4.4599   4.5134   4.7997   4.9270   4.9762   5.0091
     5.0152   5.0842   5.1170   5.2566   5.3232   5.4267   5.5878   5.6996
     5.7487   5.8737   5.9070   6.0351   6.1019   6.2280   6.2781   6.3425
     6.4659   6.5021   6.5875   6.6327   6.6895   6.7199   6.8503   6.9251
     7.1043   7.1888   7.2599   7.3033   7.3525   7.3914   7.3998   7.4161
     7.4469   7.4704   7.4806   7.5428   7.5566   7.5726   7.5920   7.5976
     7.6319   7.6530   7.7141   7.7908   7.8026   7.8344   7.9133   7.9428
     7.9854   8.0317   8.0900   8.1118   8.1911   8.2300   8.2813   8.3141
     8.3548   8.3864   8.4636   8.5106   8.5374   8.5520   8.6078   8.6176
     8.6776   8.7190   8.7568   8.7759   8.8341   8.9283   8.9462   9.0351
     9.0540   9.1246   9.1377   9.1599   9.2017   9.2325   9.2589   9.2877
     9.3793   9.4022   9.4846   9.5052   9.5812   9.5861   9.5941   9.6393
     9.6623   9.7241   9.7599   9.7709   9.8090   9.8401   9.8571   9.8851
     9.9135   9.9231   9.9547  10.0167  10.0574  10.0757  10.1564  10.1677
    10.1940  10.1956  10.2299  10.2463  10.2583  10.2848  10.3529  10.3866
    10.4232  10.5070  10.5136  10.5535  10.5764  10.6532  10.6850  10.7474
    10.7909  10.8736  10.8837  10.9597  11.0335  11.1020  11.1361  11.1751
    11.2090  11.2969  11.3402  11.3799  11.4161  11.5363  11.5425  11.6266
    11.6722  11.6948  11.7076  11.7221  11.7317  11.7837  11.8296  11.8787
    11.9383  11.9495  12.0102  12.0593  12.1372  12.1425  12.2071  12.2158
    12.2308  12.2531  12.2631  12.2824  12.3051  12.3185  12.3495  12.3940
    12.4070  12.4475  12.4952  12.5010  12.5266  12.5558  12.5590  12.6226
    12.6300  12.6347  12.7046  12.7449  12.7528  12.7958  12.8095  12.8255
    12.8369  12.8865  12.9035  12.9112  13.0033  13.0293  13.0597  13.0733
    13.1000  13.1209  13.1328  13.1521  13.2140  13.2398  13.2650  13.2800
    13.3692  13.3815  13.4106  13.4145  13.4750  13.4958  13.5335  13.5415
    13.5987  13.6977  13.7241  13.7531  13.8052  13.8838  13.9849  14.0284
    14.0978  14.1187  14.1868  14.2297  14.3143  14.3613  14.4015  14.4813
    14.5176  14.5403  14.6095  14.6291  14.6522  14.6831  14.7303  14.8353
    14.8675  14.9319  14.9511  14.9661  15.0311  15.0621  15.1192  15.1591
    15.1875  15.2495  15.2656  15.3057  15.3179  15.3310  15.3558  15.4144
    15.4311  15.4337  15.4491  15.4774  15.4875  15.5216  15.5502  15.5534
    15.5749  15.5955  15.7117  15.7550  15.7799  15.8426  15.8678  15.9156
    15.9210  15.9897  16.0173  16.0510  16.1101  16.1307  16.2104  16.2472
    16.2718  16.3901  16.4085  16.4290  16.4388  16.4889  16.5363  16.5739
    16.5833  16.6235  16.6260  16.6422  16.6875  16.7234  16.7452  16.7637
    16.7782  16.8289  16.8536  16.8629  16.8823  16.9035  16.9451  17.0249
    17.0814  17.1085  17.1723  17.1813  17.2102  17.2197  17.2965  17.3234
    17.3308  17.3879  17.4200  17.4330  17.4706  17.4820  17.4974  17.5459
    17.5515  17.5674  17.5848  17.6052  17.6490  17.6716  17.6751  17.7129
    17.7366  17.8176  17.8372  17.8635  17.8786  17.9074  17.9287  17.9430
    18.0791  18.0907  18.1555  18.1650  18.2071  18.2423  18.2843  18.2976
    18.3494  18.4050  18.4139  18.4392  18.4527  18.4914  18.5953  18.6161
    18.6354  18.6682  18.6844  18.7244

          k = 0.0000 0.0000 0.0469 ( 52606 PWs)   bands (ev):

   -25.3428 -25.3403 -23.4449 -23.4347 -20.1886 -20.1510 -20.0467 -19.8845
   -19.6680 -19.4014 -19.0839 -18.7184 -18.3048 -17.8416 -17.3441 -16.8309
   -16.7366 -16.7245 -16.6214 -16.4919 -16.2940 -16.2532 -16.0396 -15.8181
   -15.6431 -15.4817 -15.1470 -15.1311 -14.7736 -14.7443 -13.7086 -13.6171
   -13.4920 -13.2591 -13.1128 -12.7830 -12.6572 -12.3179 -12.2291 -12.2069
   -12.1550 -12.0897 -12.0116 -11.8930 -11.8612 -11.7430 -11.3876 -11.0753
   -11.0366 -10.8724 -10.4459 -10.2975 -10.2275 -10.0277  -9.9480  -9.8507
    -9.6299  -9.4335  -9.3965  -9.1865  -8.9588  -8.8850  -8.7085  -8.5219
    -8.4979  -8.3807  -8.2550  -8.1976  -8.1521  -8.0760  -7.9791  -7.9235
    -7.8534  -7.6358  -7.6208  -7.5776  -7.5407  -7.3238  -7.2893  -7.2439
    -7.0465  -6.9791  -6.8747  -6.6884  -6.5708  -6.3862  -6.3233  -6.1443
    -6.0403  -5.8947  -5.7205  -5.6724  -5.5281  -5.4549  -5.3049  -5.2070
    -5.1799  -5.0853  -4.9404  -4.8829  -4.7169  -4.6733  -4.5323  -4.3444
    -4.2780  -4.1511  -4.1353  -3.9575  -3.7157  -3.5967  -3.4285  -3.1408
    -3.0471  -2.8057  -2.6098  -2.5056  -2.2968  -2.2743   0.4558   0.4692
     0.6657   0.7464   0.9640   1.2109   1.2640   1.5299   1.6082   1.7756
     1.8045   1.8598   1.9819   2.1269   2.2245   2.2837   2.4320   2.4444
     2.5342   2.5909   2.8661   2.9259   3.0879   3.2320   3.3400   3.3860
     3.5286   3.6360   3.7307   3.8765   4.0577   4.1374   4.1811   4.2090
     4.2445   4.4469   4.5192   4.5717   4.7838   4.9486   5.0324   5.0623
     5.0733   5.1417   5.1745   5.2466   5.3789   5.4697   5.6020   5.7457
     5.8006   5.8638   5.9351   6.0352   6.1411   6.1905   6.1989   6.2802
     6.4718   6.5082   6.6204   6.6687   6.6903   6.7095   6.8444   6.9164
     7.0982   7.1493   7.2027   7.2413   7.3081   7.3435   7.3550   7.3667
     7.3955   7.4013   7.4330   7.4760   7.5015   7.5360   7.5513   7.5692
     7.5983   7.6053   7.6255   7.6304   7.6918   7.7873   7.7995   7.8912
     7.8942   7.9703   8.0227   8.0454   8.1240   8.1440   8.1816   8.2171
     8.2632   8.3269   8.3767   8.4211   8.5008   8.5242   8.5410   8.5968
     8.6291   8.6451   8.6964   8.7525   8.7821   8.8157   8.8689   8.8879
     8.9162   8.9235   8.9813   9.0112   9.0325   9.0885   9.1184   9.1618
     9.2006   9.3109   9.3441   9.3896   9.4206   9.4503   9.4993   9.5727
     9.6396   9.6858   9.6928   9.7034   9.7462   9.7512   9.8545   9.9091
     9.9206   9.9282   9.9399   9.9447   9.9578   9.9915  10.0165  10.0687
    10.1095  10.1293  10.1579  10.1827  10.2357  10.2398  10.2916  10.2992
    10.3438  10.4113  10.4805  10.4946  10.5490  10.6106  10.6342  10.7117
    10.7309  10.8390  10.8577  10.9473  10.9522  11.0016  11.0368  11.0803
    11.1024  11.2178  11.2770  11.3487  11.3958  11.5041  11.5382  11.5446
    11.5524  11.6518  11.6733  11.7458  11.7558  11.8247  11.8507  11.8912
    11.9366  11.9500  11.9732  12.0540  12.0711  12.0873  12.1929  12.2128
    12.2275  12.2355  12.2498  12.2536  12.2944  12.3502  12.3845  12.3981
    12.4058  12.4186  12.4385  12.4776  12.5064  12.5175  12.5467  12.5913
    12.6533  12.6961  12.7383  12.7512  12.7978  12.8100  12.8662  12.8760
    12.9049  12.9115  12.9533  12.9973  13.0495  13.0771  13.0822  13.1095
    13.1429  13.1874  13.2067  13.2509  13.2734  13.3350  13.3655  13.3753
    13.4085  13.4236  13.4540  13.4759  13.5043  13.5328  13.5426  13.5764
    13.6464  13.7217  13.7289  13.8022  13.8416  13.9104  13.9809  14.0130
    14.0971  14.1609  14.1909  14.2135  14.2410  14.2873  14.4456  14.5276
    14.5455  14.5764  14.6298  14.6570  14.7193  14.7749  14.8519  14.9133
    14.9386  14.9769  15.0526  15.0907  15.1417  15.1641  15.1947  15.1961
    15.2284  15.2618  15.3176  15.3287  15.3481  15.3842  15.4544  15.4744
    15.4824  15.5071  15.5392  15.5671  15.5721  15.6185  15.6355  15.6601
    15.6721  15.7337  15.7560  15.8267  15.8741  15.9085  15.9194  15.9703
    16.0144  16.0285  16.0840  16.1052  16.1594  16.1737  16.2292  16.2516
    16.2944  16.3139  16.3755  16.3919  16.4214  16.4326  16.5348  16.5679
    16.5916  16.6118  16.6496  16.6739  16.6805  16.7502  16.7576  16.7718
    16.7861  16.8050  16.8443  16.8997  16.9740  17.0114  17.0728  17.0830
    17.0998  17.1206  17.1872  17.2560  17.2725  17.2806  17.3047  17.3404
    17.3552  17.4159  17.4318  17.4438  17.4481  17.4876  17.5119  17.5186
    17.5526  17.5676  17.6159  17.6273  17.6696  17.6982  17.7238  17.7600
    17.8192  17.8295  17.8733  17.8994  17.9039  17.9285  17.9796  18.0452
    18.1054  18.1721  18.1802  18.2447  18.2711  18.3345  18.3543  18.3647
    18.3967  18.4600  18.4703  18.4837  18.5173  18.5346  18.5950  18.6413
    18.7232  18.7259  18.7462  18.7907

          k = 0.0000 0.0000 0.0516 ( 52616 PWs)   bands (ev):

   -25.3145 -25.3121 -23.4904 -23.4805 -20.1390 -20.1017 -19.9974 -19.8354
   -19.6191 -19.3527 -19.0355 -18.6704 -18.2572 -17.7948 -17.2995 -16.9250
   -16.8964 -16.8226 -16.7415 -16.6557 -16.4551 -16.2706 -16.1522 -15.9519
   -15.6429 -15.6192 -15.2623 -15.1538 -14.8771 -14.7947 -13.7261 -13.6012
   -13.5324 -13.2856 -13.1265 -12.8181 -12.6630 -12.3035 -12.1938 -11.9807
   -11.9648 -11.8712 -11.8420 -11.7588 -11.6982 -11.6724 -11.4322 -11.0261
   -10.9482 -10.9128 -10.5114 -10.1696 -10.0973 -10.0258  -9.8560  -9.7511
    -9.6021  -9.4081  -9.3141  -9.1338  -8.9568  -8.8344  -8.6385  -8.5062
    -8.4578  -8.3075  -8.2397  -8.1595  -8.1092  -8.0288  -7.9094  -7.8854
    -7.7983  -7.6737  -7.5754  -7.5541  -7.4948  -7.2719  -7.2377  -7.1965
    -7.0914  -6.9405  -6.8701  -6.6782  -6.5312  -6.4304  -6.3476  -6.1160
    -6.0617  -5.9601  -5.7492  -5.6555  -5.6111  -5.5017  -5.3547  -5.3080
    -5.2186  -5.1249  -5.0944  -4.9933  -4.8158  -4.6402  -4.6182  -4.5160
    -4.4486  -4.3172  -4.1280  -4.1055  -3.8855  -3.6184  -3.5565  -3.2949
    -3.0649  -2.9658  -2.6608  -2.6515  -2.3959  -2.3830   0.5186   0.5583
     0.7425   0.8059   1.1270   1.1683   1.4442   1.6433   1.7384   1.7622
     1.9109   2.0061   2.2075   2.3552   2.3781   2.4657   2.5001   2.5290
     2.5959   2.6583   2.9325   2.9521   3.0781   3.2667   3.4029   3.4519
     3.5929   3.6553   3.7360   3.8924   4.1247   4.1866   4.2445   4.2748
     4.3030   4.4212   4.5848   4.6362   4.7933   4.9479   5.0940   5.1192
     5.1378   5.2018   5.2376   5.2535   5.4386   5.5247   5.5972   5.7835
     5.8179   5.8637   5.9374   6.0103   6.0985   6.1989   6.2079   6.2368
     6.4511   6.5467   6.6287   6.6809   6.7169   6.7356   6.8385   6.9028
     6.9910   7.0721   7.0829   7.1493   7.1896   7.2468   7.2597   7.3119
     7.3342   7.3579   7.3829   7.4162   7.4366   7.4645   7.4868   7.5253
     7.5481   7.5990   7.6284   7.6490   7.6638   7.6957   7.7331   7.7601
     7.8105   7.8817   7.9475   7.9751   7.9999   8.0466   8.0781   8.2011
     8.2315   8.2721   8.2932   8.3157   8.3368   8.3991   8.5317   8.5694
     8.5937   8.6373   8.6662   8.6772   8.6912   8.7121   8.7381   8.7542
     8.8101   8.8680   8.8833   8.9226   8.9334   8.9437   8.9969   9.0349
     9.0516   9.1607   9.2338   9.2434   9.2990   9.3300   9.3952   9.4609
     9.5348   9.5640   9.6168   9.6346   9.7012   9.7280   9.7462   9.7606
     9.7900   9.8054   9.8569   9.9002   9.9760   9.9851   9.9947  10.0134
    10.0609  10.0715  10.0979  10.1373  10.1777  10.2064  10.2456  10.2821
    10.3122  10.3684  10.4058  10.4472  10.5332  10.5831  10.6200  10.6486
    10.6777  10.7900  10.8054  10.8774  10.9064  10.9245  10.9858  11.0218
    11.0281  11.1714  11.2646  11.2782  11.3317  11.4207  11.4535  11.5184
    11.5675  11.6393  11.6658  11.7314  11.7854  11.8085  11.8320  11.8477
    11.9103  11.9467  11.9615  11.9952  12.0208  12.0691  12.0992  12.1222
    12.2048  12.2156  12.2290  12.2935  12.3350  12.3443  12.3612  12.3984
    12.4226  12.4386  12.4464  12.4696  12.5084  12.5330  12.5537  12.6288
    12.6347  12.6744  12.7233  12.7359  12.7975  12.8602  12.8784  12.9303
    12.9576  12.9750  12.9859  13.0056  13.0315  13.0418  13.0463  13.1035
    13.1239  13.1467  13.1805  13.2626  13.2933  13.3055  13.4391  13.4831
    13.4904  13.5300  13.5804  13.6230  13.6437  13.6580  13.6625  13.7121
    13.7181  13.7270  13.7710  13.8272  13.9197  13.9529  13.9688  14.0107
    14.0687  14.0896  14.1499  14.1759  14.2272  14.3294  14.4666  14.4947
    14.5711  14.5887  14.6599  14.7476  14.7851  14.8251  14.9201  14.9772
    15.0470  15.0579  15.0909  15.1370  15.1983  15.2025  15.2269  15.2437
    15.2846  15.3154  15.3376  15.4051  15.4183  15.4817  15.5186  15.5321
    15.5779  15.6173  15.6298  15.6577  15.6635  15.6922  15.7102  15.7439
    15.7848  15.8294  15.8566  15.8684  15.9022  15.9336  15.9682  16.0324
    16.0548  16.0976  16.1140  16.1229  16.1574  16.2235  16.2371  16.2507
    16.2601  16.2743  16.4028  16.4077  16.4577  16.4739  16.4841  16.5369
    16.5720  16.6151  16.6411  16.6767  16.6896  16.7266  16.7749  16.8105
    16.8272  16.8390  16.9130  16.9669  17.0050  17.0782  17.0927  17.1273
    17.1653  17.2111  17.2318  17.2655  17.2868  17.3279  17.3495  17.3823
    17.4280  17.4482  17.4537  17.4912  17.5161  17.5329  17.5493  17.5563
    17.5650  17.5989  17.6619  17.6748  17.7276  17.7656  17.7945  17.8068
    17.8213  17.8747  17.8924  17.9286  17.9821  18.0134  18.1331  18.1491
    18.1545  18.2182  18.2441  18.2804  18.3595  18.3718  18.3897  18.4218
    18.4523  18.5095  18.5310  18.5552  18.5800  18.6124  18.6606  18.7533
    18.7626  18.7893  18.8106  18.8199

          k = 0.0000 0.0000 0.0563 ( 52652 PWs)   bands (ev):

   -25.2841 -25.2818 -23.5382 -23.5286 -20.0848 -20.0476 -19.9435 -19.7816
   -19.5656 -19.2995 -18.9826 -18.6179 -18.2053 -17.7440 -17.2541 -17.0911
   -17.0606 -16.9736 -16.8221 -16.7264 -16.6045 -16.3963 -16.1491 -16.0995
   -15.7703 -15.6192 -15.3897 -15.1768 -14.9656 -14.8534 -13.7505 -13.6209
   -13.5528 -13.2891 -13.1567 -12.8220 -12.6958 -12.2977 -12.2122 -11.8323
   -11.7468 -11.7228 -11.6609 -11.6419 -11.5102 -11.4747 -11.4163 -11.0790
   -10.8626 -10.8451 -10.5874 -10.1713  -9.9641  -9.9278  -9.7630  -9.6756
    -9.5617  -9.3203  -9.2608  -9.1098  -8.9009  -8.7825  -8.5790  -8.4989
    -8.4022  -8.2751  -8.1797  -8.1024  -8.0478  -7.9693  -7.8735  -7.8389
    -7.7384  -7.7252  -7.5137  -7.4992  -7.4437  -7.2337  -7.1823  -7.1645
    -7.1401  -6.9026  -6.8364  -6.6914  -6.5075  -6.4745  -6.3565  -6.1387
    -6.0601  -6.0130  -5.8118  -5.7103  -5.6154  -5.5575  -5.4425  -5.4022
    -5.3103  -5.2548  -5.1164  -5.0829  -4.9185  -4.7198  -4.6882  -4.6201
    -4.5912  -4.4876  -4.2977  -4.0779  -4.0477  -3.7762  -3.5478  -3.4600
    -3.1284  -3.0728  -2.8029  -2.7118  -2.5089  -2.4700   0.5711   0.6535
     0.7486   0.9418   1.1274   1.2896   1.6261   1.6368   1.7681   1.9465
     1.9858   2.2184   2.2935   2.4381   2.5742   2.6038   2.6689   2.7138
     2.7311   2.7819   2.9101   3.0060   3.1169   3.3278   3.4717   3.5227
     3.5984   3.6657   3.7821   3.9466   4.1978   4.2120   4.3129   4.3461
     4.3686   4.4041   4.6559   4.7065   4.8233   4.9186   5.1597   5.1787
     5.2079   5.2565   5.2952   5.3065   5.4963   5.5710   5.5895   5.6966
     5.8225   5.8827   5.9338   6.0287   6.0426   6.2303   6.2393   6.2647
     6.4141   6.5634   6.6060   6.6916   6.7136   6.7699   6.8101   6.8422
     6.9039   6.9454   6.9703   6.9891   7.0862   7.1668   7.1971   7.2133
     7.2270   7.2890   7.2983   7.3681   7.3842   7.4050   7.4502   7.4694
     7.5259   7.5950   7.6062   7.6197   7.6465   7.6626   7.6994   7.7120
     7.7446   7.7946   7.8077   7.8914   7.9243   7.9916   8.0372   8.0788
     8.1004   8.1807   8.2167   8.2557   8.3184   8.3273   8.3775   8.4235
     8.4384   8.4679   8.5272   8.5956   8.6264   8.6968   8.7142   8.7365
     8.7473   8.7930   8.8245   8.8499   8.8940   8.9026   8.9321   8.9750
     8.9863   9.0476   9.0861   9.1451   9.1618   9.1855   9.2985   9.3648
     9.3762   9.4388   9.4550   9.4893   9.5474   9.5877   9.6041   9.6489
     9.7056   9.7488   9.8138   9.8400   9.8669   9.9425   9.9981  10.0268
    10.0450  10.0622  10.0823  10.0969  10.1435  10.2053  10.2189  10.2594
    10.3004  10.3238  10.3573  10.4276  10.4298  10.5624  10.5853  10.6114
    10.6282  10.7088  10.7469  10.8165  10.8341  10.8996  10.9280  11.0379
    11.0597  11.1182  11.1648  11.2402  11.3192  11.3810  11.4201  11.5127
    11.5515  11.5923  11.6440  11.6539  11.6651  11.7406  11.7800  11.8343
    11.8986  11.9066  11.9139  11.9334  12.0344  12.0615  12.0712  12.1418
    12.1858  12.2047  12.2261  12.2670  12.3446  12.3527  12.3870  12.3945
    12.4066  12.4456  12.4576  12.5027  12.5118  12.5437  12.5729  12.6218
    12.6704  12.6832  12.7127  12.7321  12.7695  12.8054  12.8192  12.8648
    12.8967  12.9122  12.9825  12.9995  13.0340  13.0770  13.0958  13.1049
    13.1210  13.1808  13.2051  13.3029  13.3150  13.3603  13.4015  13.5238
    13.5582  13.5644  13.6154  13.6494  13.7293  13.7419  13.7667  13.8155
    13.8214  13.8410  13.8948  13.9000  13.9310  13.9629  13.9792  14.0084
    14.0502  14.0852  14.1381  14.2142  14.3392  14.3996  14.4737  14.4972
    14.5985  14.6633  14.6974  14.8031  14.8357  14.8562  14.8940  14.9168
    15.0006  15.0514  15.1090  15.1303  15.2152  15.2506  15.2964  15.3375
    15.3732  15.4047  15.4615  15.4907  15.5074  15.5347  15.5778  15.6037
    15.6192  15.6770  15.6879  15.7495  15.7558  15.7872  15.7960  15.8360
    15.8392  15.8502  15.8850  15.9139  15.9377  15.9587  15.9862  16.0050
    16.0733  16.0929  16.1269  16.1384  16.1665  16.2160  16.2248  16.3039
    16.3355  16.3724  16.3827  16.4251  16.4639  16.5068  16.5491  16.5579
    16.6170  16.6212  16.6955  16.7190  16.7446  16.7690  16.8281  16.8545
    16.8688  16.8896  16.9097  16.9529  16.9837  17.0856  17.1164  17.1389
    17.1727  17.2266  17.2457  17.2896  17.3199  17.3941  17.4287  17.4657
    17.4990  17.5295  17.5402  17.5670  17.5751  17.5804  17.6112  17.7088
    17.7164  17.7342  17.7363  17.7747  17.8010  17.8130  17.8472  17.8509
    17.8851  17.9051  17.9417  17.9641  18.0277  18.1018  18.1660  18.1832
    18.2943  18.3318  18.3389  18.3585  18.3966  18.4151  18.4373  18.4535
    18.5473  18.5801  18.6171  18.6272  18.6413  18.6545  18.7620  18.7932
    18.8193  18.8231  18.8345  18.8627

          k = 0.0000 0.0000 0.0610 ( 52636 PWs)   bands (ev):

   -25.2519 -25.2497 -23.5878 -23.5786 -20.0259 -19.9889 -19.8850 -19.7233
   -19.5075 -19.2417 -18.9252 -18.5610 -18.1491 -17.6895 -17.2602 -17.2502
   -17.1774 -17.1340 -16.9804 -16.8028 -16.6431 -16.5473 -16.2548 -16.1120
   -15.9095 -15.6345 -15.4790 -15.2422 -15.0162 -14.9235 -13.7673 -13.6997
   -13.5189 -13.3302 -13.1525 -12.8284 -12.7243 -12.2899 -12.2442 -11.7866
   -11.7336 -11.4879 -11.4553 -11.4163 -11.3579 -11.2775 -11.2719 -11.1295
   -10.8075 -10.7626 -10.6330 -10.2369  -9.8674  -9.8000  -9.7014  -9.5674
    -9.4700  -9.2619  -9.2204  -9.0303  -8.8389  -8.7388  -8.5391  -8.4762
    -8.3245  -8.2421  -8.0993  -8.0381  -7.9813  -7.9185  -7.8922  -7.7770
    -7.7117  -7.6715  -7.4567  -7.4377  -7.3890  -7.2854  -7.1508  -7.1240
    -7.0861  -6.8748  -6.8097  -6.7196  -6.5262  -6.4886  -6.3458  -6.1904
    -6.1337  -5.9775  -5.8886  -5.8211  -5.6378  -5.6012  -5.5574  -5.4704
    -5.4378  -5.3704  -5.2195  -5.0587  -5.0105  -4.8635  -4.8173  -4.7903
    -4.6568  -4.5447  -4.4665  -4.2260  -4.0307  -3.9426  -3.6255  -3.5295
    -3.2848  -3.0946  -2.9372  -2.7852  -2.6054  -2.5577   0.6267   0.7082
     0.7988   1.0403   1.1240   1.4494   1.5768   1.8073   1.8422   2.0489
     2.1468   2.2264   2.4373   2.6539   2.6712   2.7491   2.7941   2.8485
     2.8499   2.9693   3.0410   3.0861   3.1874   3.4005   3.5032   3.5500
     3.6059   3.7434   3.8467   4.0152   4.1806   4.2779   4.3863   4.4205
     4.4361   4.4404   4.7307   4.7822   4.8546   4.8803   5.2237   5.2386
     5.2814   5.3089   5.3629   5.3764   5.5098   5.5377   5.5848   5.6568
     5.7862   5.8600   5.9904   6.0485   6.0667   6.2558   6.2671   6.3100
     6.3913   6.4735   6.5588   6.6067   6.6281   6.7462   6.7718   6.8310
     6.8545   6.8742   6.8845   6.9541   6.9767   7.0705   7.0861   7.0930
     7.1553   7.1910   7.2258   7.2785   7.3180   7.3844   7.3924   7.4336
     7.4527   7.5248   7.5340   7.5743   7.5984   7.6379   7.6790   7.6882
     7.7511   7.7682   7.7967   7.8595   7.8691   7.8870   7.9223   7.9824
     8.0256   8.0720   8.1199   8.1845   8.1905   8.2184   8.2424   8.2586
     8.3083   8.3719   8.4505   8.4601   8.5002   8.5699   8.6038   8.6382
     8.7226   8.7628   8.7835   8.8442   8.8554   8.8783   8.9095   8.9474
     8.9650   9.0117   9.0507   9.0743   9.1011   9.1386   9.1832   9.1893
     9.2046   9.2279   9.2812   9.3470   9.4224   9.4598   9.4744   9.5318
     9.5648   9.6758   9.7066   9.7621   9.8613   9.8839   9.9203   9.9744
    10.0261  10.0935  10.1112  10.1300  10.1458  10.1505  10.1637  10.2109
    10.2682  10.3221  10.3476  10.3831  10.4366  10.4536  10.5207  10.5570
    10.6113  10.6447  10.7200  10.7759  10.8268  10.8453  10.8837  11.0268
    11.0645  11.1224  11.1683  11.1982  11.3281  11.3646  11.3931  11.4438
    11.4645  11.5151  11.5257  11.5521  11.6278  11.6521  11.7431  11.7635
    11.7868  11.8427  11.9322  11.9752  12.0703  12.1023  12.1120  12.1628
    12.1703  12.2065  12.2472  12.2676  12.2830  12.3078  12.3683  12.3947
    12.4270  12.4475  12.4877  12.5076  12.5656  12.5835  12.5965  12.6059
    12.6128  12.6258  12.6450  12.6708  12.6900  12.7556  12.8022  12.8390
    12.8678  12.8870  13.0154  13.0419  13.0523  13.0888  13.1142  13.1485
    13.1559  13.1643  13.2142  13.2786  13.3821  13.4016  13.4143  13.4626
    13.6009  13.6096  13.6175  13.6478  13.6899  13.7338  13.7661  13.7767
    13.8378  13.8615  13.9517  13.9824  14.0366  14.0455  14.0580  14.1413
    14.1585  14.1649  14.2259  14.3038  14.4374  14.4712  14.5049  14.5402
    14.6056  14.6697  14.7610  14.7730  14.8283  14.8766  14.8943  14.9212
    14.9550  15.0200  15.0837  15.1771  15.2540  15.2988  15.3128  15.3548
    15.3798  15.4897  15.5128  15.5308  15.5853  15.6078  15.6285  15.6395
    15.6660  15.6881  15.7026  15.7265  15.7630  15.7875  15.8212  15.8337
    15.8552  15.8781  15.9175  15.9452  15.9478  15.9882  16.0276  16.0599
    16.1152  16.1585  16.1908  16.1982  16.2273  16.2672  16.2841  16.3752
    16.3891  16.4000  16.4438  16.4968  16.5073  16.5230  16.5508  16.5826
    16.6076  16.6520  16.6801  16.7863  16.8000  16.8539  16.8602  16.9158
    16.9436  16.9676  16.9932  17.0142  17.0610  17.1152  17.1269  17.2025
    17.2475  17.2499  17.2956  17.3080  17.3284  17.4580  17.4968  17.5245
    17.5368  17.5525  17.5745  17.5958  17.6167  17.6439  17.7435  17.7583
    17.7890  17.8083  17.8273  17.8571  17.8834  17.9109  17.9324  18.0124
    18.0300  18.0461  18.0644  18.0969  18.1527  18.1734  18.2290  18.2511
    18.3385  18.3555  18.4128  18.4274  18.4627  18.5189  18.5343  18.5394
    18.5949  18.6202  18.6536  18.6798  18.7102  18.7305  18.7496  18.8117
    18.8348  18.8474  18.8612  18.8827

          k = 0.0000 0.0000 0.0657 ( 52626 PWs)   bands (ev):

   -25.2181 -25.2159 -23.6387 -23.6298 -19.9623 -19.9256 -19.8218 -19.6603
   -19.4448 -19.1794 -18.8633 -18.4997 -18.0889 -17.6330 -17.4191 -17.3977
   -17.2961 -17.1778 -17.0965 -16.9516 -16.7032 -16.5994 -16.3997 -16.1221
   -15.9980 -15.7312 -15.4840 -15.3444 -15.0368 -15.0042 -13.7948 -13.7542
   -13.5035 -13.3819 -13.1269 -12.8652 -12.7186 -12.2983 -12.2650 -11.7821
   -11.7330 -11.3420 -11.2662 -11.2074 -11.1792 -11.1444 -11.0603 -11.0262
   -10.8306 -10.6975 -10.6000 -10.2911  -9.9086  -9.6383  -9.5607  -9.4624
    -9.4191  -9.2006  -9.1226  -8.9413  -8.8077  -8.6842  -8.4775  -8.4475
    -8.2377  -8.1927  -8.0394  -7.9733  -7.9546  -7.8975  -7.8240  -7.7181
    -7.6601  -7.6016  -7.4299  -7.3722  -7.3551  -7.3216  -7.1090  -7.0648
    -7.0260  -6.8902  -6.8105  -6.7121  -6.5560  -6.5130  -6.3299  -6.2384
    -6.2201  -6.0042  -5.9487  -5.8984  -5.7592  -5.7246  -5.6311  -5.5784
    -5.4722  -5.4433  -5.3194  -5.1430  -5.0350  -4.9851  -4.9584  -4.9197
    -4.8229  -4.6333  -4.4943  -4.3916  -4.1078  -3.9927  -3.7858  -3.5290
    -3.4215  -3.1635  -3.0242  -2.8802  -2.6812  -2.6452   0.6850   0.7231
[...]
     4.5457   4.5977   4.6476   4.7056   4.7246   4.7797   4.8191   4.8334
     4.9218   5.0362   5.0848   5.1310   5.1996   5.2694   5.3178   5.3582
     5.3757   5.4087   5.4196   5.4388   5.4665   5.4829   5.5401   5.5775
     5.7223   5.7312   5.7653   5.7712   5.8828   6.0451   6.0846   6.1142
     6.1965   6.2598   6.2723   6.3320   6.3347   6.3540   6.3755   6.3954
     6.4127   6.4571   6.4792   6.5680   6.6155   6.6241   6.6313   6.6389
     6.6782   6.7271   6.7477   6.7715   6.8122   6.8693   6.8791   6.9368
     6.9505   6.9749   7.0185   7.0360   7.0549   7.0834   7.1450   7.1591
     7.1834   7.2078   7.2460   7.2515   7.3201   7.3391   7.3499   7.3862
     7.4293   7.4584   7.4889   7.5412   7.5794   7.6022   7.6319   7.6902
     7.7087   7.7664   7.8334   7.8442   7.9130   7.9270   7.9581   7.9939
     8.0662   8.0828   8.1179   8.1778   8.2283   8.3321   8.3565   8.4109
     8.4815   8.4945   8.5603   8.6341   8.6561   8.7001   8.7119   8.7938
     8.8078   8.8551   8.8809   8.9023   8.9523   8.9853   9.1663   9.1986
     9.2610   9.2903   9.3276   9.5064   9.5607   9.6114   9.6666   9.6730
     9.6888   9.8165   9.8340   9.8690   9.9072   9.9281   9.9716  10.0179
    10.0647  10.0915  10.1159  10.2257  10.2582  10.3669  10.4370  10.4978
    10.5471  10.6920  10.7473  10.7708  10.8051  10.8355  10.8674  10.9121
    10.9406  10.9636  10.9829  11.0681  11.0842  11.0913  11.1395  11.2112
    11.2436  11.2883  11.3188  11.3334  11.3471  11.3722  11.3880  11.5498
    11.6423  11.7301  11.7684  11.8400  11.8457  11.8683  11.8932  11.9608
    11.9752  11.9860  12.0493  12.0954  12.0984  12.1400  12.1582  12.2269
    12.2485  12.2901  12.3181  12.3316  12.3570  12.4262  12.4581  12.4875
    12.5165  12.5919  12.6715  12.7000  12.7392  12.8054  12.8448  12.9168
    12.9397  12.9706  12.9966  13.0426  13.0755  13.0945  13.1159  13.1290
    13.2164  13.2293  13.2816  13.3865  13.4012  13.4434  13.4682  13.5184
    13.5575  13.6291  13.6555  13.6865  13.7528  13.7600  13.7994  13.8034
    13.8626  13.9226  13.9496  14.0014  14.0472  14.0669  14.0988  14.2242
    14.2464  14.3122  14.3886  14.3999  14.4170  14.5246  14.5457  14.5590
    14.5952  14.6924  14.8012  14.8218  14.9089  14.9347  14.9653  14.9957
    15.0303  15.0448  15.1351  15.1643  15.1791  15.2124  15.2367  15.2528
    15.2775  15.3004  15.3711  15.3830  15.4822  15.5041  15.5440  15.6026
    15.6344  15.6919  15.7261  15.8077  15.8315  15.8363  15.9061  15.9283
    15.9479  15.9769  16.0588  16.1046  16.1545  16.2303  16.2483  16.2830
    16.3206  16.3446  16.3647  16.4345  16.4775  16.4846  16.5912  16.6017
    16.6889  16.7819  16.8070  16.8546  16.8766  16.9225  16.9455  17.0364
    17.0624  17.0825  17.1337  17.1893  17.2123  17.2354  17.3256  17.3360
    17.3715  17.4371  17.4480  17.4755  17.4797  17.5161  17.5373  17.5446
    17.5669  17.5932  17.6072  17.6281  17.6376  17.6773  17.7593  17.7889
    17.8123  17.8937  17.9259  17.9496  17.9927  17.9998  18.0643  18.1222
    18.1794  18.2065  18.2478  18.2928  18.3796  18.4085  18.4395  18.4610
    18.4869  18.5195  18.5851  18.6064  18.6700  18.7208  18.7507  18.7825
    18.8263  18.8498  18.9196  18.9579  19.0220  19.0551  19.0984  19.1296
    19.2065  19.2933  19.3875  19.4212  19.4285  19.4904  19.5020  19.5675
    19.5946  19.6430  19.6550  19.7295

          k = 0.0000 0.0000 0.1080 ( 52658 PWs)   bands (ev):

   -24.9326 -24.9309 -24.0288 -24.0217 -19.1834 -19.1506 -19.0494 -18.8933
   -18.7203 -18.7074 -18.6589 -18.5879 -18.4327 -18.4073 -18.2144 -18.1050
   -17.9518 -17.7526 -17.6379 -17.3583 -17.2728 -16.9308 -16.8494 -16.4790
   -16.3777 -16.0125 -15.8822 -15.5643 -15.4127 -15.2487 -14.0796 -13.9288
   -13.7155 -13.4531 -13.1731 -12.9120 -12.6292 -12.3619 -12.1609 -11.8168
   -11.6991 -11.3648 -11.2750 -11.1488 -10.9725 -10.6387 -10.3673 -10.0283
    -9.7390  -9.4563  -9.2041  -9.0502  -8.9457  -8.8830  -8.8541  -8.8442
    -8.5640  -8.3420  -8.2500  -8.0875  -8.0051  -7.9727  -7.8944  -7.8725
    -7.8613  -7.8080  -7.7773  -7.7439  -7.6442  -7.5894  -7.4911  -7.4624
    -7.4175  -7.3718  -7.3320  -7.2975  -7.2545  -7.2281  -7.2127  -7.2021
    -7.1499  -7.0513  -7.0328  -6.9999  -6.9289  -6.8896  -6.7488  -6.6511
    -6.6086  -6.5758  -6.5030  -6.4757  -6.3834  -6.3684  -6.2999  -6.2351
    -6.1783  -6.1550  -6.0078  -5.9200  -5.8923  -5.7736  -5.6550  -5.4830
    -5.3756  -5.1302  -5.0583  -4.7459  -4.6975  -4.3595  -4.2848  -3.9775
    -3.8568  -3.6239  -3.4674  -3.3475  -3.0905  -3.0639   0.8437   0.9169
     1.0470   1.2627   1.4256   1.7691   1.9055   2.3501   2.4383   2.8645
     3.0096   3.0498   3.1511   3.5181   3.5963   3.7384   3.8071   3.8264
     3.9106   3.9700   4.0646   4.2117   4.2200   4.3825   4.4490   4.5102
     4.5243   4.5961   4.6013   4.6951   4.7458   4.7834   4.8560   4.9004
     4.9452   5.0274   5.0495   5.1144   5.2628   5.2791   5.3444   5.3829
     5.4178   5.4263   5.5185   5.5368   5.5598   5.5659   5.5791   5.6212
     5.6583   5.7059   5.7887   5.8784   5.9016   5.9484   6.0190   6.1008
     6.1526   6.1577   6.2304   6.2558   6.3071   6.3239   6.3908   6.4281
     6.4416   6.4570   6.4889   6.5143   6.5364   6.5897   6.6080   6.6274
     6.6860   6.6946   6.6990   6.7289   6.7563   6.8480   6.8503   6.8889
     6.8974   6.9073   6.9585   7.0036   7.0412   7.0544   7.0587   7.1207
     7.1293   7.1766   7.2057   7.2170   7.2659   7.3064   7.3198   7.3716
     7.4156   7.4401   7.4584   7.4970   7.5397   7.5689   7.6073   7.6482
     7.6830   7.7277   7.8124   7.8398   7.9064   7.9242   7.9362   7.9793
     8.0282   8.0570   8.1398   8.1855   8.1873   8.2319   8.2915   8.4325
     8.4653   8.5017   8.5269   8.6070   8.6542   8.6762   8.6996   8.7341
     8.7763   8.8856   8.9206   8.9571   8.9811   9.0152   9.0781   9.2137
     9.2366   9.3222   9.3603   9.4627   9.4912   9.5268   9.5375   9.6197
     9.6291   9.8147   9.8620   9.9058   9.9213   9.9324   9.9808  10.0524
    10.0804  10.1138  10.1777  10.2155  10.2457  10.3353  10.3922  10.5075
    10.5908  10.6052  10.6342  10.6565  10.7430  10.7638  10.8218  10.8407
    10.9726  11.0111  11.0263  11.0439  11.0760  11.1855  11.2133  11.2167
    11.3525  11.3822  11.4034  11.4383  11.4470  11.4845  11.5113  11.5754
    11.6939  11.7140  11.7247  11.7392  11.7651  11.8271  11.8363  11.8657
    11.9019  11.9262  11.9622  12.0307  12.0685  12.1010  12.1418  12.1587
    12.1832  12.2193  12.3056  12.3210  12.3339  12.3628  12.4103  12.4904
    12.5426  12.6317  12.6856  12.7418  12.7705  12.8017  12.8784  12.9405
    12.9787  13.0044  13.0258  13.0490  13.0635  13.1477  13.1524  13.1946
    13.2138  13.2659  13.3097  13.3330  13.3571  13.4514  13.5081  13.5443
    13.5745  13.6070  13.6529  13.6881  13.7016  13.7323  13.7656  13.7832
    13.8376  13.8564  13.8914  13.9166  14.0610  14.1067  14.1185  14.1756
    14.1818  14.2646  14.3274  14.4262  14.4440  14.4984  14.5292  14.5505
    14.5621  14.6636  14.8275  14.8299  14.9555  14.9640  14.9824  15.0067
    15.0313  15.0713  15.1274  15.1677  15.1782  15.1961  15.2303  15.2436
    15.2852  15.3754  15.3888  15.4114  15.4503  15.5322  15.5775  15.5959
    15.6529  15.6796  15.7609  15.7959  15.8775  15.8967  15.9084  15.9448
    15.9838  15.9997  16.0638  16.1380  16.1631  16.1824  16.2518  16.2822
    16.3579  16.4089  16.4285  16.4372  16.4951  16.5254  16.5660  16.6564
    16.6867  16.7029  16.7162  16.8597  16.9054  16.9242  16.9502  16.9769
    17.0333  17.1068  17.1337  17.1681  17.1747  17.2679  17.3031  17.3376
    17.3650  17.4114  17.4247  17.4343  17.4462  17.5101  17.5395  17.5507
    17.5649  17.6041  17.6274  17.6716  17.6894  17.7339  17.7676  17.7952
    17.8664  17.8691  17.8992  17.9505  17.9904  17.9936  18.0490  18.0907
    18.1339  18.1529  18.2096  18.2852  18.3467  18.3720  18.4228  18.4444
    18.4768  18.5060  18.5529  18.6143  18.6204  18.6721  18.7010  18.7663
    18.8868  18.9102  18.9234  18.9537  19.0344  19.0502  19.1181  19.1551
    19.2717  19.3559  19.4029  19.4249  19.5118  19.5540  19.5806  19.6021
    19.6333  19.7734  19.8023  19.8538

          k = 0.0000 0.0000 0.1127 ( 52682 PWs)   bands (ev):

   -24.9202 -24.9185 -24.0442 -24.0371 -19.0747 -19.0432 -18.9439 -18.8449
   -18.8110 -18.7830 -18.7020 -18.5910 -18.5259 -18.3579 -18.2853 -18.0890
   -17.9829 -17.7762 -17.6284 -17.4186 -17.2262 -17.0165 -16.7777 -16.5712
   -16.3001 -16.1022 -15.8095 -15.6370 -15.3689 -15.2779 -14.0641 -13.9800
   -13.6613 -13.5179 -13.1144 -12.9722 -12.5768 -12.4114 -12.1161 -11.8490
   -11.6603 -11.3648 -11.2813 -11.2031 -10.9493 -10.6801 -10.3309 -10.0598
    -9.6965  -9.4610  -9.1387  -8.9814  -8.8030  -8.7111  -8.6194  -8.6139
    -8.5825  -8.3561  -8.2483  -8.1873  -8.1093  -8.0637  -8.0444  -8.0401
    -7.7300  -7.7175  -7.6468  -7.6370  -7.5662  -7.5103  -7.4420  -7.3988
    -7.3951  -7.3880  -7.3767  -7.3495  -7.3460  -7.3391  -7.3100  -7.3039
    -7.2936  -7.1030  -6.9334  -6.9180  -6.8732  -6.8064  -6.7132  -6.6850
    -6.6393  -6.5890  -6.5520  -6.5122  -6.4294  -6.3866  -6.3192  -6.2216
    -6.2174  -6.1827  -6.0173  -5.9803  -5.9742  -5.7543  -5.7038  -5.4859
    -5.3871  -5.1713  -5.0309  -4.8187  -4.6410  -4.4394  -4.2250  -4.0464
    -3.8131  -3.6750  -3.4488  -3.3759  -3.0951  -3.0785   0.8565   0.8971
     1.0903   1.2075   1.5001   1.6810   2.0095   2.2361   2.5667   2.8075
     3.0855   3.1577   3.2088   3.4569   3.5927   3.7316   3.7586   3.9464
     4.0073   4.0505   4.1259   4.2769   4.3112   4.3578   4.3745   4.4500
     4.5179   4.5492   4.6243   4.7431   4.7603   4.8065   4.8348   4.9258
     5.0251   5.0621   5.0862   5.1178   5.1592   5.2087   5.3095   5.3859
     5.4142   5.4640   5.5557   5.6103   5.6405   5.6577   5.6889   5.7040
     5.7080   5.8053   5.8139   5.8475   5.9251   5.9793   6.0046   6.0333
     6.0511   6.1264   6.1388   6.2162   6.2765   6.2861   6.3416   6.3564
     6.4062   6.4725   6.4931   6.5424   6.5907   6.5979   6.6168   6.6293
     6.6391   6.6565   6.6726   6.6909   6.7366   6.8054   6.8214   6.8396
     6.8709   6.8843   6.8965   6.9451   6.9754   6.9891   7.0265   7.1001
     7.1271   7.1814   7.2031   7.2199   7.2866   7.2985   7.3120   7.3349
     7.3543   7.4156   7.4639   7.4844   7.5237   7.5642   7.5936   7.6273
     7.6673   7.6928   7.8054   7.8336   7.8604   7.9072   7.9281   7.9740
     8.0067   8.0352   8.1627   8.1791   8.2240   8.2655   8.2743   8.3808
     8.4079   8.4446   8.5068   8.5534   8.5996   8.6585   8.6757   8.7715
     8.8356   8.8796   8.9333   8.9978   9.0489   9.0801   9.1192   9.1591
     9.2571   9.3272   9.3538   9.3684   9.3985   9.4583   9.4663   9.5962
     9.6988   9.7235   9.8010   9.8573   9.9231   9.9540  10.0300  10.0891
    10.1280  10.1610  10.2481  10.2920  10.3085  10.3558  10.3984  10.4423
    10.4966  10.5478  10.5702  10.6024  10.6594  10.6965  10.7113  10.7802
    10.9037  10.9827  11.0913  11.1667  11.1823  11.2729  11.2958  11.3239
    11.3560  11.4454  11.4777  11.5048  11.5431  11.5640  11.5813  11.5969
    11.6166  11.6462  11.6576  11.6918  11.7466  11.8042  11.8247  11.8426
    11.8649  11.9110  11.9444  11.9656  11.9815  12.0045  12.0575  12.1025
    12.1540  12.2211  12.2449  12.3027  12.3291  12.4320  12.4399  12.4727
    12.5866  12.6181  12.6406  12.7433  12.7715  12.8462  12.8742  12.8754
    12.9573  13.0184  13.0383  13.1279  13.1427  13.1631  13.1972  13.2503
    13.2679  13.2834  13.2945  13.3228  13.3670  13.4192  13.4433  13.5446
    13.5674  13.5990  13.6203  13.6416  13.7163  13.7322  13.7468  13.7904
    13.8449  13.8503  13.8766  13.9093  14.0198  14.0670  14.0887  14.1167
    14.2000  14.2064  14.3533  14.3899  14.4343  14.4834  14.5376  14.5838
    14.6096  14.7252  14.7448  14.8197  14.8944  14.9440  14.9934  15.0228
    15.0483  15.1021  15.1144  15.1505  15.1966  15.2325  15.2626  15.2708
    15.3426  15.3976  15.4020  15.4278  15.4568  15.5005  15.5607  15.5935
    15.6753  15.7008  15.7459  15.7997  15.8578  15.8778  15.9253  15.9816
    16.0019  16.0776  16.0822  16.1522  16.1912  16.2126  16.2496  16.2641
    16.2924  16.3366  16.4484  16.4991  16.5325  16.5557  16.6274  16.6447
    16.6851  16.7376  16.7882  16.8027  16.8341  16.9051  16.9681  17.0017
    17.0347  17.0452  17.0730  17.1146  17.1717  17.2122  17.2822  17.3517
    17.3620  17.3887  17.4068  17.4307  17.4481  17.5248  17.5418  17.5780
    17.5897  17.6445  17.6643  17.7090  17.7276  17.7490  17.7801  17.7977
    17.8485  17.8738  17.8831  17.9493  17.9706  17.9997  18.0305  18.1007
    18.1257  18.1357  18.1938  18.2229  18.2441  18.3390  18.4007  18.4215
    18.4435  18.4806  18.5616  18.5827  18.6442  18.6700  18.6999  18.7208
    18.8408  18.8487  18.9752  18.9942  19.0425  19.1024  19.1586  19.2049
    19.2558  19.3723  19.4520  19.4664  19.5018  19.5531  19.6497  19.6701
    19.7294  19.7779  19.8187  19.8434

          k = 0.0000 0.0000-0.1174 ( 52656 PWs)   bands (ev):

   -24.9160 -24.9143 -24.0494 -24.0424 -18.9695 -18.9627 -18.9342 -18.9198
   -18.8346 -18.8176 -18.6779 -18.6581 -18.4660 -18.4428 -18.2067 -18.1800
   -17.8981 -17.8682 -17.5426 -17.5100 -17.1407 -17.1068 -16.6945 -16.6582
   -16.2223 -16.1828 -15.7405 -15.7058 -15.3286 -15.3111 -14.0394 -14.0180
   -13.6065 -13.5766 -13.0458 -13.0414 -12.5402 -12.4468 -12.0948 -11.8649
   -11.6450 -11.3648 -11.2638 -11.2452 -10.9339 -10.7003 -10.3128 -10.0764
    -9.6770  -9.4686  -9.1176  -8.9590  -8.7320  -8.6668  -8.5056  -8.5005
    -8.3789  -8.3702  -8.3249  -8.3237  -8.2159  -8.2085  -8.0792  -8.0759
    -7.5909  -7.5836  -7.5531  -7.5483  -7.5138  -7.5024  -7.4918  -7.4824
    -7.4509  -7.4365  -7.4018  -7.3949  -7.3747  -7.3728  -7.3399  -7.3335
    -7.2274  -7.2139  -6.8484  -6.8440  -6.8068  -6.7964  -6.7597  -6.7300
    -6.6821  -6.6078  -6.5613  -6.4774  -6.4208  -6.4081  -6.3740  -6.2457
    -6.2003  -6.1063  -6.1031  -6.0252  -5.9435  -5.8064  -5.6433  -5.5568
    -5.3037  -5.2610  -4.9326  -4.9209  -4.5443  -4.5387  -4.1431  -4.1296
    -3.7526  -3.7356  -3.4176  -3.4072  -3.0909  -3.0888   0.8748   0.8750
     1.1457   1.1472   1.5874   1.5897   2.1203   2.1236   2.6887   2.6955
     3.1567   3.1748   3.2994   3.3322   3.6113   3.6804   3.8656   3.8692
     4.1165   4.1197   4.1982   4.2134   4.2841   4.2843   4.4420   4.4487
     4.5056   4.5254   4.6571   4.6580   4.7746   4.7962   4.9326   4.9875
     5.0328   5.0553   5.0665   5.0866   5.1689   5.1784   5.2768   5.3228
     5.4600   5.4962   5.5740   5.5839   5.6833   5.6868   5.7665   5.7897
     5.8080   5.8092   5.8352   5.8449   5.8633   5.8928   5.9600   5.9825
     6.1418   6.1433   6.1839   6.1887   6.2504   6.2545   6.3145   6.3439
     6.4104   6.4161   6.4370   6.4468   6.5872   6.5947   6.6331   6.6338
     6.6873   6.7224   6.7244   6.7354   6.7387   6.7475   6.7783   6.7988
     6.8325   6.8385   6.8867   6.8918   6.9623   7.0168   7.0538   7.0568
     7.1139   7.1686   7.1839   7.2156   7.2952   7.3122   7.3273   7.3338
     7.3749   7.4058   7.4518   7.4644   7.5068   7.5188   7.5965   7.6170
     7.7034   7.7269   7.8045   7.8068   7.8362   7.8485   7.9034   7.9685
     8.0657   8.0831   8.1134   8.1500   8.2374   8.2777   8.3414   8.3488
     8.4103   8.4125   8.4669   8.5208   8.5390   8.6608   8.7283   8.7585
     8.8340   8.8774   8.9704   8.9892   9.0855   9.1207   9.1725   9.1962
     9.2712   9.2794   9.2942   9.3173   9.3572   9.3597   9.5648   9.6015
     9.6849   9.7181   9.7604   9.8153   9.9113   9.9536  10.0528  10.0776
    10.2228  10.2311  10.2652  10.2873  10.3471  10.3663  10.4098  10.4441
    10.4577  10.4780  10.5307  10.5430  10.6444  10.6508  10.6903  10.7937
    10.8873  10.9221  11.1403  11.1491  11.3034  11.3152  11.3717  11.3769
    11.4296  11.4395  11.4755  11.4882  11.5178  11.5182  11.5860  11.5862
    11.6338  11.6389  11.6795  11.7038  11.7348  11.7560  11.7962  11.8130
    11.8827  11.8913  11.9035  11.9583  11.9870  12.0349  12.0636  12.0861
    12.1151  12.1561  12.2304  12.2958  12.3643  12.3662  12.4807  12.5091
    12.6074  12.6235  12.6515  12.6990  12.7285  12.7696  12.9117  12.9181
    12.9893  13.0199  13.0771  13.0846  13.1722  13.1784  13.2344  13.2367
    13.2831  13.2918  13.3025  13.3189  13.4108  13.4319  13.4570  13.4617
    13.5030  13.5990  13.6091  13.6334  13.7241  13.7322  13.7492  13.7603
    13.8654  13.8801  13.9502  13.9684  13.9885  13.9983  14.0090  14.0283
    14.2644  14.2816  14.3073  14.3120  14.4433  14.4736  14.6004  14.6100
    14.6427  14.6686  14.8105  14.8143  14.8481  14.8533  14.9991  15.0172
    15.0877  15.0973  15.1190  15.1315  15.2558  15.2581  15.2691  15.2821
    15.3635  15.4008  15.4115  15.4312  15.4409  15.4824  15.5364  15.5857
    15.7301  15.7507  15.7751  15.7779  15.7937  15.7958  15.9352  15.9982
    16.0518  16.0842  16.1267  16.1836  16.2004  16.2018  16.2414  16.2748
    16.3328  16.3455  16.3642  16.3685  16.5523  16.6011  16.6664  16.6739
    16.7469  16.7492  16.8383  16.8483  16.8710  16.8760  16.8899  16.9343
    16.9709  16.9902  17.1009  17.1379  17.1599  17.1905  17.2881  17.2977
    17.3624  17.3710  17.4301  17.4428  17.4817  17.5060  17.6088  17.6114
    17.6319  17.6416  17.6521  17.6547  17.6981  17.7218  17.7887  17.8165
    17.8989  17.8994  17.9235  17.9417  17.9469  17.9725  18.0604  18.0652
    18.1193  18.1242  18.1462  18.1658  18.3249  18.3272  18.3637  18.3925
    18.4221  18.4442  18.5942  18.6093  18.6132  18.6607  18.7223  18.7284
    18.7916  18.8035  19.0060  19.0237  19.0743  19.1115  19.1311  19.1888
    19.3128  19.3458  19.4527  19.4566  19.5801  19.5989  19.6475  19.6504
    19.7264  19.7400  19.7988  19.8847

     the Fermi energy is    -0.8665 ev

     Writing output data file AGNR_OH_26.save/

     init_run     :     11.55s CPU     11.78s WALL (       1 calls)
     electrons    :   3619.25s CPU   3651.39s WALL (       1 calls)

     Called by init_run:
     wfcinit      :      0.00s CPU      0.01s WALL (       1 calls)
     potinit      :      0.56s CPU      0.61s WALL (       1 calls)
     hinit0       :      9.70s CPU      9.75s WALL (       1 calls)

     Called by electrons:
     c_bands      :   3619.24s CPU   3651.35s WALL (       1 calls)
     v_of_rho     :      0.45s CPU      0.47s WALL (       1 calls)
     newd         :      0.39s CPU      0.49s WALL (       1 calls)

     Called by c_bands:
     init_us_2    :      0.31s CPU      0.33s WALL (      26 calls)
     cegterg      :   3539.57s CPU   3563.23s WALL (      54 calls)

     Called by sum_band:

     Called by *egterg:
     h_psi        :    739.94s CPU    748.12s WALL (     951 calls)
     s_psi        :     84.70s CPU     84.89s WALL (     951 calls)
     g_psi        :      4.71s CPU      4.72s WALL (     871 calls)
     cdiaghg      :   1774.17s CPU   1776.44s WALL (     897 calls)

     Called by h_psi:
     h_psi:pot    :    733.96s CPU    740.26s WALL (     951 calls)
     h_psi:calbec :     85.35s CPU     86.58s WALL (     951 calls)
     vloc_psi     :    563.52s CPU    568.39s WALL (     951 calls)
     add_vuspsi   :     85.08s CPU     85.27s WALL (     951 calls)

     General routines
     calbec       :     85.34s CPU     86.58s WALL (     951 calls)
     fft          :      0.46s CPU      0.49s WALL (      14 calls)
     ffts         :      0.00s CPU      0.00s WALL (       1 calls)
     fftw         :    492.85s CPU    497.21s WALL (  408088 calls)
     interpolate  :      0.03s CPU      0.03s WALL (       1 calls)
     davcio       :      0.01s CPU      7.12s WALL (      52 calls)

     Parallel routines
     fft_scatt_xy :     85.13s CPU     85.91s WALL (  408103 calls)
     fft_scatt_yz :    112.79s CPU    114.05s WALL (  408103 calls)

     PWSCF        :     1h 0m CPU        0h 1m WALL

       4h

   This run was terminated on:  19:15:41   2Jan2022            

=------------------------------------------------------------------------------=
   JOB DONE.
=------------------------------------------------------------------------------=
