
     Program PWSCF v.6.3 starts on  8Apr2022 at 18: 4: 0 

     This program is part of the open-source Quantum ESPRESSO suite
     for quantum simulation of materials; please cite
         "P. Giannozzi et al., J. Phys.:Condens. Matter 21 395502 (2009);
         "P. Giannozzi et al., J. Phys.:Condens. Matter 29 465901 (2017);
          URL http://www.quantum-espresso.org", 
     in publications or presentations arising from this work. More details at
     http://www.quantum-espresso.org/quote

     Parallel version (MPI), running on    16 processors
     R & G space division:  proc/nbgrp/npool/nimage =      16
     Waiting for input...
     Reading input from standard input
     Message from routine read_cards :
     DEPRECATED: no units specified in CELL_PARAMETERS card

     Current dimensions of program PWSCF are:
     Max number of different atomic species (ntypx) = 10
     Max number of k-points (npk) =  40000
     Max angular momentum in pseudopotentials (lmaxx) =  3

     Atomic positions and unit cell read from directory:
     /home/zfwang/scratch/GNRDATASET/AGNR/A27/A27.save/


     Subspace diagonalization in iterative solution of the eigenvalue problem:
     a serial algorithm will be used


     Parallelization info
     --------------------
     sticks:   dense  smooth     PW     G-vecs:    dense   smooth      PW
     Min        3755    1251    353               140599    27060    4052
     Max        3757    1253    355               140600    27061    4053
     Sum       60095   20035   5663              2249595   432967   64843



     bravais-lattice index     =            0
     lattice parameter (alat)  =       1.8897  a.u.
     unit-cell volume          =   12669.2017 (a.u.)^3
     number of atoms/cell      =           58
     number of atomic types    =            2
     number of electrons       =       220.00
     number of Kohn-Sham states=          500
     kinetic-energy cutoff     =      40.0000  Ry
     charge density cutoff     =     480.0000  Ry
     Exchange-correlation      = PBE ( 1  4  3  4 0 0)

     celldm(1)=  18.897261  celldm(2)=   4.407000  celldm(3)=   0.426000
     celldm(4)=   0.000000  celldm(5)=   0.000000  celldm(6)=   0.000000

     crystal axes: (cart. coord. in units of alat)
               a(1) = (  10.000000   0.000000   0.000000 )  
               a(2) = (   0.000000  44.070000   0.000000 )  
               a(3) = (   0.000000   0.000000   4.260000 )  

     reciprocal axes: (cart. coord. in units 2 pi/alat)
               b(1) = (  0.100000  0.000000  0.000000 )  
               b(2) = (  0.000000  0.022691  0.000000 )  
               b(3) = (  0.000000  0.000000  0.234742 )  


     PseudoPot. # 1 for C  read from file:
     /home/zfwang/hp_home/MySoftware/qe-6.3/pseudo/C.pbe-n-rrkjus_psl.0.1.UPF
     MD5 check sum: fff530ed632a789b3b184014e67dd7f1
     Pseudo is Ultrasoft + core correction, Zval =  4.0
     Generated using "atomic" code by A. Dal Corso v.5.0.2 svn rev. 9415
     Using radial grid of 1073 points,  4 beta functions with: 
                l(1) =   0
                l(2) =   0
                l(3) =   1
                l(4) =   1
     Q(r) pseudized with 0 coefficients 


     PseudoPot. # 2 for H  read from file:
     /home/zfwang/hp_home/MySoftware/qe-6.3/pseudo/H.pbe-rrkjus_psl.0.1.UPF
     MD5 check sum: e164a6907b691c6980f16942be34de84
     Pseudo is Ultrasoft, Zval =  1.0
     Generated using "atomic" code by A. Dal Corso v.5.0.2 svn rev. 9415
     Using radial grid of  929 points,  2 beta functions with: 
                l(1) =   0
                l(2) =   0
     Q(r) pseudized with 0 coefficients 


     atomic species   valence    mass     pseudopotential
        C              4.00    12.01070     C ( 1.00)
        H              1.00     1.00794     H ( 1.00)

     No symmetry found



   Cartesian axes

     site n.     atom                  positions (alat units)
         1           C   tau(   1) = (   4.9999997   6.0615424   2.8134351  )
         2           C   tau(   2) = (   5.0000008   7.2672329   3.5440740  )
         3           C   tau(   3) = (   4.9999999   6.0615399   1.4465684  )
         4           C   tau(   4) = (   5.0000009   8.4962801   2.8408505  )
         5           C   tau(   5) = (   5.0000010   9.7329452   3.5522390  )
         6           C   tau(   6) = (   5.0000013   7.2672358   0.7159287  )
         7           C   tau(   7) = (   5.0000009   8.4962784   1.4191519  )
         8           C   tau(   8) = (   5.0000013  10.9617280   2.8421742  )
         9           C   tau(   9) = (   5.0000014  12.1906778   3.5495699  )
        10           C   tau(  10) = (   5.0000015   9.7329446   0.7077625  )
        11           C   tau(  11) = (   5.0000014  10.9617297   1.4178272  )
        12           C   tau(  12) = (   5.0000017  13.4241848   2.8395440  )
        13           C   tau(  13) = (   5.0000020  14.6546648   3.5485640  )
        14           C   tau(  14) = (   5.0000013  12.1906752   0.7104307  )
        15           C   tau(  15) = (   5.0000018  13.4241865   1.4204562  )
        16           C   tau(  16) = (   5.0000012  15.8843706   2.8401933  )
        17           C   tau(  17) = (   5.0000002  17.1162121   3.5502420  )
        18           C   tau(  18) = (   5.0000019  14.6546638   0.7114360  )
        19           C   tau(  19) = (   5.0000012  15.8843711   1.4198069  )
        20           C   tau(  20) = (   5.0000000  18.3456960   2.8410221  )
        21           C   tau(  21) = (   4.9999986  19.5747999   3.5499789  )
        22           C   tau(  22) = (   5.0000004  17.1162126   0.7097581  )
        23           C   tau(  23) = (   4.9999996  18.3456956   1.4189781  )
        24           C   tau(  24) = (   4.9999985  20.8058179   2.8399119  )
        25           C   tau(  25) = (   4.9999990  22.0349973   3.5490458  )
        26           C   tau(  26) = (   4.9999986  19.5748007   0.7100213  )
        27           C   tau(  27) = (   4.9999983  20.8058177   1.4200887  )
        28           C   tau(  28) = (   4.9999990  23.2641791   2.8399126  )
        29           C   tau(  29) = (   4.9999989  24.4951968   3.5499779  )
        30           C   tau(  30) = (   4.9999990  22.0349972   0.7109542  )
        31           C   tau(  31) = (   4.9999993  23.2641788   1.4200869  )
        32           C   tau(  32) = (   4.9999988  25.7243024   2.8410210  )
        33           C   tau(  33) = (   4.9999987  26.9537859   3.5502423  )
        34           C   tau(  34) = (   4.9999992  24.4951970   0.7100216  )
        35           C   tau(  35) = (   4.9999985  25.7243016   1.4189789  )
        36           C   tau(  36) = (   4.9999991  28.1856273   2.8401930  )
        37           C   tau(  37) = (   5.0000002  29.4153315   3.5485643  )
        38           C   tau(  38) = (   4.9999987  26.9537871   0.7097576  )
        39           C   tau(  39) = (   4.9999993  28.1856264   1.4198066  )
        40           C   tau(  40) = (   5.0000001  30.6458122   2.8395435  )
        41           C   tau(  41) = (   5.0000000  31.8793212   3.5495682  )
        42           C   tau(  42) = (   5.0000003  29.4153322   0.7114350  )
        43           C   tau(  43) = (   5.0000005  30.6458121   1.4204562  )
        44           C   tau(  44) = (   5.0000000  33.1082672   2.8421744  )
        45           C   tau(  45) = (   5.0000003  34.3370574   3.5522351  )
        46           C   tau(  46) = (   4.9999996  31.8793208   0.7104312  )
        47           C   tau(  47) = (   4.9999997  33.1082680   1.4178245  )
        48           C   tau(  48) = (   5.0000004  35.5737228   2.8408565  )
        49           C   tau(  49) = (   5.0000002  36.8027700   3.5440668  )
        50           C   tau(  50) = (   5.0000002  34.3370562   0.7077637  )
        51           C   tau(  51) = (   5.0000005  35.5737244   1.4191419  )
        52           C   tau(  52) = (   4.9999999  38.0084720   2.8134556  )
        53           C   tau(  53) = (   5.0000007  36.8027688   0.7159315  )
        54           C   tau(  54) = (   5.0000003  38.0084733   1.4465429  )
        55           H   tau(  55) = (   4.9999980   5.1059254   3.3305228  )
        56           H   tau(  56) = (   4.9999996   5.1059257   0.9294817  )
        57           H   tau(  57) = (   4.9999977  38.9640794   3.3305140  )
        58           H   tau(  58) = (   5.0000005  38.9640794   0.9294847  )

     number of k points=    26  Marzari-Vanderbilt smearing, width (Ry)=  0.0100
                       cart. coord. in units 2pi/alat
        k(    1) = (   0.0000000   0.0000000   0.0000000), wk =   0.0400000
        k(    2) = (   0.0000000   0.0000000   0.0046948), wk =   0.0800000
        k(    3) = (   0.0000000   0.0000000   0.0093897), wk =   0.0800000
        k(    4) = (   0.0000000   0.0000000   0.0140845), wk =   0.0800000
        k(    5) = (   0.0000000   0.0000000   0.0187793), wk =   0.0800000
        k(    6) = (   0.0000000   0.0000000   0.0234742), wk =   0.0800000
        k(    7) = (   0.0000000   0.0000000   0.0281690), wk =   0.0800000
        k(    8) = (   0.0000000   0.0000000   0.0328638), wk =   0.0800000
        k(    9) = (   0.0000000   0.0000000   0.0375587), wk =   0.0800000
        k(   10) = (   0.0000000   0.0000000   0.0422535), wk =   0.0800000
        k(   11) = (   0.0000000   0.0000000   0.0469484), wk =   0.0800000
        k(   12) = (   0.0000000   0.0000000   0.0516432), wk =   0.0800000
        k(   13) = (   0.0000000   0.0000000   0.0563380), wk =   0.0800000
        k(   14) = (   0.0000000   0.0000000   0.0610329), wk =   0.0800000
        k(   15) = (   0.0000000   0.0000000   0.0657277), wk =   0.0800000
        k(   16) = (   0.0000000   0.0000000   0.0704225), wk =   0.0800000
        k(   17) = (   0.0000000   0.0000000   0.0751174), wk =   0.0800000
        k(   18) = (   0.0000000   0.0000000   0.0798122), wk =   0.0800000
        k(   19) = (   0.0000000   0.0000000   0.0845070), wk =   0.0800000
        k(   20) = (   0.0000000   0.0000000   0.0892019), wk =   0.0800000
        k(   21) = (   0.0000000   0.0000000   0.0938967), wk =   0.0800000
        k(   22) = (   0.0000000   0.0000000   0.0985915), wk =   0.0800000
        k(   23) = (   0.0000000   0.0000000   0.1032864), wk =   0.0800000
        k(   24) = (   0.0000000   0.0000000   0.1079812), wk =   0.0800000
        k(   25) = (   0.0000000   0.0000000   0.1126761), wk =   0.0800000
        k(   26) = (   0.0000000   0.0000000  -0.1173709), wk =   0.0400000

     Dense  grid:  2249595 G-vectors     FFT dimensions: ( 135, 600,  60)

     Smooth grid:   432967 G-vectors     FFT dimensions: (  80, 360,  36)

     Estimated max dynamical RAM per process >     590.10 MB

     Estimated total dynamical RAM >       9.22 GB

     The potential is recalculated from file :
     /home/zfwang/scratch/GNRDATASET/AGNR/A27/A27.save/charge-density.dat


     negative rho (up, down):  8.221E-05 0.000E+00
     Starting wfcs are  220 randomized atomic wfcs +  280 random wfcs

     Band Structure Calculation
     Davidson diagonalization with overlap

     ethr =  4.55E-09,  avg # of iterations = 29.4

     total cpu time spent up to now is     3354.5 secs

     End of band structure calculation

          k = 0.0000 0.0000 0.0000 ( 54017 PWs)   bands (ev):

   -20.7302 -20.6522 -20.5359 -20.3740 -20.1664 -19.9169 -19.6257 -19.2919
   -18.9149 -18.4878 -18.0283 -17.5337 -17.0074 -16.4539 -15.8804 -15.4635
   -15.3939 -15.2979 -15.2932 -15.1529 -14.9724 -14.7560 -14.7265 -14.5033
   -14.4512 -14.3856 -14.2867 -14.2165 -14.2131 -14.1399 -14.0023 -13.8835
   -13.8268 -13.7939 -13.6647 -13.6211 -13.5003 -13.0907 -12.6475 -12.1714
   -11.7472 -11.6814 -11.6642 -11.5047 -11.3727 -11.1282 -11.0730 -10.9791
   -10.5660 -10.5252 -10.5198 -10.0282  -9.9803  -9.9265  -9.5011  -9.3739
    -9.3400  -8.9561  -8.8208  -8.7891  -8.7365  -8.7314  -8.5944  -8.4083
    -8.4040  -8.3083  -8.1609  -8.1027  -7.9429  -7.8714  -7.8691  -7.7181
    -7.5294  -7.4703  -7.3133  -7.1423  -6.8468  -6.7793  -6.7085  -6.2643
    -6.2452  -6.2239  -5.7812  -5.7055  -5.6839  -5.3433  -5.1855  -5.1531
    -4.9640  -4.7775  -4.6539  -4.5725  -4.4865  -4.4242  -4.3184  -4.2893
    -3.9716  -3.5288  -3.4369  -3.3599  -3.2949  -3.0973  -2.8451  -2.7491
    -2.5414  -2.1862  -2.1533  -1.7792  -1.5877  -1.3183  -1.0554  -0.7862
    -0.6121  -0.2521  -0.2240   0.0238   0.2215   0.3534   0.3806   0.4354
     0.4815   0.5010   1.0263   1.7101   1.7886   1.9140   1.9480   2.0733
     2.1767   2.3967   2.4283   2.5950   2.9055   3.1663   3.1759   3.2022
     3.3057   3.3977   3.5451   3.5469   3.6748   3.8018   3.8441   3.9469
     4.0631   4.0632   4.2049   4.3830   4.6362   4.6383   4.6948   4.7339
     4.7388   4.8193   4.8917   5.0132   5.1295   5.2062   5.3596   5.3741
     5.4369   5.5360   5.6998   5.7063   5.9385   6.0246   6.0462   6.1302
     6.3212   6.3457   6.3846   6.4654   6.5836   6.7347   6.8227   6.8455
     6.9641   7.0219   7.0852   7.1851   7.2149   7.2340   7.2528   7.3058
     7.3094   7.3735   7.4620   7.5202   7.6081   7.7360   7.7449   7.8034
     7.8148   7.8330   7.9789   8.0605   8.0831   8.0956   8.2149   8.2325
     8.3248   8.3692   8.3765   8.4930   8.5493   8.5904   8.6496   8.6662
     8.7171   9.0741   9.0849   9.0995   9.1863   9.2562   9.2605   9.2714
     9.3879   9.4293   9.4696   9.4830   9.5026   9.5160   9.5229   9.5433
     9.5701   9.5924   9.5992   9.6062   9.7006   9.7232   9.7360   9.8599
     9.8657   9.8850   9.8863   9.9131   9.9380   9.9528   9.9860   9.9888
    10.0155  10.0691  10.0996  10.1361  10.1759  10.1949  10.2363  10.2617
    10.2709  10.3321  10.3522  10.3745  10.3758  10.4037  10.4298  10.4697
    10.5909  10.6001  10.6314  10.6607  10.6896  10.7428  10.7605  10.8233
    10.8552  10.8635  10.8659  10.8847  10.9228  10.9992  11.0275  11.0433
    11.0925  11.1025  11.1101  11.1564  11.1888  11.1948  11.2580  11.2905
    11.3163  11.3316  11.3713  11.4032  11.4400  11.4681  11.4871  11.5097
    11.5232  11.5352  11.5378  11.5543  11.5846  11.6073  11.6085  11.6515
    11.6545  11.6789  11.7020  11.7391  11.7433  11.7477  11.7996  11.8361
    11.8607  11.8608  11.8653  11.9180  11.9308  11.9579  11.9959  11.9998
    12.0012  12.0231  12.0593  12.1021  12.1280  12.1443  12.1737  12.2112
    12.2450  12.2469  12.2851  12.2891  12.2944  12.4013  12.4453  12.4847
    12.5863  12.6326  12.6730  12.6932  12.7035  12.7125  12.7799  12.8041
    12.8072  12.8109  12.8393  12.8777  12.8807  12.9162  12.9183  12.9542
    13.0201  13.1131  13.1217  13.1223  13.1403  13.2018  13.3050  13.3260
    13.3351  13.3806  13.3935  13.4465  13.4891  13.5734  13.5751  13.5813
    13.5944  13.8044  13.8984  13.9086  13.9121  13.9569  14.0032  14.0453
    14.0465  14.1153  14.1381  14.1801  14.2053  14.2170  14.2201  14.2529
    14.2821  14.2876  14.3329  14.3408  14.3411  14.5222  14.5565  14.5665
    14.6474  14.6732  14.7168  14.7608  14.8249  14.8440  14.9156  14.9699
    15.0090  15.0822  15.1481  15.1662  15.1847  15.3052  15.3063  15.3617
    15.3686  15.3952  15.4093  15.4153  15.4444  15.5359  15.5469  15.5863
    15.6920  15.7588  15.7893  15.8676  15.8862  15.9470  15.9597  16.0072
    16.0166  16.0650  16.0934  16.0941  16.0981  16.1442  16.2410  16.2729
    16.2856  16.3030  16.3030  16.3667  16.3713  16.4080  16.4728  16.4761
    16.4792  16.5749  16.5848  16.5904  16.5930  16.6161  16.6299  16.7204
    16.7471  16.7558  16.7636  16.8194  16.8728  16.8947  16.9147  16.9480
    16.9805  16.9818  17.0876  17.0892  17.0911  17.2094  17.2111  17.2742
    17.3082  17.3661  17.4005  17.4521  17.4844  17.4877  17.5559  17.5958
    17.6198  17.6288  17.6339  17.6382  17.6451  17.7247  17.7302  17.7839
    17.8345  17.8710  17.8905  17.9059  17.9062  18.0394  18.0695  18.0717
    18.0735  18.0747  18.1500  18.1573  18.1729  18.2208  18.2346  18.2539
    18.3326  18.3390  18.3485  18.4299  18.4408  18.4671  18.4902  18.5182
    18.5405  18.5406  18.5410  18.5416

          k = 0.0000 0.0000 0.0047 ( 54009 PWs)   bands (ev):

   -20.7278 -20.6498 -20.5335 -20.3716 -20.1640 -19.9145 -19.6233 -19.2896
   -18.9126 -18.4855 -18.0260 -17.5315 -17.0052 -16.4519 -15.8787 -15.5078
   -15.4381 -15.3370 -15.2971 -15.1958 -15.0158 -14.7990 -14.7268 -14.5467
   -14.4034 -14.3385 -14.2673 -14.2399 -14.2106 -14.1017 -13.9868 -13.9472
   -13.7829 -13.7113 -13.6180 -13.5754 -13.5056 -13.1083 -12.6677 -12.1923
   -11.7319 -11.6860 -11.6636 -11.4918 -11.3524 -11.1518 -11.0612 -10.9583
   -10.5890 -10.5089 -10.5052 -10.0098 -10.0015  -9.9167  -9.4847  -9.3943
    -9.3300  -8.9416  -8.8179  -8.7895  -8.7462  -8.7285  -8.5916  -8.4012
    -8.3953  -8.3052  -8.1581  -8.1159  -7.9400  -7.8663  -7.8601  -7.7148
    -7.5267  -7.4833  -7.3025  -7.1397  -6.8599  -6.7697  -6.7058  -6.2698
    -6.2447  -6.2214  -5.7799  -5.7031  -5.6917  -5.3438  -5.1931  -5.1509
    -4.9667  -4.7842  -4.6589  -4.5707  -4.4922  -4.4313  -4.3232  -4.2979
    -3.9704  -3.5446  -3.4528  -3.3596  -3.3112  -3.1143  -2.8630  -2.7508
    -2.5609  -2.2092  -2.1595  -1.8105  -1.6120  -1.4018  -0.9726  -0.7634
    -0.5807  -0.2284  -0.2199   0.0450   0.2417   0.3732   0.3794   0.4550
     0.5010   0.5205   1.0226   1.7050   1.7918   1.9172   1.9512   2.0765
     2.1799   2.3999   2.4223   2.5982   2.9088   3.1689   3.1696   3.2054
     3.3094   3.4018   3.5483   3.5501   3.6781   3.8050   3.8474   3.9401
     4.0664   4.0665   4.2082   4.3862   4.6393   4.6416   4.6980   4.7267
     4.7420   4.8225   4.8950   5.0164   5.1327   5.2093   5.3624   5.3773
     5.4400   5.5284   5.7030   5.7095   5.9417   6.0290   6.0492   6.1341
     6.3145   6.3474   6.3876   6.4679   6.5857   6.7377   6.8267   6.8481
     6.9669   7.0255   7.0779   7.1918   7.2167   7.2258   7.2639   7.3086
     7.3113   7.3643   7.4703   7.5082   7.6119   7.7188   7.7489   7.8072
     7.8084   7.8353   7.9599   8.0602   8.0871   8.0980   8.2074   8.2352
     8.3079   8.3730   8.3775   8.4850   8.5505   8.5913   8.6113   8.6753
     8.7209   9.0190   9.0909   9.1040   9.1914   9.2607   9.2609   9.2718
     9.3791   9.3940   9.4745   9.4861   9.5080   9.5089   9.5232   9.5453
     9.5730   9.5964   9.5984   9.6056   9.6271   9.6835   9.7035   9.7147
     9.7445   9.8231   9.8616   9.8766   9.8892   9.9209   9.9407   9.9776
     9.9841  10.0028  10.1757  10.1966  10.2082  10.2273  10.2573  10.2685
    10.2957  10.3332  10.3759  10.3993  10.4173  10.4204  10.4554  10.4952
    10.5594  10.5750  10.5783  10.6628  10.7542  10.7712  10.7912  10.8109
    10.8132  10.8586  10.8592  10.8636  10.8658  10.9506  10.9632  10.9995
    11.0355  11.0863  11.1031  11.1438  11.1916  11.2579  11.2931  11.3060
    11.3182  11.3506  11.3741  11.3868  11.3911  11.4227  11.4801  11.5153
    11.5370  11.5466  11.5617  11.5795  11.6200  11.6483  11.6595  11.6793
    11.6818  11.6938  11.7472  11.7679  11.7679  11.7857  11.7891  11.8139
    11.8327  11.8459  11.9204  11.9266  11.9634  11.9652  12.0121  12.0144
    12.0274  12.0278  12.0936  12.1199  12.1223  12.1467  12.1542  12.2107
    12.2136  12.2435  12.2446  12.2598  12.3500  12.3706  12.3899  12.4637
    12.5215  12.5542  12.5636  12.5904  12.6170  12.6571  12.6586  12.7522
    12.8278  12.8375  12.8918  12.9232  12.9542  12.9910  13.0078  13.0312
    13.0383  13.1126  13.1222  13.1784  13.2035  13.2304  13.3067  13.3154
    13.3653  13.3913  13.4044  13.4256  13.4686  13.5172  13.5517  13.6636
    13.7174  13.8168  13.8473  13.9215  13.9280  13.9413  13.9859  13.9914
    14.0404  14.0851  14.1359  14.2160  14.2248  14.2293  14.2763  14.2893
    14.3036  14.3328  14.3471  14.4015  14.4221  14.4337  14.5516  14.5996
    14.6528  14.6712  14.7231  14.8351  14.8493  14.8540  14.9195  15.0089
    15.0126  15.0584  15.0748  15.0757  15.1616  15.1715  15.3041  15.3624
    15.4009  15.4060  15.4269  15.4342  15.5380  15.5646  15.5702  15.5982
    15.6444  15.7529  15.7889  15.8389  15.8778  15.8931  15.9730  15.9744
    16.0080  16.0438  16.0601  16.0870  16.1756  16.1959  16.2114  16.2257
    16.2874  16.2953  16.3488  16.3955  16.3983  16.4146  16.4487  16.4564
    16.4958  16.5142  16.5314  16.5461  16.6204  16.6227  16.6736  16.7205
    16.7399  16.8003  16.8386  16.8680  16.8894  16.9061  16.9178  16.9350
    16.9886  17.0415  17.0796  17.1524  17.2168  17.2261  17.2299  17.2645
    17.3174  17.3336  17.4033  17.4045  17.4554  17.4798  17.5357  17.5384
    17.5402  17.5564  17.6028  17.6217  17.6418  17.6579  17.7545  17.7692
    17.8323  17.8438  17.9319  17.9438  17.9922  17.9940  18.0679  18.0720
    18.0728  18.0855  18.1679  18.1940  18.1953  18.1960  18.2673  18.2904
    18.3433  18.3524  18.3903  18.4407  18.4429  18.4575  18.4835  18.4905
    18.5109  18.5141  18.5335  18.5453

          k = 0.0000 0.0000 0.0094 ( 54033 PWs)   bands (ev):

   -20.7207 -20.6427 -20.5264 -20.3646 -20.1570 -19.9075 -19.6163 -19.2826
   -18.9057 -18.4786 -18.0193 -17.5249 -16.9988 -16.4459 -15.8735 -15.6221
   -15.5520 -15.4498 -15.3159 -15.2854 -15.1270 -14.9091 -14.7330 -14.6522
   -14.3854 -14.2787 -14.2381 -14.2069 -14.1259 -14.1093 -13.9865 -13.8351
   -13.6690 -13.5983 -13.5198 -13.5072 -13.4662 -13.1579 -12.7250 -12.2514
   -11.7458 -11.6872 -11.6130 -11.4555 -11.2947 -11.2107 -11.0352 -10.8987
   -10.6455 -10.4872 -10.4479 -10.0547  -9.9569  -9.8962  -9.4441  -9.4374
    -9.3105  -8.8999  -8.8139  -8.8094  -8.7511  -8.7200  -8.5831  -8.3927
    -8.3581  -8.2979  -8.1522  -8.1497  -7.9317  -7.8580  -7.8287  -7.7048
    -7.5201  -7.5184  -7.2725  -7.1316  -6.8953  -6.7449  -6.6980  -6.2973
    -6.2322  -6.2138  -5.7798  -5.7116  -5.6960  -5.3463  -5.2151  -5.1444
    -4.9755  -4.8044  -4.6742  -4.5652  -4.5095  -4.4526  -4.3379  -4.3235
    -3.9666  -3.5910  -3.4998  -3.3611  -3.3569  -3.1640  -2.9154  -2.7560
    -2.6178  -2.2748  -2.1784  -1.8960  -1.6783  -1.5520  -0.8248  -0.7019
    -0.4952  -0.2079  -0.1602   0.1069   0.3011   0.3758   0.4315   0.5127
     0.5585   0.5779   1.0117   1.6899   1.8014   1.9268   1.9609   2.0862
     2.1896   2.4044   2.4096   2.6079   2.9184   3.1484   3.1793   3.2150
     3.3203   3.4140   3.5580   3.5598   3.6881   3.8146   3.8571   3.9199
     4.0762   4.0762   4.2178   4.3959   4.6486   4.6517   4.7055   4.7078
     4.7515   4.8320   4.9047   5.0261   5.1421   5.2184   5.3708   5.3867
     5.4494   5.5061   5.7126   5.7192   5.9512   6.0419   6.0580   6.1455
     6.2948   6.3525   6.3968   6.4754   6.5918   6.7470   6.8388   6.8556
     6.9749   7.0362   7.0563   7.2102   7.2160   7.2228   7.2813   7.3168
     7.3169   7.3450   7.4776   7.4868   7.6230   7.6738   7.7608   7.7847
     7.8122   7.8421   7.9123   8.0637   8.0991   8.1037   8.1561   8.2464
     8.2876   8.3802   8.3844   8.4612   8.5083   8.5540   8.6028   8.6854
     8.7323   8.9049   9.0652   9.1127   9.2063   9.2420   9.2735   9.2750
     9.2938   9.3339   9.3565   9.3988   9.4881   9.4946   9.4953   9.5236
     9.5292   9.5374   9.5509   9.5707   9.5816   9.6129   9.6249   9.6433
     9.7116   9.7319   9.7720   9.8178   9.8662   9.8976   9.8997   9.9089
     9.9521   9.9695  10.0045  10.1625  10.1630  10.1716  10.2010  10.2625
    10.3396  10.3698  10.3777  10.3824  10.4671  10.4765  10.4984  10.5201
    10.5743  10.5981  10.6492  10.6555  10.6654  10.7024  10.7163  10.7535
    10.7578  10.8449  10.8495  10.8681  10.8867  10.9339  10.9496  10.9685
    11.0061  11.1007  11.1029  11.1474  11.1979  11.2393  11.2809  11.3081
    11.3081  11.3368  11.3560  11.3826  11.4148  11.4362  11.5217  11.5397
    11.5632  11.5740  11.5746  11.5814  11.6515  11.6615  11.6783  11.6888
    11.7073  11.7587  11.7911  11.7953  11.8131  11.8720  11.8723  11.8735
    11.9500  11.9636  11.9672  11.9701  11.9919  11.9928  12.0221  12.0251
    12.0529  12.0758  12.0836  12.1007  12.1145  12.1230  12.1486  12.1537
    12.1627  12.2167  12.2249  12.2425  12.2596  12.2610  12.2923  12.3639
    12.4496  12.4763  12.4797  12.5160  12.5583  12.5971  12.6745  12.6801
    12.8025  12.8362  12.8781  12.8915  12.9312  12.9552  13.0062  13.0558
    13.0631  13.1982  13.2321  13.2327  13.2978  13.3669  13.3809  13.3926
    13.3944  13.4077  13.4201  13.4728  13.4857  13.5976  13.6142  13.7422
    13.7537  13.7706  13.8070  13.8489  13.8710  13.9837  14.0009  14.0537
    14.0649  14.1444  14.1766  14.2382  14.2618  14.2874  14.3439  14.3603
    14.3628  14.3639  14.4041  14.4515  14.5019  14.5036  14.5324  14.6284
    14.6971  14.7125  14.7397  14.8590  14.8694  14.8933  14.9015  14.9746
    14.9772  14.9996  15.0201  15.0775  15.0967  15.1662  15.3164  15.3679
    15.3723  15.4181  15.4249  15.4328  15.5330  15.5770  15.5852  15.5917
    15.5945  15.7857  15.7916  15.8240  15.8394  15.8686  15.8772  15.9484
    16.0058  16.0127  16.0648  16.0783  16.1443  16.1738  16.1749  16.2241
    16.3139  16.3278  16.3565  16.4410  16.4455  16.4546  16.4856  16.4914
    16.5085  16.5106  16.5340  16.5543  16.6400  16.6434  16.6602  16.7273
    16.8077  16.8237  16.8825  16.9133  16.9183  16.9299  16.9787  17.0307
    17.0870  17.0882  17.1231  17.1313  17.1778  17.2368  17.2629  17.2913
    17.3226  17.3772  17.3842  17.3880  17.4055  17.4274  17.4506  17.4709
    17.5323  17.5584  17.5619  17.5679  17.6080  17.6170  17.7848  17.7938
    17.8277  17.8352  17.8426  17.8775  17.9655  18.0257  18.0407  18.0604
    18.0758  18.1371  18.1828  18.2077  18.2367  18.2611  18.2761  18.2902
    18.3376  18.3579  18.3816  18.3881  18.4250  18.4494  18.4563  18.4630
    18.5096  18.5116  18.5521  18.5583

          k = 0.0000 0.0000 0.0141 ( 53997 PWs)   bands (ev):

   -20.7088 -20.6309 -20.5146 -20.3528 -20.1452 -19.8958 -19.6046 -19.2710
   -18.8941 -18.4672 -18.0080 -17.5139 -16.9881 -16.4358 -15.8653 -15.7750
   -15.7045 -15.6010 -15.4601 -15.2868 -15.2755 -15.0549 -14.8168 -14.7175
   -14.5331 -14.2792 -14.2649 -14.1081 -14.0426 -13.9492 -13.8231 -13.6743
   -13.5478 -13.5022 -13.4897 -13.3638 -13.3333 -13.2309 -12.8111 -12.3402
   -11.8343 -11.6165 -11.5375 -11.3960 -11.2955 -11.2072 -10.9973 -10.8077
   -10.7261 -10.4589 -10.3597 -10.1316  -9.8750  -9.8703  -9.5164  -9.3636
    -9.2857  -8.8758  -8.8348  -8.7952  -8.7347  -8.7058  -8.5689  -8.3786
    -8.3008  -8.2952  -8.1993  -8.1357  -7.9186  -7.8441  -7.7833  -7.6865
    -7.5762  -7.5048  -7.2281  -7.1181  -6.9491  -6.7099  -6.6849  -6.3455
    -6.2102  -6.2012  -5.7983  -5.7271  -5.6841  -5.3550  -5.2481  -5.1336
    -4.9919  -4.8370  -4.7002  -4.5561  -4.5387  -4.4874  -4.3655  -4.3625
    -3.9603  -3.6655  -3.5751  -3.4361  -3.3574  -3.2432  -2.9984  -2.7650
    -2.7065  -2.3752  -2.2095  -2.0185  -1.7732  -1.7151  -0.6656  -0.6148
    -0.3725  -0.1880  -0.0556   0.2045   0.3702   0.3957   0.5250   0.6058
     0.6513   0.6708   0.9939   1.6652   1.8174   1.9427   1.9771   2.1022
     2.2058   2.3752   2.4256   2.6241   2.9344   3.1152   3.1956   3.2310
     3.3384   3.4337   3.5741   3.5758   3.7046   3.8303   3.8734   3.8871
     4.0925   4.0925   4.2339   4.4119   4.6602   4.6685   4.6745   4.7239
     4.7675   4.8479   4.9208   5.0422   5.1578   5.2328   5.3846   5.4024
     5.4649   5.4708   5.7285   5.7354   5.9669   6.0626   6.0727   6.1637
     6.2630   6.3605   6.4119   6.4874   6.6013   6.7622   6.8589   6.8680
     6.9881   7.0189   7.0559   7.2108   7.2270   7.2418   7.2961   7.3235
     7.3264   7.3341   7.4398   7.4989   7.6178   7.6408   7.7480   7.7696
     7.7804   7.8551   7.8815   8.0455   8.0733   8.1189   8.1223   8.2548
     8.2841   8.3621   8.3940   8.4033   8.4219   8.5596   8.6162   8.6767
     8.7507   8.7576   9.0230   9.0308   9.0751   9.1159   9.1268   9.2035
     9.2307   9.2720   9.2981   9.3054   9.3306   9.3980   9.4814   9.5061
     9.5105   9.5273   9.5479   9.5556   9.5603   9.5957   9.6040   9.6386
     9.6452   9.6565   9.7238   9.7496   9.7965   9.8718   9.9044   9.9076
     9.9113   9.9240   9.9450   9.9865  10.0018  10.1500  10.1589  10.2300
    10.2567  10.2902  10.3241  10.3336  10.3752  10.4031  10.4164  10.4424
    10.4586  10.4618  10.4906  10.5413  10.6065  10.7080  10.8371  10.8393
    10.8593  10.8806  10.8953  10.8957  10.9109  10.9173  10.9402  10.9762
    11.0531  11.0605  11.1551  11.1702  11.1973  11.2617  11.2827  11.3089
    11.3246  11.3429  11.3600  11.3995  11.4450  11.4640  11.5313  11.5624
    11.5653  11.5815  11.5926  11.6623  11.6683  11.6921  11.7028  11.7176
    11.7783  11.7833  11.7889  11.7943  11.8521  11.8710  11.8894  11.9151
    11.9239  11.9317  11.9762  11.9802  11.9817  11.9987  12.0126  12.0167
    12.0764  12.0789  12.1011  12.1468  12.1576  12.1763  12.1946  12.2011
    12.2013  12.2179  12.2379  12.2508  12.2522  12.2799  12.2861  12.3354
    12.3589  12.3672  12.3685  12.3761  12.5490  12.6137  12.6609  12.7098
    12.7832  12.7983  12.8101  12.8470  12.8689  12.9620  12.9895  13.0248
    13.0669  13.1361  13.2109  13.2546  13.3616  13.3902  13.4017  13.4162
    13.4383  13.4744  13.6081  13.6465  13.6493  13.6603  13.6798  13.7361
    13.7590  13.8058  13.8098  13.9387  13.9603  13.9958  14.0329  14.1448
    14.1743  14.2080  14.2398  14.2550  14.2741  14.3784  14.3812  14.3822
    14.3910  14.4180  14.4943  14.5201  14.5378  14.6123  14.6386  14.6981
    14.7210  14.7402  14.7656  14.8023  14.8521  14.8645  14.8747  14.9483
    14.9688  14.9822  15.0261  15.1446  15.1585  15.2489  15.2894  15.2912
    15.3085  15.3864  15.4205  15.4705  15.5009  15.5341  15.5419  15.5668
    15.6939  15.7710  15.7726  15.7856  15.7916  15.8342  15.8419  15.8654
    15.8767  15.9061  16.0145  16.1310  16.1345  16.2171  16.2666  16.3028
    16.3267  16.3561  16.4047  16.4497  16.4654  16.4963  16.5040  16.5271
    16.5798  16.5973  16.6058  16.6499  16.6774  16.7108  16.7604  16.7664
    16.7849  16.8303  16.8838  16.9370  16.9371  16.9588  16.9611  17.0187
    17.0511  17.0686  17.0928  17.1288  17.1859  17.2350  17.2718  17.2827
    17.3493  17.3832  17.4019  17.4077  17.4097  17.4355  17.4659  17.4707
    17.5187  17.5623  17.5815  17.5982  17.6448  17.6737  17.6901  17.7420
    17.7554  17.7743  17.8357  17.9245  17.9470  17.9564  18.0335  18.0339
    18.1093  18.1160  18.1439  18.2007  18.2163  18.2169  18.2205  18.2494
    18.2723  18.3121  18.3156  18.3469  18.3848  18.4362  18.4602  18.5033
    18.5074  18.5162  18.5776  18.5937

          k = 0.0000 0.0000 0.0188 ( 53967 PWs)   bands (ev):

   -20.6923 -20.6143 -20.4980 -20.3362 -20.1287 -19.8794 -19.5883 -19.2548
   -18.8780 -18.4513 -17.9922 -17.4984 -16.9732 -16.4219 -15.9471 -15.8756
   -15.8551 -15.7692 -15.6281 -15.4419 -15.2898 -15.2095 -14.9749 -14.7287
   -14.6936 -14.4163 -14.3477 -13.9119 -13.8479 -13.7564 -13.6359 -13.5542
   -13.4920 -13.4008 -13.3313 -13.3108 -13.1997 -13.1941 -12.9163 -12.4496
   -11.9430 -11.5263 -11.4480 -11.3956 -11.3097 -11.1037 -10.9419 -10.8265
   -10.6925 -10.4235 -10.2538 -10.2206  -9.8403  -9.7716  -9.6052  -9.2695
    -9.2575  -8.9582  -8.7753  -8.7514  -8.7105  -8.6860  -8.5491  -8.3590
    -8.3304  -8.2280  -8.2204  -8.1161  -7.9022  -7.8247  -7.7336  -7.6550
    -7.6468  -7.4856  -7.1739  -7.0993  -7.0185  -6.6685  -6.6665  -6.4100
    -6.1842  -6.1836  -5.8482  -5.7266  -5.6674  -5.3788  -5.2847  -5.1185
    -5.0185  -4.8809  -4.7378  -4.5804  -4.5434  -4.5354  -4.4223  -4.3969
    -3.9516  -3.7644  -3.6750  -3.5377  -3.3559  -3.3475  -3.1068  -2.8238
    -2.7751  -2.5014  -2.2522  -2.1637  -1.8858  -1.8822  -0.5129  -0.5039
    -0.2270  -0.1608   0.0768   0.3312   0.3630   0.5205   0.6493   0.7300
     0.7757   0.7953   0.9697   1.6313   1.8398   1.9650   1.9997   2.1247
     2.2284   2.3351   2.4482   2.6467   2.9569   3.0703   3.2183   3.2534
     3.3632   3.4605   3.5966   3.5983   3.7277   3.8379   3.8569   3.8961
     4.1153   4.1153   4.2564   4.4344   4.6201   4.6885   4.6917   4.7466
     4.7898   4.8702   4.9434   5.0647   5.1799   5.2505   5.4035   5.4244
     5.4256   5.4864   5.7508   5.7579   5.9887   6.0904   6.0930   6.1827
     6.2256   6.3708   6.4329   6.5031   6.6135   6.7834   6.8847   6.8867
     6.9692   7.0059   7.0813   7.2116   7.2397   7.2608   7.2999   7.3221
     7.3393   7.3510   7.4067   7.4867   7.5812   7.6598   7.6805   7.7031
     7.8072   7.8699   7.8745   7.9211   8.0873   8.1381   8.1464   8.2194
     8.2477   8.2753   8.3678   8.3879   8.4294   8.5635   8.6089   8.6338
     8.6382   8.7426   8.7756   8.8172   8.9343   8.9519   8.9649   9.0247
     9.1633   9.2160   9.2399   9.2641   9.3130   9.3296   9.4335   9.4638
     9.4670   9.4807   9.5143   9.5318   9.5598   9.5778   9.5784   9.5916
     9.6158   9.6745   9.6982   9.7216   9.7379   9.8016   9.8546   9.8741
     9.8880   9.9050   9.9128   9.9408   9.9589   9.9716  10.0716  10.1016
    10.1168  10.1513  10.1658  10.1872  10.2181  10.2342  10.2665  10.2827
    10.4157  10.4473  10.4872  10.5265  10.5666  10.6347  10.6420  10.6781
    10.8226  10.8814  10.8851  10.9012  10.9078  10.9706  10.9914  11.0025
    11.0987  11.2038  11.2187  11.2242  11.2728  11.2859  11.3266  11.3529
    11.3775  11.3911  11.3966  11.4215  11.4623  11.5042  11.5162  11.5595
    11.5601  11.5982  11.6170  11.6275  11.6446  11.6907  11.6978  11.6996
    11.7238  11.7486  11.7746  11.8181  11.8204  11.8631  11.8830  11.8927
    11.9327  11.9535  11.9541  11.9608  11.9744  12.0090  12.0323  12.0541
    12.0578  12.1173  12.1229  12.1327  12.1542  12.1987  12.2175  12.2500
    12.2619  12.2679  12.2729  12.2910  12.3284  12.3518  12.3521  12.3702
    12.4000  12.4290  12.4499  12.4832  12.4895  12.4938  12.6076  12.6296
    12.6626  12.6955  12.8345  12.9067  12.9215  12.9777  12.9896  13.0049
    13.0296  13.1124  13.1866  13.2472  13.2868  13.3152  13.3312  13.4318
    13.4607  13.4832  13.6813  13.7167  13.7258  13.8048  13.8316  13.8320
    13.9243  13.9365  13.9836  14.0059  14.0606  14.0626  14.0805  14.1979
    14.2178  14.2299  14.2799  14.3158  14.3995  14.4037  14.4124  14.4169
    14.4739  14.5475  14.5617  14.5826  14.5856  14.6203  14.6660  14.7364
    14.7367  14.7658  14.8200  14.8767  14.8899  14.8916  14.9048  14.9311
    14.9931  15.0415  15.0468  15.0948  15.1660  15.1890  15.2257  15.2999
    15.3658  15.3862  15.4635  15.4732  15.4781  15.5353  15.5428  15.5930
    15.6006  15.6349  15.6825  15.7329  15.7469  15.8008  15.8091  15.8731
    15.8757  16.0189  16.0510  16.1126  16.1537  16.2111  16.2541  16.3665
    16.3817  16.4263  16.4282  16.4976  16.5132  16.5431  16.5549  16.6033
    16.6434  16.6456  16.6732  16.7205  16.7291  16.7520  16.7582  16.7653
    16.7770  16.8482  16.8692  16.8835  16.9496  16.9641  16.9656  17.0242
    17.0541  17.1431  17.1543  17.1642  17.1921  17.2272  17.2541  17.2842
    17.3212  17.3646  17.3972  17.3995  17.4342  17.4451  17.4825  17.4839
    17.4843  17.5119  17.5255  17.5485  17.6649  17.6866  17.7257  17.7354
    17.8160  17.8333  17.8557  17.8860  17.9309  17.9423  17.9735  18.0235
    18.0417  18.0537  18.0958  18.0987  18.1242  18.1668  18.1749  18.2249
    18.2585  18.2905  18.3592  18.3936  18.4188  18.4742  18.4809  18.5068
    18.5254  18.5287  18.5613  18.6002

          k = 0.0000 0.0000 0.0235 ( 54023 PWs)   bands (ev):

   -20.6710 -20.5930 -20.4768 -20.3150 -20.1076 -19.8583 -19.5673 -19.2339
   -18.8573 -18.4308 -17.9720 -17.4786 -16.9540 -16.4043 -16.1271 -16.0551
   -15.9524 -15.8368 -15.8047 -15.6153 -15.4044 -15.2591 -15.1439 -14.8589
   -14.7440 -14.5679 -14.4367 -13.7004 -13.6383 -13.5679 -13.5486 -13.4370
   -13.4262 -13.3185 -13.2604 -13.1443 -13.0726 -13.0280 -13.0151 -12.5719
   -12.0652 -11.5318 -11.3933 -11.3531 -11.1964 -11.0050 -10.9354 -10.8551
   -10.5675 -10.3770 -10.3353 -10.1185  -9.8060  -9.7155  -9.6431  -9.2264
    -9.1635  -9.0511  -8.7498  -8.6821  -8.6605  -8.6556  -8.5237  -8.4087
    -8.3336  -8.2062  -8.1449  -8.0910  -7.8867  -7.7998  -7.7241  -7.6913
    -7.6037  -7.4610  -7.1144  -7.1005  -7.0752  -6.6430  -6.6246  -6.4880
    -6.1609  -6.1580  -5.9185  -5.7221  -5.6461  -5.4275  -5.3159  -5.0991
    -5.0587  -4.9340  -4.7876  -4.6364  -4.5959  -4.5272  -4.4913  -4.4409
    -3.9406  -3.8836  -3.7951  -3.6596  -3.4721  -3.3545  -3.2352  -2.9580
    -2.7920  -2.6459  -2.3220  -2.3057  -2.0506  -2.0095  -0.4026  -0.3419
    -0.1267  -0.0681   0.2291   0.3548   0.4809   0.6700   0.7994   0.8810
     0.9273   0.9398   0.9474   1.5890   1.8686   1.9937   2.0288   2.1537
     2.2576   2.2849   2.4771   2.6759   2.9858   3.0145   3.2475   3.2822
     3.3942   3.4940   3.6256   3.6270   3.7573   3.7847   3.8834   3.9254
     4.1444   4.1446   4.2854   4.4632   4.5601   4.7168   4.7212   4.7756
     4.8184   4.8989   4.9724   5.0936   5.2082   5.2626   5.3808   5.4269
     5.4527   5.5139   5.7795   5.7868   6.0159   6.1185   6.1247   6.1526
     6.2336   6.3829   6.4596   6.5210   6.6271   6.8104   6.9049   6.9062
     6.9221   7.0276   7.1140   7.2181   7.2533   7.2627   7.2872   7.3261
     7.3551   7.3707   7.3804   7.4531   7.5830   7.5861   7.6220   7.7084
     7.7961   7.8408   7.8415   7.8954   8.0616   8.1187   8.1536   8.1809
     8.2076   8.2455   8.3001   8.3744   8.4581   8.4624   8.4800   8.5317
     8.5858   8.5880   8.6498   8.6837   8.7531   8.8053   8.8350   8.8913
     8.9977   9.0420   9.1400   9.2756   9.3057   9.3110   9.3582   9.3655
     9.3928   9.4196   9.4789   9.4899   9.5248   9.5588   9.6031   9.6090
     9.6091   9.6419   9.6656   9.7185   9.7356   9.7444   9.7952   9.7975
     9.8317   9.8627   9.8694   9.8818   9.8932   9.9211   9.9240   9.9381
     9.9656   9.9660  10.0042  10.0053  10.0291  10.0953  10.1417  10.2960
    10.2971  10.3870  10.4133  10.5307  10.5423  10.5442  10.5492  10.5667
    10.7209  10.7937  10.8573  10.8980  10.9061  10.9101  10.9139  10.9849
    11.1129  11.1361  11.1962  11.2136  11.2463  11.2858  11.2934  11.3746
    11.3902  11.4026  11.4138  11.4318  11.4501  11.5101  11.5541  11.5872
    11.6112  11.6388  11.6439  11.6576  11.6607  11.7090  11.7168  11.7307
    11.7381  11.7526  11.7641  11.7930  11.8113  11.8289  11.8938  11.9101
    11.9196  11.9503  12.0074  12.0089  12.0245  12.0328  12.0632  12.0705
    12.1275  12.1290  12.1339  12.1411  12.1666  12.1763  12.2176  12.2319
    12.2406  12.3028  12.3355  12.3706  12.3743  12.4116  12.4146  12.4441
    12.4564  12.4904  12.4905  12.4907  12.5215  12.6020  12.6128  12.6655
    12.7044  12.7535  12.7856  12.7948  12.8706  12.9183  12.9702  13.0310
    13.1236  13.1310  13.1641  13.1685  13.2534  13.2635  13.2820  13.4659
    13.4660  13.4677  13.7101  13.7758  13.8493  13.8829  13.9343  13.9430
    13.9598  13.9674  13.9745  14.0801  14.1272  14.1839  14.2415  14.2928
    14.3432  14.3792  14.3958  14.4241  14.4331  14.4380  14.4549  14.4687
    14.4989  14.5817  14.5978  14.6315  14.6884  14.7063  14.7140  14.7797
    14.8114  14.8239  14.8247  14.8494  14.8722  14.9173  15.0027  15.0234
    15.0296  15.0673  15.0833  15.0843  15.1628  15.1834  15.2994  15.3263
    15.3421  15.3614  15.4125  15.4483  15.4894  15.5205  15.5359  15.5442
    15.5488  15.5572  15.6142  15.7047  15.8313  15.8553  15.9219  15.9562
    15.9596  16.0480  16.0959  16.1347  16.1679  16.2048  16.2700  16.3813
    16.3852  16.4251  16.4417  16.4593  16.4645  16.5667  16.6162  16.6179
    16.6542  16.6605  16.6621  16.7053  16.7179  16.7758  16.8066  16.8229
    16.8333  16.9343  16.9574  16.9643  16.9837  17.0475  17.0519  17.0536
    17.1140  17.1318  17.1700  17.2149  17.2220  17.2499  17.2556  17.2559
    17.2678  17.3127  17.3150  17.3605  17.3610  17.4167  17.4442  17.4533
    17.4632  17.5207  17.5523  17.5743  17.6718  17.7059  17.7354  17.7515
    17.7774  17.8310  17.8485  17.8788  17.8863  17.9491  17.9500  17.9517
    17.9871  18.0310  18.0456  18.0771  18.0889  18.1194  18.1721  18.2431
    18.3450  18.3611  18.3633  18.3862  18.4134  18.4373  18.4919  18.5020
    18.5457  18.5489  18.5665  18.6100

          k = 0.0000 0.0000 0.0282 ( 54044 PWs)   bands (ev):

   -20.6449 -20.5670 -20.4508 -20.2891 -20.0817 -19.8326 -19.5417 -19.2084
   -18.8320 -18.4057 -17.9473 -17.4544 -16.9308 -16.3836 -16.3105 -16.2375
   -16.1330 -15.9846 -15.8381 -15.7759 -15.5767 -15.3159 -15.2561 -15.0234
   -14.7889 -14.6978 -14.5424 -13.5709 -13.5315 -13.4786 -13.4166 -13.3319
   -13.2274 -13.2135 -13.1656 -13.0706 -12.9575 -12.9032 -12.8546 -12.6994
   -12.1956 -11.6550 -11.2646 -11.2576 -11.0972 -11.0087 -10.9251 -10.7305
   -10.4519 -10.4464 -10.3051  -9.9837  -9.8206  -9.7653  -9.5170  -9.1923
    -9.1671  -9.0333  -8.7186  -8.6503  -8.6294  -8.5624  -8.4935  -8.4927
    -8.3027  -8.1796  -8.0603  -8.0569  -7.8951  -7.7810  -7.7694  -7.6561
    -7.5377  -7.4310  -7.1915  -7.0536  -7.0456  -6.6142  -6.5816  -6.5767
    -6.1352  -6.1332  -6.0021  -5.7216  -5.6200  -5.4992  -5.3445  -5.1154
    -5.0755  -4.9944  -4.8501  -4.7092  -4.6679  -4.5686  -4.5075  -4.4943
    -4.0192  -3.9340  -3.9251  -3.7976  -3.6125  -3.3832  -3.3490  -3.1072
    -2.8123  -2.8026  -2.4879  -2.3693  -2.2192  -2.1401  -0.2877  -0.1809
    -0.0860   0.0988   0.3465   0.3954   0.6482   0.8393   0.9051   0.9710
     1.0544   1.1020   1.1228   1.5392   1.9037   2.0288   2.0644   2.1890
     2.2256   2.2932   2.5125   2.7114   2.9488   3.0212   3.2831   3.3173
     3.4298   3.5340   3.6610   3.6612   3.7216   3.7934   3.9186   3.9612
     4.1797   4.1804   4.3207   4.4892   4.4985   4.7517   4.7566   4.8111
     4.8535   4.9340   5.0078   5.1289   5.2386   5.2429   5.3679   5.4538
     5.4873   5.5470   5.8145   5.8220   6.0482   6.0900   6.1487   6.1651
     6.2718   6.3962   6.4913   6.5383   6.6407   6.8310   6.8426   6.9266
     6.9648   7.0519   7.1536   7.2284   7.2569   7.2682   7.2709   7.2987
     7.3420   7.3725   7.3888   7.4206   7.5017   7.5454   7.6125   7.6972
     7.7463   7.7839   7.8800   7.8922   7.9691   8.0810   8.1337   8.1751
     8.1806   8.1984   8.2075   8.2346   8.2676   8.3207   8.4299   8.4381
     8.5017   8.5329   8.5378   8.5752   8.6528   8.6947   8.8028   8.8210
     8.8228   8.8366   8.9861   9.1169   9.2193   9.2212   9.2922   9.3506
     9.4026   9.4145   9.4158   9.4293   9.4321   9.5031   9.5865   9.5881
     9.6262   9.6349   9.6387   9.6665   9.6691   9.6898   9.6906   9.7019
     9.7109   9.7409   9.7409   9.7781   9.7818   9.8076   9.8130   9.8350
     9.8456   9.9388   9.9459   9.9821   9.9956  10.0354  10.0493  10.0850
    10.1550  10.3227  10.3428  10.4305  10.4944  10.5042  10.5165  10.5752
    10.5836  10.6324  10.8045  10.8165  10.8687  10.9162  10.9252  10.9449
    10.9859  11.0322  11.0343  11.1035  11.1229  11.1522  11.2601  11.2943
    11.3308  11.3789  11.4115  11.4315  11.4861  11.4915  11.5326  11.5646
    11.5757  11.6233  11.6559  11.6713  11.6930  11.7107  11.7205  11.7607
    11.7868  11.8151  11.8164  11.8655  11.8762  11.8992  11.9373  11.9733
    11.9848  12.0001  12.0483  12.0576  12.0925  12.1013  12.1107  12.1291
    12.1404  12.1452  12.1665  12.1710  12.1823  12.2106  12.2267  12.2806
    12.2822  12.3328  12.3450  12.3609  12.3823  12.4359  12.4432  12.4569
    12.4765  12.5208  12.5525  12.5698  12.6465  12.6605  12.6799  12.6854
    12.7069  12.7654  12.7943  12.8755  12.8935  12.8955  12.9376  13.0128
    13.0916  13.1158  13.1590  13.1624  13.2552  13.3185  13.3711  13.3857
    13.4812  13.5007  13.7360  13.7782  13.8222  13.9118  13.9149  13.9810
    14.0307  14.0399  14.0652  14.0799  14.1384  14.1961  14.2952  14.3609
    14.4397  14.4547  14.4690  14.5029  14.5539  14.5756  14.5903  14.6182
    14.6334  14.6532  14.6702  14.6773  14.7545  14.7623  14.7759  14.8017
    14.8372  14.8572  14.8604  14.8708  14.8984  14.9516  15.0307  15.0898
    15.1111  15.1139  15.1228  15.1465  15.1764  15.1843  15.2711  15.2739
    15.3153  15.3205  15.4001  15.4878  15.5052  15.5104  15.5291  15.5749
    15.5843  15.7082  15.7238  15.7392  15.8686  15.8822  16.0094  16.0342
    16.0387  16.0393  16.1190  16.1698  16.2017  16.2024  16.3004  16.3495
    16.3642  16.3739  16.4066  16.4112  16.4308  16.5936  16.6378  16.6596
    16.7059  16.7131  16.7206  16.7351  16.7842  16.7941  16.7959  16.8759
    16.8889  16.9576  16.9644  16.9982  17.0173  17.0233  17.0670  17.0972
    17.1086  17.1612  17.1631  17.1649  17.2020  17.2079  17.2124  17.2175
    17.2830  17.3485  17.3589  17.3899  17.3938  17.4087  17.4130  17.5052
    17.5492  17.5809  17.5829  17.6332  17.6584  17.6618  17.6999  17.7155
    17.7292  17.7968  17.7987  17.8514  17.8632  17.8721  17.8783  17.9179
    17.9511  18.0254  18.0285  18.1225  18.1413  18.1711  18.1840  18.2453
    18.2852  18.3610  18.3717  18.3779  18.4188  18.4967  18.5093  18.5173
    18.5174  18.5593  18.5781  18.5954

          k = 0.0000 0.0000 0.0329 ( 54042 PWs)   bands (ev):

   -20.6141 -20.5362 -20.4201 -20.2584 -20.0512 -19.8021 -19.5114 -19.1783
   -18.8021 -18.3761 -17.9182 -17.4260 -16.9037 -16.4945 -16.4238 -16.3574
   -16.3151 -16.1640 -15.9822 -15.7922 -15.7521 -15.4868 -15.2720 -15.1659
   -14.9152 -14.7561 -14.6610 -13.6237 -13.5694 -13.2868 -13.2496 -13.1889
   -13.1674 -13.1002 -12.9933 -12.8593 -12.8359 -12.8111 -12.7270 -12.6731
   -12.3292 -11.7878 -11.2387 -11.1170 -11.0994 -10.8819 -10.8588 -10.6136
   -10.5222 -10.3721 -10.1899  -9.9286  -9.8555  -9.7097  -9.3828  -9.2727
    -9.1543  -8.9118  -8.6817  -8.6185  -8.6151  -8.5926  -8.4560  -8.4321
    -8.2662  -8.1464  -8.0240  -7.9878  -7.9459  -7.7760  -7.7334  -7.6218
    -7.4707  -7.3955  -7.2850  -7.0108  -6.9954  -6.6733  -6.5803  -6.5430
    -6.1186  -6.1006  -6.0959  -5.7286  -5.5893  -5.5867  -5.3782  -5.1901
    -5.0613  -5.0478  -4.9261  -4.8013  -4.7505  -4.6503  -4.5563  -4.4845
    -4.1674  -4.0808  -3.9479  -3.9125  -3.7646  -3.5361  -3.3502  -3.2666
    -2.9673  -2.8374  -2.6576  -2.4440  -2.3852  -2.2753  -0.1702  -0.0439
    -0.0164   0.2699   0.3394   0.5716   0.8287   0.8666   1.0242   1.1598
     1.2463   1.2959   1.3180   1.4829   1.9453   2.0702   2.1064   2.1581
     2.2308   2.3352   2.5544   2.7535   2.8741   3.0630   3.3253   3.3588
     3.4646   3.5804   3.6509   3.7028   3.7071   3.8357   3.9605   4.0034
     4.2203   4.2226   4.3624   4.4097   4.5401   4.7930   4.7972   4.8531
     4.8949   4.9755   5.0495   5.1705   5.1723   5.2839   5.3948   5.4819
     5.5282   5.5856   5.8558   5.8633   6.0193   6.0846   6.1827   6.2114
     6.3187   6.4098   6.5271   6.5514   6.6523   6.7446   6.8794   6.9459
     7.0145   7.0764   7.1999   7.2370   7.2499   7.2538   7.2548   7.2851
     7.2901   7.3642   7.3819   7.4043   7.4248   7.4549   7.5821   7.6834
     7.7318   7.7925   7.8415   7.9037   7.9215   7.9260   7.9768   7.9774
     8.1062   8.1253   8.1336   8.1485   8.2276   8.2751   8.2871   8.3371
     8.4229   8.4609   8.4970   8.5453   8.5535   8.6286   8.7014   8.7072
     8.7485   8.7636   8.8600   8.9074   9.0784   9.1483   9.1604   9.1823
     9.2587   9.3643   9.3731   9.4176   9.4278   9.4429   9.4497   9.4655
     9.4912   9.5052   9.5169   9.5581   9.5963   9.6173   9.6322   9.6466
     9.6494   9.6636   9.6968   9.7078   9.7239   9.7791   9.7982   9.8094
     9.8467   9.8617   9.8666   9.9068   9.9357  10.0047  10.0156  10.0295
    10.0303  10.2487  10.2649  10.3342  10.3503  10.4135  10.4988  10.5249
    10.5988  10.6222  10.6421  10.6452  10.6769  10.7357  10.7830  10.8614
    10.9375  10.9855  11.0100  11.0511  11.0578  11.0886  11.1224  11.2140
    11.2867  11.3531  11.3576  11.4532  11.4548  11.4651  11.5265  11.5310
    11.5358  11.5390  11.5636  11.5715  11.6639  11.6770  11.7354  11.7472
    11.8098  11.8274  11.8763  11.8907  11.9383  11.9670  11.9796  11.9814
    12.0610  12.0922  12.0922  12.1313  12.1364  12.1514  12.1824  12.1854
    12.2005  12.2035  12.2217  12.2371  12.2647  12.3142  12.3349  12.3386
    12.3569  12.3657  12.3687  12.3922  12.4096  12.4321  12.4909  12.5052
    12.5313  12.5425  12.5591  12.6222  12.6311  12.6408  12.7296  12.7369
    12.7531  12.7828  12.7888  12.9029  12.9338  12.9346  12.9919  13.0198
    13.0383  13.1855  13.2025  13.2270  13.2985  13.3313  13.3791  13.4021
    13.5404  13.5994  13.6725  13.7238  13.7943  13.7946  13.9158  13.9761
    14.0393  14.0772  14.1028  14.1424  14.1473  14.2543  14.3227  14.3800
    14.4118  14.4857  14.5110  14.5254  14.5865  14.6456  14.6567  14.7601
    14.7615  14.8042  14.8054  14.8242  14.8305  14.8498  14.8701  14.8752
    14.9218  14.9450  14.9535  14.9637  14.9729  14.9750  15.0029  15.0566
    15.0694  15.0924  15.1200  15.1719  15.1750  15.1845  15.3163  15.3929
    15.4423  15.4540  15.4547  15.4777  15.4903  15.5627  15.5702  15.6246
    15.7608  15.7644  15.7885  15.8500  15.9099  16.0130  16.0143  16.0186
    16.0376  16.0669  16.1210  16.1432  16.1589  16.2489  16.3229  16.3543
    16.3620  16.3709  16.4371  16.4563  16.4903  16.6236  16.6719  16.7204
    16.7239  16.7265  16.7628  16.7755  16.7784  16.8152  16.8156  16.8541
    16.8782  16.8969  16.9158  17.0146  17.0185  17.0241  17.0346  17.0461
    17.0757  17.1335  17.1378  17.1590  17.1820  17.1860  17.2132  17.2666
    17.3261  17.3673  17.4261  17.4553  17.4715  17.4913  17.5100  17.5159
    17.5431  17.5472  17.5568  17.5885  17.6742  17.6936  17.7154  17.7221
    17.7489  17.7783  17.7954  17.8146  17.8976  17.9049  17.9101  17.9183
    17.9878  18.0234  18.0466  18.0485  18.1229  18.1272  18.1581  18.2634
    18.3124  18.3416  18.3768  18.4037  18.4148  18.4807  18.5371  18.5625
    18.5659  18.6014  18.6031  18.6500

          k = 0.0000 0.0000 0.0376 ( 54064 PWs)   bands (ev):

   -20.5786 -20.5008 -20.3846 -20.2231 -20.0160 -19.7670 -19.4765 -19.1436
   -18.7677 -18.3421 -17.8846 -17.3933 -16.8729 -16.6775 -16.6048 -16.4962
   -16.3653 -16.3101 -16.1581 -15.9264 -15.7837 -15.6463 -15.3905 -15.2051
   -15.0694 -14.7980 -14.7883 -13.7053 -13.5761 -13.3928 -13.1242 -13.0144
   -12.9558 -12.9466 -12.8718 -12.7712 -12.6980 -12.6425 -12.5300 -12.5042
   -12.4552 -11.9235 -11.3534 -10.9873 -10.9580 -10.8284 -10.7152 -10.6492
   -10.3934 -10.3242 -10.0874  -9.9840  -9.7659  -9.6177  -9.3737  -9.2536
    -9.1090  -8.7874  -8.7212  -8.6392  -8.5763  -8.5502  -8.4137  -8.3248
    -8.2241  -8.1076  -8.0706  -7.9822  -7.8762  -7.7386  -7.6920  -7.5864
    -7.4461  -7.3546  -7.3405  -6.9706  -6.9460  -6.7726  -6.5411  -6.5117
    -6.1973  -6.1106  -6.0630  -5.7455  -5.6857  -5.5540  -5.4214  -5.2822
    -5.1361  -5.0168  -5.0160  -4.9114  -4.8424  -4.7343  -4.6264  -4.4583
    -4.3251  -4.2391  -4.1073  -3.9296  -3.8918  -3.6993  -3.4329  -3.3504
    -3.1364  -2.8739  -2.8225  -2.5649  -2.5121  -2.4136  -0.0511   0.0101
     0.1405   0.3318   0.4459   0.7539   0.8261   1.0190   1.2213   1.3626
     1.4211   1.4532   1.5058   1.5295   1.9931   2.0835   2.1179   2.1549
     2.2791   2.3838   2.6027   2.7913   2.8021   3.1112   3.3738   3.4066
     3.4725   3.6105   3.6327   3.7510   3.7540   3.8842   4.0088   4.0522
     4.2585   4.2711   4.3310   4.4104   4.5880   4.8406   4.8407   4.9014
     4.9427   5.0233   5.0896   5.0975   5.2185   5.3313   5.4383   5.5064
     5.5755   5.6291   5.9034   5.9105   5.9479   6.1235   6.2181   6.2636
     6.3724   6.4220   6.5555   6.5637   6.6479   6.6600   6.9189   6.9556
     7.0705   7.0958   7.2114   7.2138   7.2266   7.2423   7.2526   7.2769
     7.2842   7.3147   7.3235   7.3530   7.3994   7.4010   7.5582   7.5631
     7.6315   7.7166   7.7580   7.7974   7.8448   7.8449   7.9086   7.9422
     7.9601   7.9739   8.0480   8.0859   8.2272   8.2278   8.2562   8.2764
     8.3299   8.3519   8.4198   8.4895   8.5294   8.5575   8.5911   8.6222
     8.6879   8.7252   8.7875   8.8409   8.8607   9.0027   9.0586   9.0720
     9.0805   9.1124   9.1226   9.2122   9.2419   9.3453   9.3624   9.4072
     9.4346   9.4826   9.5017   9.5040   9.5098   9.5147   9.5361   9.5366
     9.5761   9.6277   9.6792   9.6887   9.7147   9.7238   9.7291   9.7595
     9.7714   9.8188   9.8266   9.9174   9.9652   9.9676   9.9958  10.0233
    10.0540  10.0658  10.1986  10.2078  10.3014  10.3427  10.3815  10.4384
    10.4393  10.4528  10.5595  10.5752  10.5914  10.6454  10.6563  10.6705
    10.7948  10.9054  10.9603  10.9628  11.0313  11.0737  11.0772  11.1887
    11.2171  11.2795  11.3083  11.3666  11.3987  11.4082  11.4258  11.4663
    11.4754  11.5010  11.5389  11.5752  11.7009  11.7280  11.7347  11.7850
    11.8095  11.8355  11.8710  11.8881  11.9574  11.9669  11.9812  11.9888
    12.0414  12.0758  12.0913  12.1223  12.1490  12.1797  12.1847  12.2009
    12.2439  12.2542  12.2594  12.2720  12.3344  12.3369  12.3572  12.4092
    12.4371  12.4498  12.4979  12.5249  12.5431  12.5548  12.5759  12.5825
    12.5860  12.6101  12.6115  12.6179  12.6719  12.7058  12.7400  12.7685
    12.7764  12.8213  12.8703  12.9002  12.9046  12.9212  12.9832  13.0537
    13.1150  13.2144  13.2703  13.3109  13.3790  13.3927  13.4855  13.4867
    13.4889  13.5926  13.6458  13.6507  13.6591  13.7137  13.9724  14.0108
    14.0623  14.0740  14.0753  14.0878  14.1504  14.1993  14.4095  14.4174
    14.4855  14.4996  14.5369  14.5456  14.6280  14.6837  14.7141  14.7190
    14.7559  14.8044  14.8150  14.8277  14.8662  14.9432  14.9460  14.9767
    14.9968  15.0237  15.0574  15.0805  15.0854  15.0885  15.1314  15.1513
    15.1740  15.2129  15.2277  15.2337  15.2375  15.3209  15.3540  15.3860
    15.4026  15.5318  15.5462  15.5619  15.6072  15.6344  15.6874  15.6905
    15.7673  15.7853  15.8350  15.9396  15.9458  15.9871  16.0252  16.0451
    16.1012  16.1301  16.1873  16.1885  16.2998  16.3173  16.3184  16.3736
    16.3991  16.4074  16.4262  16.5311  16.5484  16.5620  16.5950  16.6080
    16.6581  16.6690  16.6945  16.7193  16.7879  16.8012  16.8468  16.9048
    16.9400  16.9616  16.9684  16.9947  16.9990  17.0238  17.0600  17.0907
    17.1046  17.1605  17.1677  17.1751  17.2163  17.2402  17.2831  17.2873
    17.3203  17.3364  17.3689  17.4017  17.4697  17.4851  17.4856  17.4909
    17.5559  17.5806  17.6011  17.6156  17.7094  17.7148  17.7230  17.7266
    17.7560  17.7809  17.7811  17.8946  17.9348  17.9506  17.9556  17.9897
    18.0499  18.0634  18.0729  18.0895  18.1558  18.1805  18.2204  18.2679
    18.3089  18.3638  18.4063  18.4365  18.5127  18.5150  18.5628  18.5803
    18.5855  18.6088  18.6312  18.6529

          k = 0.0000 0.0000 0.0423 ( 54068 PWs)   bands (ev):

   -20.5384 -20.4606 -20.3445 -20.1831 -19.9761 -19.7273 -19.4370 -19.1043
   -18.7287 -18.3035 -17.8468 -17.3566 -16.8602 -16.8380 -16.7851 -16.6744
   -16.5289 -16.3333 -16.2980 -16.0951 -15.8620 -15.7140 -15.5505 -15.2264
   -15.2038 -14.9203 -14.8503 -13.7714 -13.6250 -13.4472 -13.1727 -12.9714
   -12.7746 -12.7184 -12.6758 -12.6380 -12.5431 -12.5084 -12.4246 -12.3414
   -12.3254 -12.0560 -11.4849 -10.9055 -10.8492 -10.7840 -10.6100 -10.5391
   -10.3236 -10.2219 -10.1143  -9.8531  -9.7303  -9.5309  -9.4113  -9.1575
    -9.0426  -8.8120  -8.6690  -8.5911  -8.5332  -8.5022  -8.3658  -8.2200
    -8.1765  -8.1716  -8.0627  -7.9349  -7.8009  -7.6851  -7.6451  -7.5639
    -7.5107  -7.3083  -7.2969  -6.9379  -6.9252  -6.8426  -6.4969  -6.4921
    -6.3028  -6.1134  -6.0205  -5.7940  -5.7739  -5.5142  -5.4761  -5.3899
    -5.2209  -5.1257  -5.0336  -4.9802  -4.9421  -4.8212  -4.7037  -4.4899
    -4.4292  -4.4042  -4.2730  -4.0942  -3.8763  -3.8679  -3.6031  -3.3588
    -3.3011  -3.0106  -2.8928  -2.7291  -2.6015  -2.5539   0.0668   0.0687
     0.2984   0.3286   0.6215   0.7817   0.9430   1.2164   1.3553   1.4279
     1.5765   1.6726   1.7288   1.7547   2.0030   2.0474   2.1719   2.2099
     2.3337   2.4388   2.6574   2.7016   2.8571   3.1659   3.4144   3.4288
     3.4609   3.6338   3.6902   3.8056   3.8085   3.9380   4.0636   4.1075
     4.2126   4.3261   4.3371   4.4648   4.6422   4.8743   4.8945   4.9561
     4.9968   5.0117   5.0776   5.1518   5.2727   5.3850   5.4908   5.5163
     5.6290   5.6769   5.8877   5.9572   5.9632   6.1617   6.2493   6.3216
     6.4295   6.4325   6.5424   6.5482   6.5886   6.6686   6.9465   6.9568
     7.0978   7.1301   7.1671   7.1698   7.1864   7.2225   7.2340   7.2435
     7.2609   7.3116   7.3125   7.3246   7.3450   7.3720   7.3973   7.4803
     7.4857   7.5315   7.6147   7.6416   7.7331   7.7851   7.8650   7.8909
     7.9017   7.9934   7.9963   8.0586   8.1150   8.1233   8.2024   8.2636
     8.2992   8.3308   8.3528   8.3890   8.4401   8.4908   8.5350   8.5958
     8.6209   8.6593   8.7286   8.7639   8.8372   8.8621   8.8672   8.8736
     8.8820   8.9438   8.9848   8.9977   9.0587   9.1889   9.2071   9.2467
     9.2546   9.3043   9.3198   9.3693   9.4745   9.5378   9.5464   9.5552
     9.5591   9.5870   9.5888   9.6276   9.6515   9.7209   9.7305   9.7365
     9.7484   9.7986   9.8088   9.8131   9.9160   9.9726  10.0036  10.0446
    10.0571  10.1063  10.1123  10.1141  10.1490  10.2010  10.2013  10.2151
    10.3010  10.3479  10.4578  10.4684  10.5267  10.5847  10.6007  10.6890
    10.7217  10.7258  10.7386  10.9825  11.0106  11.0159  11.0682  11.0814
    11.1272  11.1722  11.1853  11.2839  11.2890  11.3584  11.3770  11.4528
    11.5469  11.5697  11.5762  11.6050  11.6138  11.6367  11.7535  11.7772
    11.8027  11.8397  11.8791  11.9284  11.9304  11.9391  11.9923  11.9938
    12.0399  12.0448  12.1375  12.1553  12.1562  12.1667  12.1685  12.2065
    12.2335  12.2443  12.2829  12.3067  12.3114  12.3476  12.3729  12.4266
    12.4701  12.4897  12.5050  12.5114  12.5984  12.6059  12.6412  12.6554
    12.6643  12.6651  12.6915  12.7298  12.7961  12.8223  12.8426  12.8535
    12.8622  12.8913  12.9230  12.9352  12.9841  13.0359  13.0892  13.0965
    13.1364  13.2521  13.2848  13.3084  13.4204  13.4423  13.4581  13.4608
    13.4819  13.5022  13.6267  13.6322  13.6774  13.7759  13.8646  13.9728
    13.9888  14.0598  14.1228  14.1352  14.1729  14.2493  14.4080  14.4182
    14.4696  14.4708  14.5744  14.5913  14.5988  14.6381  14.6866  14.7495
    14.7661  14.7950  14.8453  14.9093  14.9170  15.0121  15.0382  15.0616
    15.0777  15.1099  15.1199  15.1465  15.1698  15.1792  15.2320  15.2439
    15.2883  15.2934  15.3337  15.3845  15.4130  15.4377  15.4621  15.4798
    15.5563  15.5961  15.6024  15.6033  15.6776  15.7048  15.7203  15.7531
    15.7590  15.8053  15.8603  15.9602  15.9662  15.9935  16.0669  16.1155
    16.2189  16.2451  16.2810  16.2893  16.3457  16.3528  16.3732  16.3775
    16.4034  16.4154  16.4521  16.4591  16.4699  16.5050  16.5711  16.6086
    16.6413  16.6582  16.6623  16.6896  16.7502  16.8152  16.8256  16.9091
    16.9305  16.9388  16.9726  17.0361  17.0716  17.0889  17.1275  17.1707
    17.2082  17.2161  17.2190  17.2442  17.2617  17.2828  17.3040  17.3072
    17.3340  17.3589  17.3631  17.3878  17.3977  17.4013  17.4954  17.5187
    17.5771  17.5936  17.6056  17.6191  17.6437  17.6727  17.7317  17.7661
    17.8088  17.8309  17.8338  17.9532  17.9821  17.9889  17.9932  18.0022
    18.1053  18.1141  18.1551  18.2188  18.2205  18.3433  18.3509  18.4105
    18.4120  18.4184  18.4597  18.4728  18.4972  18.5450  18.5659  18.5819
    18.6004  18.6142  18.6489  18.6961

          k = 0.0000 0.0000 0.0469 ( 54088 PWs)   bands (ev):

   -20.4935 -20.4157 -20.2997 -20.1384 -19.9315 -19.6829 -19.3928 -19.0604
   -18.6852 -18.2606 -17.8046 -17.3161 -17.0372 -16.9628 -16.8610 -16.7931
   -16.7032 -16.5050 -16.3153 -16.2158 -16.0194 -15.7129 -15.6997 -15.3810
   -15.2070 -15.0494 -14.9172 -13.8198 -13.7191 -13.4451 -13.2895 -12.9294
   -12.7810 -12.5310 -12.4789 -12.4488 -12.4001 -12.3002 -12.2613 -12.1872
   -12.1293 -12.1251 -11.6179 -11.0224 -10.6998 -10.6139 -10.5110 -10.4065
   -10.3476 -10.0904 -10.0441  -9.7606  -9.6876  -9.5280  -9.2940  -9.1353
    -8.9688  -8.8349  -8.5765  -8.5374  -8.4816  -8.4486  -8.3124  -8.2578
    -8.1250  -8.1233  -8.0105  -7.8820  -7.7356  -7.6434  -7.6202  -7.5928
    -7.4912  -7.2566  -7.2368  -7.0257  -6.8745  -6.8289  -6.4989  -6.4475
    -6.3980  -6.1295  -5.9732  -5.9093  -5.8152  -5.5437  -5.5117  -5.4698
    -5.3171  -5.2577  -5.1597  -5.0483  -4.9405  -4.9122  -4.7875  -4.6591
    -4.5738  -4.4458  -4.3947  -4.2651  -4.0398  -3.8608  -3.7721  -3.4902
    -3.3453  -3.1823  -2.9329  -2.8948  -2.6950  -2.6938   0.1279   0.1883
     0.3292   0.4550   0.7389   0.7980   1.1336   1.2844   1.4209   1.6416
     1.7992   1.9017   1.9179   1.9626   1.9911   2.1079   2.2322   2.2714
     2.3947   2.5003   2.6060   2.7187   2.9186   3.2270   3.3227   3.4902
     3.5214   3.6903   3.7505   3.8666   3.8694   3.9925   4.1240   4.1247
     4.1693   4.3874   4.3946   4.5254   4.7026   4.8375   4.9545   5.0019
     5.0171   5.0574   5.1382   5.2122   5.3330   5.4449   5.4938   5.5499
     5.6887   5.7275   5.8580   6.0171   6.0194   6.1917   6.2587   6.3841
     6.4306   6.4319   6.4989   6.5372   6.5771   6.6968   6.9159   6.9796
     7.0677   7.1008   7.1068   7.1216   7.1323   7.1356   7.1850   7.2133
     7.2168   7.2432   7.2446   7.2798   7.3218   7.3406   7.3645   7.3766
     7.3939   7.4704   7.4905   7.5591   7.6141   7.6687   7.7202   7.7402
     7.8871   7.9104   7.9589   7.9954   8.0998   8.1493   8.1502   8.2005
     8.2793   8.2991   8.3102   8.3266   8.3682   8.4379   8.4469   8.5761
     8.5803   8.6189   8.6235   8.6324   8.6461   8.6797   8.7217   8.7946
     8.8064   8.8234   8.8873   8.9127   8.9134   9.0009   9.0031   9.0881
     9.0976   9.1049   9.1686   9.2237   9.3419   9.4412   9.4514   9.4529
     9.5073   9.5599   9.5965   9.6205   9.6219   9.6860   9.6895   9.6999
     9.7372   9.7927   9.8299   9.8583   9.8651   9.8880   9.9142   9.9505
     9.9982  10.0219  10.0229  10.0274  10.0607  10.0861  10.1211  10.1750
    10.2492  10.2778  10.3056  10.3763  10.4680  10.4893  10.5172  10.5824
    10.6468  10.7322  10.7824  10.8065  10.8477  10.8884  10.9749  11.0017
    11.0767  11.1306  11.2151  11.2230  11.2303  11.3014  11.3124  11.4822
    11.5063  11.5130  11.5785  11.6103  11.6141  11.6402  11.6908  11.7036
    11.8251  11.8926  11.8968  11.9239  11.9443  11.9523  11.9647  11.9908
    12.0291  12.0448  12.1066  12.1103  12.1301  12.1608  12.2106  12.2388
    12.2597  12.2783  12.3105  12.3258  12.3453  12.3609  12.3760  12.4165
    12.4435  12.4881  12.5131  12.5298  12.5644  12.5847  12.5997  12.6284
    12.6970  12.7443  12.7613  12.8147  12.8674  12.8968  12.8999  12.9590
    12.9636  13.0454  13.0540  13.0849  13.1082  13.1330  13.1545  13.2270
    13.2486  13.2625  13.2648  13.2853  13.3090  13.4036  13.4359  13.4756
    13.4866  13.5143  13.6388  13.6628  13.6891  13.7307  13.7977  13.9490
    13.9786  14.0744  14.1118  14.1363  14.2042  14.2593  14.3296  14.4074
    14.4153  14.4329  14.5989  14.6210  14.6473  14.6529  14.6611  14.7671
    14.7944  14.8948  14.9526  14.9823  14.9897  15.0443  15.0509  15.0805
    15.1108  15.1171  15.1626  15.2303  15.2685  15.2954  15.3167  15.3369
    15.3395  15.3746  15.4968  15.5106  15.5285  15.5412  15.5727  15.5874
    15.6124  15.6182  15.6967  15.7148  15.7288  15.7725  15.7881  15.8139
    15.8210  15.8531  15.9281  16.0345  16.0428  16.0636  16.0795  16.1383
    16.1680  16.2019  16.2451  16.2716  16.2726  16.3198  16.3914  16.4167
    16.4306  16.4310  16.4633  16.4957  16.5081  16.5286  16.6088  16.6128
    16.6352  16.6649  16.6693  16.7899  16.8201  16.8301  16.9060  16.9155
    16.9615  16.9843  17.0602  17.0972  17.1314  17.1406  17.1416  17.1914
    17.2015  17.2148  17.2175  17.2582  17.2793  17.2933  17.2946  17.3025
    17.3118  17.3548  17.3874  17.3980  17.4227  17.4661  17.5094  17.5482
    17.5769  17.6644  17.6802  17.7047  17.7192  17.7624  17.8035  17.8179
    17.8370  17.8674  17.8847  17.9452  17.9702  18.0087  18.0477  18.0788
    18.1890  18.1997  18.2173  18.2875  18.3201  18.3461  18.4362  18.4491
    18.5060  18.5069  18.5565  18.5612  18.5739  18.5767  18.5868  18.6244
    18.6291  18.6561  18.7042  18.7218

          k = 0.0000 0.0000 0.0516 ( 54132 PWs)   bands (ev):

   -20.4438 -20.3661 -20.2502 -20.0890 -19.8823 -19.6339 -19.3440 -19.0120
   -18.6372 -18.2132 -17.7584 -17.2730 -17.2126 -17.1368 -17.0297 -16.8748
   -16.7702 -16.6623 -16.4584 -16.2061 -16.1825 -15.8719 -15.6856 -15.5234
   -15.2530 -15.1414 -14.9988 -13.8509 -13.8214 -13.4226 -13.4151 -12.9096
   -12.8776 -12.3659 -12.3542 -12.2838 -12.2297 -12.1589 -12.0670 -12.0157
   -11.9682 -11.9323 -11.7431 -11.1496 -10.5807 -10.4680 -10.4528 -10.3757
   -10.1701 -10.0246  -9.8779  -9.8340  -9.5180  -9.4953  -9.1918  -9.1430
    -8.9328  -8.7394  -8.5592  -8.4782  -8.4212  -8.3894  -8.2789  -8.2534
    -8.0646  -8.0499  -7.9532  -7.8237  -7.7372  -7.6771  -7.5516  -7.5350
    -7.4447  -7.1996  -7.1814  -7.1377  -6.8185  -6.8026  -6.5750  -6.4403
    -6.3931  -6.1634  -6.0273  -5.9210  -5.8705  -5.6465  -5.6247  -5.4249
    -5.4211  -5.4131  -5.2859  -5.1592  -5.0074  -4.8974  -4.8769  -4.8315
    -4.7461  -4.6172  -4.4383  -4.3631  -4.2119  -3.9578  -3.8288  -3.6630
    -3.3543  -3.3505  -3.0589  -2.9774  -2.8359  -2.7906   0.1934   0.3004
     0.3419   0.6086   0.6986   0.9741   1.2137   1.3261   1.6274   1.8243
     1.8651   2.0289   2.1395   2.1747   2.2053   2.2370   2.2987   2.3393
     2.4622   2.5054   2.5683   2.7864   2.9867   3.2188   3.2946   3.5579
     3.5884   3.7597   3.8033   3.9339   3.9368   3.9976   4.0958   4.1922
     4.2376   4.4549   4.4615   4.5916   4.7386   4.7693   5.0205   5.0537
     5.0844   5.1243   5.2052   5.2786   5.3990   5.4292   5.5110   5.6139
     5.7545   5.7778   5.8691   6.0694   6.0825   6.1981   6.2221   6.3095
     6.4455   6.4564   6.5321   6.5456   6.5712   6.7375   6.8362   6.8831
     6.9588   6.9794   7.0128   7.0178   7.0451   7.0464   7.1222   7.1237
     7.1926   7.2266   7.2438   7.2721   7.2838   7.2855   7.2973   7.3913
     7.4095   7.4467   7.4535   7.4838   7.5051   7.5996   7.6008   7.7131
     7.7207   7.7493   7.7715   7.9931   8.0173   8.0926   8.1059   8.1669
     8.1763   8.2388   8.3321   8.3444   8.3672   8.3722   8.4030   8.4143
     8.4491   8.4884   8.5306   8.5403   8.5632   8.5862   8.6557   8.6929
     8.7483   8.7561   8.7841   8.7861   8.8275   8.8789   8.9072   8.9085
     8.9588   8.9795   9.0666   9.1393   9.1840   9.2369   9.2813   9.3070
     9.3767   9.4443   9.5813   9.6072   9.6209   9.6408   9.6657   9.6827
     9.6891   9.7285   9.7313   9.7467   9.7700   9.8469   9.8541   9.8764
     9.9209   9.9274  10.0107  10.0290  10.0321  10.0363  10.0852  10.0969
    10.1776  10.2395  10.2585  10.3536  10.3601  10.4111  10.4406  10.5732
    10.5938  10.6008  10.6969  10.7478  10.7580  10.8091  10.8502  10.9202
    11.0163  11.1403  11.1407  11.2226  11.2452  11.2646  11.2956  11.3118
    11.4351  11.4594  11.5114  11.5809  11.6426  11.6532  11.6808  11.7549
    11.7682  11.8823  11.8890  11.9274  11.9496  11.9619  11.9976  12.0403
    12.0552  12.0574  12.0590  12.0773  12.1073  12.2233  12.2255  12.2284
    12.2442  12.2855  12.3119  12.3198  12.3294  12.3298  12.3810  12.4102
    12.4236  12.4764  12.5604  12.5872  12.5886  12.5890  12.6556  12.6619
    12.7013  12.7757  12.8210  12.8223  12.8863  12.9235  12.9452  12.9485
    12.9516  13.0281  13.0840  13.0968  13.1126  13.1995  13.2194  13.2779
    13.3465  13.3873  13.4001  13.4315  13.4417  13.4497  13.4515  13.4777
    13.5060  13.5685  13.5736  13.5881  13.7374  13.7559  13.7916  13.9078
    13.9225  13.9778  14.0651  14.1605  14.1729  14.2495  14.2661  14.3015
    14.4163  14.5325  14.5911  14.6744  14.6772  14.7265  14.7366  14.7986
    14.8164  14.9214  14.9559  15.0064  15.0430  15.0583  15.0849  15.1111
    15.1585  15.1759  15.2560  15.2980  15.3140  15.3322  15.4203  15.4522
    15.4794  15.4927  15.5104  15.5364  15.5669  15.6217  15.6282  15.6537
    15.6628  15.7189  15.7247  15.7593  15.7788  15.8199  15.8620  15.8755
    15.9524  15.9660  16.0140  16.0238  16.0281  16.0578  16.0874  16.1437
    16.1484  16.2320  16.2327  16.2384  16.2657  16.3139  16.3304  16.4195
    16.4577  16.4790  16.4891  16.5225  16.5309  16.5661  16.6302  16.6651
    16.7149  16.7150  16.7255  16.8308  16.8345  16.8879  16.9958  16.9996
    17.0256  17.0850  17.0980  17.1126  17.1345  17.1469  17.1925  17.2103
    17.2125  17.2524  17.2530  17.2617  17.2951  17.2998  17.3259  17.3717
    17.3915  17.3971  17.4281  17.4563  17.4876  17.4951  17.5413  17.6014
    17.6295  17.6407  17.7759  17.8049  17.8091  17.8260  17.8460  17.8692
    17.8927  17.9606  18.0086  18.0296  18.0568  18.0680  18.1518  18.1701
    18.1738  18.2237  18.3158  18.3245  18.3439  18.3665  18.3684  18.4291
    18.4871  18.5647  18.5946  18.6453  18.6498  18.6684  18.6774  18.7191
    18.7416  18.7457  18.7503  18.7672

          k = 0.0000 0.0000 0.0563 ( 54124 PWs)   bands (ev):

   -20.3895 -20.3118 -20.1960 -20.0349 -19.8284 -19.5802 -19.2907 -18.9591
   -18.5848 -18.1616 -17.7083 -17.3846 -17.3122 -17.2245 -17.1995 -17.0405
   -16.8627 -16.6943 -16.6202 -16.3427 -16.1819 -16.0176 -15.7395 -15.5932
   -15.3707 -15.1695 -15.0931 -13.9164 -13.8689 -13.5350 -13.3965 -13.0338
   -12.8306 -12.4736 -12.2871 -12.0336 -11.9821 -11.9193 -11.8966 -11.8744
   -11.8249 -11.7481 -11.7140 -11.2758 -10.6600 -10.3364 -10.3124 -10.2091
   -10.0005  -9.9530  -9.9270  -9.6775  -9.4403  -9.3549  -9.2814  -8.9890
    -8.8875  -8.6261  -8.6105  -8.4133  -8.3683  -8.3247  -8.2092  -8.1889
    -8.0190  -8.0004  -7.9109  -7.7774  -7.7599  -7.6216  -7.4891  -7.4718
    -7.3926  -7.2497  -7.1373  -7.1347  -6.7843  -6.7573  -6.6912  -6.4588
    -6.3336  -6.2300  -6.1334  -5.9416  -5.8641  -5.7922  -5.7200  -5.5859
    -5.5440  -5.4147  -5.3681  -5.2739  -5.1068  -5.0053  -4.9711  -4.9214
    -4.8499  -4.7912  -4.6119  -4.3972  -4.3151  -4.1299  -3.8362  -3.8101
    -3.5244  -3.3586  -3.2192  -3.0319  -2.9712  -2.8911   0.2629   0.3348
     0.4375   0.6519   0.7694   1.1288   1.1628   1.5193   1.7357   1.8368
     2.0855   2.2479   2.2634   2.3715   2.3835   2.4015   2.4137   2.4555
     2.4906   2.5360   2.6428   2.8605   3.0612   3.1079   3.3687   3.6320
     3.6616   3.7972   3.8370   3.9781   4.0076   4.0106   4.1581   4.2660
     4.3125   4.5286   4.5354   4.6158   4.6723   4.8419   5.0921   5.1211
     5.1580   5.1975   5.2786   5.3334   5.3507   5.4702   5.5828   5.6801
     5.8181   5.8254   5.9117   6.0460   6.1428   6.1757   6.1896   6.2077
     6.4520   6.5246   6.5319   6.5353   6.6496   6.6529   6.6981   6.7734
     6.8054   6.8405   6.8828   6.9453   6.9951   7.0045   7.0140   7.0750
     7.1255   7.1532   7.2046   7.2225   7.2555   7.3113   7.3352   7.3620
     7.4018   7.4393   7.4437   7.4461   7.5079   7.5291   7.5428   7.5634
     7.5824   7.6482   7.7931   7.8204   7.8571   7.9082   7.9984   8.1050
     8.1162   8.1471   8.1581   8.2139   8.2214   8.3556   8.3575   8.3648
     8.3777   8.4313   8.5042   8.5229   8.5382   8.5798   8.5802   8.5839
     8.6100   8.6380   8.6871   8.7055   8.7658   8.7708   8.8810   8.9137
     8.9156   8.9210   9.0108   9.0289   9.0297   9.0338   9.1106   9.1573
     9.2927   9.3672   9.3728   9.3997   9.4537   9.4759   9.5279   9.5550
     9.6106   9.6693   9.7277   9.7608   9.7938   9.8148   9.8207   9.8510
     9.8874   9.9209   9.9738   9.9930   9.9954  10.0038  10.0157  10.1086
    10.1268  10.1610  10.2445  10.3075  10.3252  10.4015  10.4170  10.4323
    10.4441  10.5473  10.5952  10.6337  10.7512  10.7635  10.8597  10.9241
    10.9612  11.0258  11.0824  11.1140  11.1945  11.2505  11.2798  11.3227
    11.3557  11.3882  11.4390  11.4952  11.6119  11.6962  11.7152  11.7514
    11.8084  11.8289  11.8582  11.9482  11.9485  11.9530  11.9786  12.0028
    12.0594  12.0913  12.1048  12.1189  12.1586  12.1682  12.1811  12.2138
    12.2554  12.2807  12.2852  12.3301  12.3387  12.3541  12.3945  12.4413
    12.4643  12.4924  12.5302  12.5600  12.5958  12.6206  12.6557  12.6856
    12.7145  12.7828  12.8077  12.8418  12.8797  12.9097  12.9133  12.9491
    12.9931  13.0185  13.0364  13.0908  13.1747  13.1979  13.2486  13.2664
    13.3320  13.4693  13.4771  13.4835  13.4987  13.5161  13.5261  13.5676
    13.5926  13.6299  13.6975  13.7207  13.7324  13.7676  13.8425  13.8611
    13.8618  13.8914  13.9474  14.1714  14.1858  14.2137  14.2361  14.3455
    14.3755  14.5051  14.6001  14.7030  14.7193  14.7476  14.7481  14.8199
    14.8327  14.9101  14.9805  14.9851  15.0286  15.1443  15.2277  15.2380
    15.2671  15.2763  15.2878  15.3393  15.3403  15.3755  15.4299  15.4308
    15.4756  15.5268  15.5492  15.6287  15.6331  15.6425  15.6596  15.6715
    15.6899  15.6921  15.7943  15.8128  15.8539  15.8686  15.8912  15.9196
    15.9390  15.9587  16.0020  16.0264  16.0619  16.0886  16.1144  16.1440
    16.1949  16.1985  16.2532  16.2809  16.3017  16.3302  16.3854  16.4603
    16.4821  16.5603  16.5685  16.5698  16.6431  16.6647  16.6847  16.6914
    16.7238  16.7866  16.7876  16.8174  16.8273  16.8626  16.9804  17.0335
    17.0626  17.0742  17.1604  17.1726  17.1890  17.1996  17.2137  17.2203
    17.2333  17.2754  17.3122  17.3210  17.3679  17.4080  17.4823  17.4863
    17.5048  17.5212  17.5300  17.5504  17.6102  17.6133  17.6357  17.6559
    17.7125  17.7467  17.7596  17.7834  17.8262  17.8926  17.9024  17.9097
    17.9246  18.0427  18.0530  18.0957  18.1394  18.2187  18.2198  18.2367
    18.2548  18.2836  18.3151  18.3334  18.3432  18.4437  18.5148  18.5174
    18.5711  18.5882  18.5933  18.6418  18.6851  18.6879  18.7264  18.7353
    18.8233  18.8589  18.8913  18.9391

          k = 0.0000 0.0000 0.0610 ( 54114 PWs)   bands (ev):

   -20.3305 -20.2528 -20.1372 -19.9762 -19.7699 -19.5220 -19.2328 -18.9016
   -18.5279 -18.1058 -17.6554 -17.5528 -17.4786 -17.3654 -17.2341 -17.1474
   -17.0209 -16.7800 -16.6619 -16.4914 -16.2328 -16.0803 -15.8735 -15.5803
   -15.5064 -15.1968 -15.1889 -13.9974 -13.8843 -13.6377 -13.3841 -13.1358
   -12.8096 -12.5664 -12.2362 -11.9838 -11.7815 -11.7608 -11.7317 -11.6652
   -11.5919 -11.5316 -11.5315 -11.3880 -10.7803 -10.2127 -10.1579 -10.0754
    -9.9685  -9.8839  -9.7685  -9.4993  -9.3989  -9.3737  -9.1718  -8.8409
    -8.8325  -8.7212  -8.4793  -8.3430  -8.3129  -8.2545  -8.1189  -8.1096
    -8.0761  -7.9307  -7.8696  -7.7324  -7.6907  -7.5723  -7.4537  -7.4032
    -7.3363  -7.3356  -7.0996  -7.0696  -6.8161  -6.7776  -6.6910  -6.4843
    -6.3445  -6.2692  -6.2125  -6.0345  -5.9425  -5.8332  -5.8026  -5.7682
    -5.6733  -5.5475  -5.3914  -5.3112  -5.2098  -5.1796  -5.0951  -5.0695
    -4.9652  -4.8151  -4.7712  -4.5665  -4.3029  -4.2811  -4.0074  -3.7942
    -3.6876  -3.4053  -3.3411  -3.1340  -3.0632  -2.9948   0.3362   0.3502
     0.5577   0.6160   0.9216   1.0666   1.3283   1.6372   1.7180   2.0475
     2.2922   2.3119   2.3272   2.4505   2.4945   2.5050   2.6163   2.6326
     2.7113   2.7237   2.7505   2.9411   2.9925   3.1422   3.4492   3.7066
     3.7122   3.7413   3.9204   4.0344   4.0876   4.0905   4.2369   4.3451
     4.3938   4.4994   4.6084   4.6156   4.7479   4.9204   5.1642   5.1949
     5.2247   5.2374   5.2770   5.3584   5.4271   5.5442   5.6580   5.7399
     5.8213   5.8814   5.9455   5.9735   6.0781   6.1150   6.2376   6.2678
     6.3139   6.4248   6.5530   6.5708   6.5750   6.6133   6.6442   6.6941
     6.7338   6.7679   6.7823   6.8001   6.9098   6.9757   6.9920   7.0001
     7.0364   7.0437   7.1525   7.2198   7.2729   7.2859   7.2890   7.2982
     7.3569   7.3847   7.4310   7.4387   7.4459   7.4988   7.5010   7.6047
     7.6065   7.6197   7.6482   7.7034   7.7471   7.8176   7.8656   7.9153
     7.9194   7.9516   7.9614   8.0793   8.1347   8.2448   8.2815   8.2904
     8.3299   8.3476   8.3637   8.3731   8.4318   8.4894   8.5110   8.5188
     8.6818   8.7016   8.7182   8.7184   8.7220   8.7815   8.7893   8.8251
     8.8416   8.8561   8.8834   8.9301   8.9833   9.0271   9.0948   9.1080
     9.1279   9.1305   9.1634   9.2217   9.3256   9.3384   9.3461   9.4745
     9.4876   9.4881   9.5971   9.6652   9.7066   9.8151   9.8394   9.8979
     9.9064   9.9328   9.9540   9.9647   9.9681  10.0080  10.0383  10.0440
    10.0715  10.1259  10.2221  10.2335  10.2479  10.2997  10.3656  10.3800
    10.4369  10.4718  10.5123  10.6668  10.6974  10.7379  10.8102  10.8480
    10.9544  10.9885  11.0209  11.0332  11.0977  11.2136  11.2341  11.2597
    11.3156  11.3485  11.4285  11.4364  11.6161  11.6744  11.7233  11.7370
    11.7846  11.8283  11.8706  11.9051  11.9672  11.9822  12.0088  12.0201
    12.0283  12.0390  12.1088  12.1401  12.1604  12.1689  12.1999  12.2102
    12.2194  12.2493  12.3101  12.3305  12.3364  12.3785  12.4077  12.4630
    12.4841  12.4988  12.5156  12.5676  12.5925  12.6100  12.6688  12.6727
    12.7013  12.7092  12.7496  12.8067  12.9108  12.9195  12.9457  12.9809
    12.9863  13.0344  13.0997  13.1001  13.1099  13.2027  13.2238  13.3205
    13.3255  13.4515  13.4562  13.4660  13.4861  13.5586  13.5963  13.6101
    13.6371  13.7035  13.7297  13.7420  13.7828  13.8060  13.8519  13.9102
    13.9511  13.9703  14.0428  14.1709  14.2123  14.2245  14.2902  14.3057
    14.4318  14.4819  14.5199  14.6144  14.6498  14.6578  14.7984  14.8169
    14.8593  14.9011  15.0031  15.0188  15.1785  15.2003  15.2539  15.2704
    15.2769  15.3300  15.3453  15.3809  15.3847  15.4053  15.4409  15.4545
    15.4774  15.5042  15.5160  15.5395  15.5971  15.6089  15.6308  15.7344
    15.7495  15.7752  15.8435  15.8473  15.8840  15.8884  15.8977  15.9185
    15.9289  15.9485  16.0277  16.0370  16.1009  16.1260  16.1544  16.1964
    16.1998  16.2142  16.2277  16.3783  16.4014  16.4341  16.4650  16.4727
    16.4840  16.5566  16.6128  16.6193  16.6478  16.6652  16.7565  16.7663
    16.8089  16.8316  16.8860  16.9415  16.9916  16.9973  17.0214  17.0470
    17.1020  17.1030  17.1161  17.1668  17.1885  17.2047  17.2357  17.2813
    17.3016  17.3261  17.3571  17.3664  17.4433  17.5288  17.5290  17.5334
    17.6072  17.6159  17.6429  17.6900  17.7568  17.7817  17.7954  17.8093
    17.8269  17.8496  17.8760  17.8997  17.9256  17.9420  17.9715  17.9758
    17.9893  18.0075  18.1086  18.1182  18.1636  18.2004  18.2351  18.2542
    18.3490  18.3772  18.3785  18.4127  18.4313  18.5312  18.5748  18.5763
    18.6555  18.6666  18.7090  18.7191  18.7245  18.7550  18.8118  18.8639
    18.9351  18.9497  18.9771  19.0487

          k = 0.0000 0.0000 0.0657 ( 54082 PWs)   bands (ev):

   -20.2668 -20.1892 -20.0736 -19.9129 -19.7067 -19.4591 -19.1703 -18.8396
   -18.4668 -18.0462 -17.7186 -17.6424 -17.6058 -17.5201 -17.3818 -17.1793
   -17.1135 -16.9310 -16.6995 -16.5591 -16.3695 -16.0518 -16.0183 -15.6434
   -15.5564 -15.3050 -15.2179 -14.0604 -13.9192 -13.7016 -13.4216 -13.1797
   -12.8566 -12.5875 -12.2631 -12.0026 -11.6899 -11.5249 -11.4794 -11.4781
   -11.4168 -11.3657 -11.3424 -11.2968 -10.8991 -10.2644  -9.9715  -9.9607
    -9.8010  -9.7979  -9.5972  -9.4745  -9.3439  -9.2830  -9.0060  -8.8391
    -8.7731  -8.6766  -8.3541  -8.2671  -8.2537  -8.1787  -8.1728  -8.0434
    -8.0084  -7.8555  -7.8124  -7.6640  -7.6161  -7.5760  -7.4597  -7.3339
    -7.3293  -7.2765  -7.0813  -6.9967  -6.9397  -6.7842  -6.6196  -6.5221
    -6.4847  -6.2869  -6.1998  -6.1679  -6.0776  -5.9920  -5.9288  -5.8114
    -5.7365  -5.6843  -5.5110  -5.3537  -5.3159  -5.2687  -5.2517  -5.1711
    -5.1368  -4.9640  -4.7429  -4.7386  -4.4738  -4.2496  -4.1677  -3.8734
    -3.7529  -3.5513  -3.3642  -3.2702  -3.1246  -3.1008   0.3702   0.4125
     0.5837   0.6795   0.9962   1.0741   1.5027   1.5449   1.9096   2.1782
     2.2641   2.4128   2.5357   2.5400   2.5818   2.7029   2.7470   2.8111
     2.8643   2.8950   2.9719   3.0157   3.0281   3.2297   3.5362   3.5894
     3.7986   3.8273   4.0060   4.1179   4.1739   4.1759   4.3237   4.3702
     4.4401   4.4817   4.6939   4.7013   4.8335   5.0042   5.0895   5.2583
     5.2707   5.3222   5.3626   5.4444   5.5007   5.6086   5.7012   5.7613
     5.7832   5.7855   5.9989   6.0108   6.0477   6.1029   6.1222   6.2013
     6.3211   6.3380   6.3524   6.5418   6.5419   6.6028   6.6200   6.6610
     6.7003   6.7325   6.7576   6.7715   6.8238   6.8376   6.9085   6.9876
     7.0118   7.0445   7.0522   7.1183   7.1454   7.1635   7.2637   7.2907
     7.3134   7.3635   7.4032   7.4477   7.4601   7.4714   7.4907   7.5485
     7.5985   7.6059   7.6096   7.6256   7.6898   7.7188   7.7469   7.7522
     7.7636   7.7843   7.9013   7.9145   7.9530   8.0387   8.0951   8.1592
     8.1597   8.2103   8.2595   8.3521   8.3525   8.4574   8.5090   8.5102
[...]
     4.9167   5.0431   5.0576   5.0960   5.1111   5.1231   5.1321   5.1475
     5.2003   5.3020   5.3596   5.4193   5.4286   5.5868   5.6246   5.6428
     5.6471   5.7245   5.7702   5.9413   5.9605   6.0322   6.0622   6.1167
     6.1582   6.2006   6.2474   6.2481   6.2716   6.3081   6.3259   6.3467
     6.3487   6.3592   6.3901   6.4139   6.4712   6.4772   6.5264   6.5680
     6.5749   6.5915   6.6282   6.6919   6.7093   6.7110   6.7674   6.8288
     6.8542   6.8832   6.8886   6.9242   6.9322   6.9394   6.9901   6.9915
     7.1194   7.1765   7.1797   7.1881   7.2204   7.2420   7.2442   7.3023
     7.3219   7.3329   7.3895   7.4346   7.4974   7.5240   7.5572   7.6168
     7.6183   7.6476   7.7510   7.7624   7.7792   7.7809   7.8233   7.8693
     7.9560   7.9726   8.0060   8.0487   8.1254   8.1726   8.2299   8.2645
     8.3037   8.3328   8.3764   8.4700   8.5244   8.5534   8.5562   8.5906
     8.6253   8.6583   8.6802   8.7688   8.8890   8.9475   9.0069   9.0078
     9.0544   9.2772   9.3293   9.4230   9.4286   9.4870   9.5104   9.5167
     9.5190   9.5448   9.5982   9.7295   9.7866   9.8593   9.8629   9.9874
     9.9955  10.1177  10.2337  10.2375  10.2881  10.3695  10.4453  10.4525
    10.5900  10.6201  10.6290  10.6501  10.7125  10.7880  10.8416  10.8642
    10.8708  10.8820  10.9147  10.9816  10.9894  10.9915  11.0243  11.0295
    11.0936  11.0943  11.1525  11.1860  11.2378  11.2617  11.2705  11.3545
    11.5254  11.5835  11.6061  11.7024  11.7622  11.7708  11.7979  11.8067
    11.8835  11.8844  11.9092  11.9186  11.9769  11.9916  11.9950  12.0131
    12.0307  12.0745  12.1244  12.2105  12.2644  12.2649  12.2735  12.3225
    12.3419  12.3786  12.5316  12.5538  12.5777  12.5817  12.6241  12.7430
    12.7957  12.8054  12.8622  12.8851  12.9395  12.9495  12.9796  12.9927
    13.0736  13.0876  13.1029  13.1042  13.1774  13.2114  13.2272  13.2508
    13.2604  13.3527  13.3909  13.4369  13.4711  13.4938  13.5723  13.6195
    13.6703  13.7225  13.7269  13.7384  13.8035  13.9309  14.0333  14.0633
    14.0887  14.0978  14.1052  14.2904  14.3277  14.3669  14.3777  14.4119
    14.4411  14.4798  14.5573  14.5876  14.6188  14.6863  14.7156  14.8090
    14.8469  14.8634  14.9077  14.9116  14.9500  14.9686  14.9738  15.0013
    15.0225  15.1309  15.1336  15.1787  15.2603  15.3231  15.3442  15.3680
    15.3933  15.4394  15.4917  15.5156  15.5404  15.6659  15.7078  15.7251
    15.7565  15.7859  15.8063  15.8167  15.8764  15.9148  15.9271  15.9472
    16.0211  16.0828  16.1362  16.2219  16.2590  16.3351  16.4020  16.4724
    16.4921  16.4947  16.5326  16.5857  16.6460  16.7182  16.7321  16.7640
    16.8305  16.8377  16.8696  16.8816  16.9911  17.0697  17.1076  17.1321
    17.1699  17.2241  17.2409  17.2794  17.2808  17.2847  17.2959  17.3285
    17.3393  17.4349  17.4417  17.4602  17.5223  17.5230  17.5381  17.5866
    17.6525  17.6905  17.7187  17.7657  17.7789  17.8294  17.8444  17.9298
    18.0564  18.0728  18.1353  18.1530  18.1609  18.2081  18.2236  18.2314
    18.3145  18.3613  18.3643  18.4066  18.4338  18.4359  18.4568  18.4772
    18.5064  18.5326  18.7162  18.7360  18.8593  18.9026  18.9452  18.9596
    19.0500  19.0517  19.1114  19.2649  19.2657  19.2717  19.3001  19.3295
    19.3788  19.4028  19.4147  19.4504  19.4560  19.4714  19.5059  19.5963
    19.6147  19.6964  19.7269  19.7938

          k = 0.0000 0.0000 0.1080 ( 54150 PWs)   bands (ev):

   -19.4852 -19.4086 -19.2948 -19.1370 -19.0198 -18.9439 -18.9359 -18.8306
   -18.7115 -18.6540 -18.4876 -18.3887 -18.2381 -18.0662 -17.9504 -17.6998
   -17.6228 -17.2864 -17.2558 -16.8453 -16.8450 -16.4116 -16.3808 -15.9721
   -15.9201 -15.6006 -15.5636 -14.3152 -14.2616 -13.8837 -13.7719 -13.3215
   -13.1797 -12.6988 -12.5405 -12.0438 -11.8714 -11.3619 -11.2047 -10.6814
   -10.5521 -10.0166  -9.9507  -9.4806  -9.4092  -9.2182  -9.1761  -9.1605
    -9.1515  -8.8395  -8.4633  -8.2709  -8.2478  -8.2314  -8.1864  -8.1354
    -8.1283  -8.1083  -8.0798  -7.9942  -7.8891  -7.8430  -7.7864  -7.7013
    -7.6270  -7.5795  -7.5450  -7.5428  -7.5282  -7.5242  -7.4991  -7.4887
    -7.3474  -7.3444  -7.2657  -7.2577  -7.1836  -7.1800  -7.1253  -7.0049
    -6.9419  -6.9332  -6.8037  -6.7181  -6.7095  -6.7052  -6.5952  -6.5871
    -6.5171  -6.4412  -6.3965  -6.3036  -6.1842  -6.1355  -6.1024  -5.9072
    -5.7455  -5.5921  -5.3528  -5.2422  -4.9310  -4.8654  -4.5090  -4.4724
    -4.1109  -4.0996  -3.7859  -3.7834  -3.5915  -3.5885   0.5453   0.5681
     0.7801   0.8417   1.2032   1.2855   1.7525   1.8331   2.3753   2.4365
     3.0388   3.0395   3.4491   3.5628   3.6129   3.6567   3.6966   3.7656
     3.8858   4.0781   4.0866   4.1334   4.2080   4.3010   4.3101   4.3259
     4.4082   4.5318   4.5721   4.6171   4.7417   4.8578   4.9012   4.9030
     4.9244   4.9564   5.1083   5.2142   5.2358   5.2510   5.2558   5.3045
     5.3497   5.3971   5.4340   5.4581   5.4883   5.5043   5.5464   5.5676
     5.7577   5.7687   5.7865   5.8513   5.8956   5.9036   5.9785   5.9855
     6.0803   6.1234   6.1438   6.2147   6.2921   6.3263   6.3289   6.3341
     6.3555   6.3986   6.4078   6.4095   6.4167   6.4552   6.4728   6.4998
     6.5235   6.5316   6.5519   6.6339   6.6342   6.6670   6.7215   6.7626
     6.8115   6.8726   6.8902   6.9515   6.9614   6.9649   7.0221   7.0373
     7.0609   7.0669   7.0697   7.1407   7.1754   7.1754   7.2214   7.2807
     7.2962   7.3855   7.4041   7.4052   7.4412   7.4450   7.5006   7.5923
     7.6065   7.6180   7.6613   7.7043   7.7599   7.8345   7.8449   7.8874
     7.8913   7.9336   8.0039   8.0378   8.0927   8.1116   8.1631   8.1805
     8.3454   8.3560   8.3642   8.4405   8.4973   8.5145   8.5846   8.5848
     8.6976   8.7039   8.7398   8.7633   8.7857   8.8307   8.9920   9.0182
     9.0490   9.1471   9.2630   9.2937   9.3225   9.3607   9.4518   9.4755
     9.5721   9.6574   9.6723   9.6792   9.8632   9.8964   9.9276  10.0706
    10.1065  10.1315  10.1863  10.2713  10.2954  10.3099  10.3670  10.4576
    10.4784  10.4962  10.5265  10.6898  10.7367  10.7401  10.7921  10.8497
    10.9268  10.9852  11.0066  11.0300  11.0408  11.0891  11.0981  11.1076
    11.1364  11.1430  11.2151  11.2742  11.3023  11.3664  11.3861  11.4464
    11.4670  11.5863  11.5882  11.6138  11.6315  11.6461  11.6630  11.7540
    11.7587  11.7818  11.8090  11.8421  11.8429  11.8507  11.8775  12.0439
    12.0765  12.1403  12.1477  12.2051  12.2303  12.3304  12.3458  12.3833
    12.3966  12.4166  12.4618  12.5326  12.5922  12.6188  12.6225  12.6465
    12.7867  12.8236  12.8676  12.9180  12.9433  12.9673  12.9784  13.0227
    13.0246  13.0304  13.0334  13.0448  13.1302  13.1922  13.2163  13.2233
    13.3240  13.3738  13.3818  13.4782  13.5547  13.5957  13.5968  13.6184
    13.6292  13.6353  13.6913  13.7714  13.8243  13.8721  13.9201  13.9788
    13.9830  14.1918  14.2060  14.2075  14.2666  14.2925  14.3016  14.3786
    14.4883  14.5415  14.5601  14.5951  14.6727  14.7003  14.7733  14.7988
    14.8454  14.8637  14.8695  14.9400  14.9532  14.9814  15.0083  15.0321
    15.0788  15.1245  15.1711  15.2284  15.2473  15.3073  15.3795  15.4018
    15.4034  15.4821  15.4866  15.5644  15.5917  15.5932  15.7015  15.7114
    15.7407  15.7767  15.7991  15.8042  15.8409  15.9337  15.9360  16.0256
    16.0833  16.1969  16.2040  16.2477  16.2769  16.2952  16.3239  16.4118
    16.4281  16.4796  16.5690  16.5873  16.6569  16.6934  16.7294  16.7728
    16.7857  16.8734  16.8929  16.9631  16.9971  16.9981  17.0286  17.0791
    17.0798  17.1474  17.1971  17.2367  17.3119  17.3264  17.3655  17.3989
    17.4142  17.4543  17.4659  17.4785  17.5272  17.5614  17.5792  17.6079
    17.6345  17.6626  17.7086  17.7638  17.7969  17.8052  17.8058  17.8486
    18.0426  18.0433  18.0791  18.1126  18.1473  18.1737  18.2277  18.2304
    18.2457  18.2861  18.3498  18.3891  18.3909  18.4361  18.4601  18.5151
    18.5234  18.5308  18.7326  18.7654  18.8198  18.8559  18.9101  18.9605
    19.0020  19.1861  19.1937  19.2101  19.2101  19.2694  19.2814  19.2938
    19.3343  19.4121  19.5404  19.5491  19.6268  19.6358  19.6776  19.6893
    19.7666  19.8039  19.8211  19.8438

          k = 0.0000 0.0000 0.1127 ( 54174 PWs)   bands (ev):

   -19.3756 -19.2991 -19.1858 -19.1427 -19.0674 -19.0278 -18.9547 -18.8274
   -18.7990 -18.5945 -18.5837 -18.3476 -18.2996 -18.0597 -17.9744 -17.7309
   -17.6080 -17.3621 -17.1961 -16.9480 -16.7585 -16.5095 -16.2999 -16.0603
   -15.8531 -15.6586 -15.5428 -14.3459 -14.2328 -13.9436 -13.7188 -13.3919
   -13.1197 -12.7716 -12.4779 -12.1172 -11.8069 -11.4354 -11.1374 -10.7551
   -10.4772 -10.0924  -9.8554  -9.4808  -9.3389  -9.0311  -8.9873  -8.9154
    -8.8981  -8.8943  -8.6324  -8.4608  -8.3931  -8.3771  -8.0640  -8.0597
    -8.0050  -7.9701  -7.9325  -7.8573  -7.7823  -7.7614  -7.7165  -7.6950
    -7.6827  -7.6668  -7.6483  -7.6425  -7.6279  -7.6208  -7.6187  -7.6178
    -7.3785  -7.3224  -7.2286  -7.2283  -7.2163  -7.1299  -7.0242  -6.9979
    -6.9458  -6.9357  -6.8601  -6.8151  -6.7290  -6.6728  -6.6253  -6.5838
    -6.5480  -6.4387  -6.4023  -6.3165  -6.3069  -6.2383  -6.0406  -5.9884
    -5.7240  -5.6317  -5.3711  -5.2423  -4.9892  -4.8271  -4.5873  -4.4164
    -4.1998  -4.0371  -3.8613  -3.7401  -3.6299  -3.5845   0.5326   0.6026
     0.7238   0.9203   1.1102   1.3956   1.6349   1.9651   2.2404   2.5858
     2.8908   3.2036   3.5356   3.5843   3.6940   3.7933   3.8075   3.9094
     3.9271   4.0418   4.0493   4.1307   4.1527   4.2357   4.2625   4.3304
     4.3614   4.4610   4.5728   4.7190   4.7656   4.7834   4.7839   4.9920
     5.0530   5.0849   5.1419   5.1976   5.2839   5.3379   5.3652   5.3796
     5.3917   5.4015   5.5107   5.5149   5.5416   5.5897   5.6166   5.6439
     5.6918   5.7162   5.7185   5.8520   5.9090   5.9123   5.9619   5.9782
     5.9919   6.0428   6.0443   6.0750   6.2145   6.2254   6.2268   6.3140
     6.3208   6.3220   6.3576   6.3807   6.4416   6.4433   6.4812   6.5241
     6.5421   6.5427   6.5690   6.6217   6.6401   6.6672   6.7458   6.7892
     6.7898   6.8313   6.8549   6.8623   6.9057   6.9459   6.9628   6.9966
     7.0585   7.1089   7.1144   7.1351   7.2033   7.2112   7.2322   7.2353
     7.2504   7.3050   7.3222   7.4154   7.4314   7.4701   7.5040   7.5317
     7.5374   7.5738   7.6742   7.6932   7.7042   7.8356   7.8656   7.8969
     7.9028   7.9311   7.9897   8.0357   8.0536   8.0834   8.1923   8.2071
     8.2637   8.2971   8.3023   8.3398   8.5435   8.5585   8.5967   8.6505
     8.6511   8.6995   8.7547   8.8218   8.8461   8.9066   8.9731   8.9750
     9.0495   9.0865   9.1623   9.1683   9.2061   9.2147   9.3744   9.5262
     9.5795   9.6248   9.7787   9.8037   9.9263   9.9403   9.9980  10.0675
    10.1079  10.1595  10.1988  10.2401  10.2910  10.2952  10.3791  10.3839
    10.3978  10.4513  10.5428  10.5950  10.5983  10.6978  10.8135  10.8713
    10.9082  10.9879  11.0881  11.1172  11.1397  11.1488  11.1923  11.2349
    11.2507  11.2631  11.3121  11.3480  11.3565  11.4109  11.4305  11.4644
    11.4712  11.4759  11.4800  11.5028  11.5229  11.6163  11.6570  11.6637
    11.6637  11.7071  11.7511  11.7631  11.7775  11.8196  11.9110  11.9904
    12.0737  12.0958  12.1963  12.2146  12.2723  12.2928  12.3900  12.4147
    12.4226  12.4680  12.5227  12.5362  12.5668  12.6055  12.6175  12.6280
    12.7243  12.7781  12.7925  12.8269  12.8465  12.8630  12.9381  13.0419
    13.0454  13.0567  13.0712  13.0874  13.1664  13.1674  13.2367  13.3063
    13.3923  13.4115  13.4623  13.4688  13.4921  13.5237  13.5889  13.6124
    13.6758  13.6914  13.7378  13.7468  13.7666  13.7993  13.8444  14.0137
    14.0428  14.0652  14.0792  14.1975  14.2504  14.2979  14.3446  14.4658
    14.5062  14.5144  14.5506  14.5894  14.6428  14.6819  14.7871  14.8133
    14.8512  14.8732  14.9392  14.9485  14.9834  14.9862  14.9904  15.0944
    15.1191  15.1460  15.1867  15.2193  15.2721  15.3049  15.3778  15.4000
    15.4373  15.4503  15.4965  15.5730  15.5856  15.6295  15.6359  15.6453
    15.6513  15.7684  15.8484  15.8537  15.9363  15.9526  16.0324  16.0604
    16.0617  16.1601  16.2099  16.2125  16.2844  16.3576  16.3608  16.3793
    16.3830  16.5609  16.5646  16.6148  16.6157  16.6559  16.6574  16.7713
    16.8096  16.8548  16.8818  16.9477  16.9546  16.9696  17.0537  17.1024
    17.1037  17.1113  17.1223  17.2448  17.2652  17.3557  17.3797  17.4206
    17.4380  17.4601  17.4740  17.5093  17.5151  17.5493  17.6131  17.6208
    17.6599  17.6622  17.6901  17.7764  17.8197  17.8495  17.8619  17.8875
    17.9854  17.9964  18.0394  18.0543  18.1042  18.1249  18.1335  18.1368
    18.1874  18.2491  18.2660  18.3547  18.3686  18.4744  18.5694  18.5903
    18.5911  18.6881  18.6963  18.7624  18.7916  18.8005  18.8947  18.9142
    18.9163  19.0407  19.1912  19.2308  19.2777  19.2848  19.2929  19.3028
    19.3263  19.4472  19.5609  19.5641  19.5699  19.5887  19.7223  19.7290
    19.7896  19.8424  19.8601  19.9609

          k = 0.0000 0.0000-0.1174 ( 54196 PWs)   bands (ev):

   -19.2619 -19.2609 -19.1876 -19.1827 -19.0784 -19.0659 -18.9272 -18.9032
   -18.7410 -18.6845 -18.5066 -18.4291 -18.2288 -18.1350 -17.9083 -17.8016
   -17.5454 -17.4291 -17.1377 -17.0105 -16.7051 -16.5666 -16.2521 -16.1103
   -15.8164 -15.6924 -15.5354 -14.3566 -14.2188 -13.9680 -13.6943 -13.4221
   -13.0925 -12.8031 -12.4498 -12.1489 -11.7782 -11.4671 -11.1077 -10.7870
   -10.4437 -10.1266  -9.8103  -9.5226  -9.2583  -9.0470  -8.8707  -8.7877
    -8.7034  -8.6778  -8.6468  -8.6386  -8.6380  -8.6350  -7.9031  -7.8890
    -7.8731  -7.8641  -7.8445  -7.8376  -7.8292  -7.7913  -7.7773  -7.7432
    -7.7309  -7.7270  -7.6970  -7.6795  -7.6649  -7.6588  -7.6484  -7.6425
    -7.4418  -7.2907  -7.2443  -7.2390  -7.0837  -7.0832  -7.0719  -6.9985
    -6.9960  -6.8926  -6.8690  -6.8623  -6.7209  -6.6906  -6.6768  -6.5676
    -6.4711  -6.4649  -6.4334  -6.3562  -6.3247  -6.2020  -6.1502  -5.8895
    -5.8276  -5.5384  -5.4690  -5.1548  -5.0810  -4.7475  -4.6705  -4.3486
    -4.2700  -3.9868  -3.9121  -3.7147  -3.6535  -3.5831   0.5284   0.6260
     0.6931   0.9802   1.0456   1.4845   1.5434   2.0753   2.1292   2.7125
     2.7642   3.3452   3.3952   3.6733   3.7762   3.8334   3.9456   3.9513
     3.9659   3.9681   3.9971   4.0678   4.0960   4.1964   4.1989   4.4059
     4.4157   4.5064   4.5464   4.6108   4.6273   4.9194   4.9244   4.9766
     5.0096   5.0792   5.1907   5.2221   5.2580   5.3278   5.3814   5.4116
     5.4667   5.4992   5.5307   5.5474   5.5501   5.5588   5.5664   5.6602
     5.7146   5.7466   5.7499   5.8640   5.8729   5.8821   5.9333   6.0097
     6.0157   6.0234   6.0725   6.1098   6.1383   6.1407   6.1724   6.1984
     6.1996   6.3133   6.3147   6.3795   6.3818   6.4423   6.4521   6.5979
     6.6189   6.6448   6.6542   6.6763   6.6817   6.6846   6.7038   6.7152
     6.7517   6.7625   6.7937   6.8078   6.9097   6.9319   6.9457   7.0070
     7.0611   7.1154   7.1427   7.1461   7.1507   7.2183   7.2383   7.3009
     7.3020   7.3453   7.3473   7.3521   7.3550   7.3722   7.3996   7.5544
     7.5567   7.6454   7.6976   7.7015   7.7268   7.7443   7.7781   7.8906
     7.9068   7.9979   8.0359   8.0694   8.0705   8.0850   8.1299   8.1744
     8.1968   8.2435   8.3739   8.4009   8.4295   8.5006   8.6295   8.6523
     8.7088   8.7408   8.7826   8.8009   8.9027   8.9725   8.9771   9.0273
     9.0477   9.0483   9.0539   9.0612   9.1049   9.2550   9.3871   9.4063
     9.5783   9.7555   9.8080   9.8445   9.9071   9.9365  10.0409  10.0560
    10.1282  10.1607  10.1999  10.2087  10.2474  10.3323  10.3848  10.3854
    10.4056  10.4369  10.4798  10.5339  10.6023  10.7433  10.7620  10.7750
    10.9774  11.0050  11.0573  11.1820  11.2311  11.2552  11.2915  11.2918
    11.3087  11.3123  11.3169  11.3290  11.3789  11.3888  11.3895  11.3999
    11.4608  11.4817  11.5133  11.5181  11.5185  11.5338  11.5354  11.5855
    11.6271  11.6319  11.6432  11.8280  11.8684  11.9014  11.9235  11.9799
    12.0401  12.0439  12.1367  12.2737  12.3086  12.3355  12.4144  12.4173
    12.4284  12.4297  12.4557  12.4950  12.5745  12.6301  12.6465  12.6782
    12.7121  12.7266  12.7300  12.7651  12.8784  12.8803  12.8829  12.9546
    13.0264  13.0599  13.0831  13.1603  13.2358  13.2387  13.2505  13.3154
    13.3184  13.3902  13.4531  13.5056  13.5466  13.5565  13.6109  13.6146
    13.6179  13.6382  13.6851  13.7058  13.8430  13.8885  13.8907  13.9026
    13.9281  14.0809  14.1049  14.2099  14.2444  14.2470  14.3793  14.4937
    14.5175  14.5217  14.5449  14.5781  14.6450  14.6741  14.7242  14.8557
    14.8937  14.9018  14.9039  14.9182  14.9490  14.9931  15.0967  15.1099
    15.1291  15.1339  15.2171  15.2474  15.2668  15.2688  15.3831  15.4096
    15.4630  15.4799  15.4802  15.5142  15.5217  15.5307  15.6378  15.6392
    15.7869  15.7934  15.8467  15.9313  15.9437  15.9456  16.0034  16.0528
    16.0625  16.1082  16.1619  16.2298  16.3212  16.3666  16.3902  16.4474
    16.4569  16.4873  16.4983  16.5927  16.6167  16.6288  16.7170  16.7726
    16.8226  16.8285  16.8744  16.8781  16.9332  17.0223  17.0346  17.0542
    17.1165  17.1320  17.1617  17.2504  17.3215  17.3328  17.3658  17.3878
    17.3909  17.4639  17.4798  17.4974  17.5062  17.5637  17.5834  17.6013
    17.7450  17.7480  17.7532  17.7781  17.7947  17.8338  17.8537  17.9370
    17.9901  18.0039  18.0148  18.0171  18.0504  18.0574  18.0594  18.1520
    18.1569  18.2450  18.2465  18.3354  18.3409  18.5333  18.5738  18.6303
    18.6688  18.7090  18.7191  18.7805  18.7972  18.8068  18.8473  18.8502
    18.8937  18.9377  19.1460  19.2340  19.3052  19.3066  19.3253  19.3398
    19.4196  19.4482  19.4517  19.5274  19.5321  19.5780  19.6872  19.7497
    19.8301  19.8732  19.9109  20.0233

     the Fermi energy is    -1.2437 ev

     Writing output data file A27.save/

     init_run     :      7.91s CPU      8.15s WALL (       1 calls)
     electrons    :   3317.04s CPU   3345.61s WALL (       1 calls)

     Called by init_run:
     wfcinit      :      0.00s CPU      0.00s WALL (       1 calls)
     potinit      :      0.50s CPU      0.57s WALL (       1 calls)
     hinit0       :      6.36s CPU      6.40s WALL (       1 calls)

     Called by electrons:
     c_bands      :   3317.02s CPU   3345.59s WALL (       1 calls)
     v_of_rho     :      0.38s CPU      0.41s WALL (       1 calls)
     newd         :      0.26s CPU      0.36s WALL (       1 calls)

     Called by c_bands:
     init_us_2    :      0.23s CPU      0.25s WALL (      26 calls)
     cegterg      :   3238.68s CPU   3264.42s WALL (      49 calls)

     Called by sum_band:

     Called by *egterg:
     h_psi        :    658.41s CPU    666.66s WALL (     839 calls)
     s_psi        :     67.46s CPU     67.58s WALL (     839 calls)
     g_psi        :      4.51s CPU      4.52s WALL (     764 calls)
     cdiaghg      :   1662.39s CPU   1665.77s WALL (     790 calls)

     Called by h_psi:
     h_psi:pot    :    656.09s CPU    662.33s WALL (     839 calls)
     h_psi:calbec :     73.52s CPU     74.33s WALL (     839 calls)
     vloc_psi     :    515.15s CPU    520.42s WALL (     839 calls)
     add_vuspsi   :     67.42s CPU     67.57s WALL (     839 calls)

     General routines
     calbec       :     73.51s CPU     74.33s WALL (     839 calls)
     fft          :      0.42s CPU      0.47s WALL (      14 calls)
     ffts         :      0.01s CPU      0.01s WALL (       1 calls)
     fftw         :    467.30s CPU    472.21s WALL (  399064 calls)
     interpolate  :      0.03s CPU      0.04s WALL (       1 calls)
     davcio       :      0.00s CPU      1.23s WALL (      52 calls)

     Parallel routines
     fft_scatt_xy :     71.56s CPU     72.24s WALL (  399079 calls)
     fft_scatt_yz :    163.39s CPU    165.96s WALL (  399079 calls)

     PWSCF        : 56m11.43s CPU       56h 1m WALL

       5h

   This run was terminated on:  19: 9:45   8Apr2022            

=------------------------------------------------------------------------------=
   JOB DONE.
=------------------------------------------------------------------------------=
