
     Program PWSCF v.6.3 starts on  8Apr2022 at 18: 9:39 

     This program is part of the open-source Quantum ESPRESSO suite
     for quantum simulation of materials; please cite
         "P. Giannozzi et al., J. Phys.:Condens. Matter 21 395502 (2009);
         "P. Giannozzi et al., J. Phys.:Condens. Matter 29 465901 (2017);
          URL http://www.quantum-espresso.org", 
     in publications or presentations arising from this work. More details at
     http://www.quantum-espresso.org/quote

     Parallel version (MPI), running on    16 processors
     R & G space division:  proc/nbgrp/npool/nimage =      16
     Waiting for input...
     Reading input from standard input
     Message from routine read_cards :
     DEPRECATED: no units specified in CELL_PARAMETERS card

     Current dimensions of program PWSCF are:
     Max number of different atomic species (ntypx) = 10
     Max number of k-points (npk) =  40000
     Max angular momentum in pseudopotentials (lmaxx) =  3

     Atomic positions and unit cell read from directory:
     /home/zfwang/scratch/GNRDATASET/AGNR/A28/A28.save/


     Subspace diagonalization in iterative solution of the eigenvalue problem:
     a serial algorithm will be used


     Parallelization info
     --------------------
     sticks:   dense  smooth     PW     G-vecs:    dense   smooth      PW
     Min        3860    1285    363               144513    27811    4165
     Max        3862    1287    364               144514    27812    4166
     Sum       61771   20589   5815              2312223   444977   66647



     bravais-lattice index     =            0
     lattice parameter (alat)  =       1.8897  a.u.
     unit-cell volume          =   13022.8009 (a.u.)^3
     number of atoms/cell      =           60
     number of atomic types    =            2
     number of electrons       =       228.00
     number of Kohn-Sham states=          500
     kinetic-energy cutoff     =      40.0000  Ry
     charge density cutoff     =     480.0000  Ry
     Exchange-correlation      = PBE ( 1  4  3  4 0 0)

     celldm(1)=  18.897261  celldm(2)=   4.530000  celldm(3)=   0.426000
     celldm(4)=   0.000000  celldm(5)=   0.000000  celldm(6)=   0.000000

     crystal axes: (cart. coord. in units of alat)
               a(1) = (  10.000000   0.000000   0.000000 )  
               a(2) = (   0.000000  45.300000   0.000000 )  
               a(3) = (   0.000000   0.000000   4.260000 )  

     reciprocal axes: (cart. coord. in units 2 pi/alat)
               b(1) = (  0.100000  0.000000  0.000000 )  
               b(2) = (  0.000000  0.022075  0.000000 )  
               b(3) = (  0.000000  0.000000  0.234742 )  


     PseudoPot. # 1 for C  read from file:
     /home/zfwang/hp_home/MySoftware/qe-6.3/pseudo/C.pbe-n-rrkjus_psl.0.1.UPF
     MD5 check sum: fff530ed632a789b3b184014e67dd7f1
     Pseudo is Ultrasoft + core correction, Zval =  4.0
     Generated using "atomic" code by A. Dal Corso v.5.0.2 svn rev. 9415
     Using radial grid of 1073 points,  4 beta functions with: 
                l(1) =   0
                l(2) =   0
                l(3) =   1
                l(4) =   1
     Q(r) pseudized with 0 coefficients 


     PseudoPot. # 2 for H  read from file:
     /home/zfwang/hp_home/MySoftware/qe-6.3/pseudo/H.pbe-rrkjus_psl.0.1.UPF
     MD5 check sum: e164a6907b691c6980f16942be34de84
     Pseudo is Ultrasoft, Zval =  1.0
     Generated using "atomic" code by A. Dal Corso v.5.0.2 svn rev. 9415
     Using radial grid of  929 points,  2 beta functions with: 
                l(1) =   0
                l(2) =   0
     Q(r) pseudized with 0 coefficients 


     atomic species   valence    mass     pseudopotential
        C              4.00    12.01070     C ( 1.00)
        H              1.00     1.00794     H ( 1.00)

     No symmetry found



   Cartesian axes

     site n.     atom                  positions (alat units)
         1           C   tau(   1) = (   4.9999992   6.0609006   2.8131504  )
         2           C   tau(   2) = (   4.9999983   7.2671925   3.5444699  )
         3           C   tau(   3) = (   4.9999993   6.0608982   1.4468513  )
         4           C   tau(   4) = (   4.9999985   8.4961736   2.8409875  )
         5           C   tau(   5) = (   4.9999988   9.7325851   3.5525403  )
         6           C   tau(   6) = (   4.9999984   7.2671955   0.7155312  )
         7           C   tau(   7) = (   4.9999984   8.4961704   1.4190132  )
         8           C   tau(   8) = (   4.9999992  10.9620190   2.8417811  )
         9           C   tau(   9) = (   4.9999999  12.1907162   3.5494003  )
        10           C   tau(  10) = (   4.9999984   9.7325873   0.7074604  )
        11           C   tau(  11) = (   4.9999992  10.9620172   1.4182196  )
        12           C   tau(  12) = (   5.0000007  13.4238687   2.8391717  )
        13           C   tau(  13) = (   5.0000016  14.6550779   3.5490040  )
        14           C   tau(  14) = (   4.9999997  12.1907177   0.7105996  )
        15           C   tau(  15) = (   5.0000008  13.4238684   1.4208280  )
        16           C   tau(  16) = (   5.0000022  15.8844669   2.8404127  )
        17           C   tau(  17) = (   5.0000017  17.1158966   3.5506761  )
        18           C   tau(  18) = (   5.0000018  14.6550773   0.7109957  )
        19           C   tau(  19) = (   5.0000020  15.8844677   1.4195876  )
        20           C   tau(  20) = (   5.0000010  18.3462399   2.8405332  )
        21           C   tau(  21) = (   5.0000006  19.5749246   3.5496605  )
        22           C   tau(  22) = (   5.0000019  17.1158959   0.7093239  )
        23           C   tau(  23) = (   5.0000009  18.3462407   1.4194676  )
        24           C   tau(  24) = (   5.0000003  20.8054084   2.8394087  )
        25           C   tau(  25) = (   5.0000006  22.0356680   3.5495972  )
        26           C   tau(  26) = (   5.0000006  19.5749236   0.7103402  )
        27           C   tau(  27) = (   5.0000005  20.8054095   1.4205920  )
        28           C   tau(  28) = (   5.0000008  23.2643174   2.8404028  )
        29           C   tau(  29) = (   5.0000005  24.4945764   3.5505916  )
        30           C   tau(  30) = (   5.0000005  22.0356672   0.7104031  )
        31           C   tau(  31) = (   5.0000007  23.2643179   1.4195977  )
        32           C   tau(  32) = (   5.0000001  25.7250640   2.8403406  )
        33           C   tau(  33) = (   4.9999988  26.9537444   3.5494668  )
        34           C   tau(  34) = (   5.0000005  24.4945763   0.7094087  )
        35           C   tau(  35) = (   4.9999997  25.7250638   1.4196595  )
        36           C   tau(  36) = (   4.9999980  28.1840906   2.8393246  )
        37           C   tau(  37) = (   4.9999982  29.4155232   3.5495867  )
        38           C   tau(  38) = (   4.9999989  26.9537448   0.7105331  )
        39           C   tau(  39) = (   4.9999980  28.1840898   1.4206753  )
        40           C   tau(  40) = (   4.9999997  30.6449175   2.8409980  )
        41           C   tau(  41) = (   5.0000004  31.8761331   3.5508277  )
        42           C   tau(  42) = (   4.9999982  29.4155237   0.7104132  )
        43           C   tau(  43) = (   4.9999996  30.6449166   1.4190017  )
        44           C   tau(  44) = (   5.0000001  33.1092885   2.8405988  )
        45           C   tau(  45) = (   4.9999991  34.3379897   3.5482181  )
        46           C   tau(  46) = (   5.0000006  31.8761337   0.7091721  )
        47           C   tau(  47) = (   5.0000002  33.1092880   1.4194007  )
        48           C   tau(  48) = (   4.9999977  35.5674236   2.8374598  )
        49           C   tau(  49) = (   4.9999986  36.8038390   3.5490149  )
        50           C   tau(  50) = (   4.9999990  34.3379900   0.7117815  )
        51           C   tau(  51) = (   4.9999979  35.5674235   1.4225399  )
        52           C   tau(  52) = (   5.0000003  38.0328196   2.8455293  )
        53           C   tau(  53) = (   5.0000016  39.2391102   3.5768642  )
        54           C   tau(  54) = (   4.9999984  36.8038390   0.7109847  )
        55           C   tau(  55) = (   5.0000003  38.0328196   1.4144701  )
        56           C   tau(  56) = (   5.0000023  39.2391100   0.6831352  )
        57           H   tau(  57) = (   5.0000004   5.1053108   3.3302235  )
        58           H   tau(  58) = (   5.0000007   5.1053114   0.9297787  )
        59           H   tau(  59) = (   5.0000024  40.1947050   3.0597754  )
        60           H   tau(  60) = (   5.0000046  40.1947048   1.2002246  )

     number of k points=    26  Marzari-Vanderbilt smearing, width (Ry)=  0.0100
                       cart. coord. in units 2pi/alat
        k(    1) = (   0.0000000   0.0000000   0.0000000), wk =   0.0400000
        k(    2) = (   0.0000000   0.0000000   0.0046948), wk =   0.0800000
        k(    3) = (   0.0000000   0.0000000   0.0093897), wk =   0.0800000
        k(    4) = (   0.0000000   0.0000000   0.0140845), wk =   0.0800000
        k(    5) = (   0.0000000   0.0000000   0.0187793), wk =   0.0800000
        k(    6) = (   0.0000000   0.0000000   0.0234742), wk =   0.0800000
        k(    7) = (   0.0000000   0.0000000   0.0281690), wk =   0.0800000
        k(    8) = (   0.0000000   0.0000000   0.0328638), wk =   0.0800000
        k(    9) = (   0.0000000   0.0000000   0.0375587), wk =   0.0800000
        k(   10) = (   0.0000000   0.0000000   0.0422535), wk =   0.0800000
        k(   11) = (   0.0000000   0.0000000   0.0469484), wk =   0.0800000
        k(   12) = (   0.0000000   0.0000000   0.0516432), wk =   0.0800000
        k(   13) = (   0.0000000   0.0000000   0.0563380), wk =   0.0800000
        k(   14) = (   0.0000000   0.0000000   0.0610329), wk =   0.0800000
        k(   15) = (   0.0000000   0.0000000   0.0657277), wk =   0.0800000
        k(   16) = (   0.0000000   0.0000000   0.0704225), wk =   0.0800000
        k(   17) = (   0.0000000   0.0000000   0.0751174), wk =   0.0800000
        k(   18) = (   0.0000000   0.0000000   0.0798122), wk =   0.0800000
        k(   19) = (   0.0000000   0.0000000   0.0845070), wk =   0.0800000
        k(   20) = (   0.0000000   0.0000000   0.0892019), wk =   0.0800000
        k(   21) = (   0.0000000   0.0000000   0.0938967), wk =   0.0800000
        k(   22) = (   0.0000000   0.0000000   0.0985915), wk =   0.0800000
        k(   23) = (   0.0000000   0.0000000   0.1032864), wk =   0.0800000
        k(   24) = (   0.0000000   0.0000000   0.1079812), wk =   0.0800000
        k(   25) = (   0.0000000   0.0000000   0.1126761), wk =   0.0800000
        k(   26) = (   0.0000000   0.0000000  -0.1173709), wk =   0.0400000

     Dense  grid:  2312223 G-vectors     FFT dimensions: ( 135, 600,  60)

     Smooth grid:   444977 G-vectors     FFT dimensions: (  80, 360,  36)

     Estimated max dynamical RAM per process >     601.83 MB

     Estimated total dynamical RAM >       9.40 GB

     The potential is recalculated from file :
     /home/zfwang/scratch/GNRDATASET/AGNR/A28/A28.save/charge-density.dat


     negative rho (up, down):  8.307E-05 0.000E+00
     Starting wfcs are  228 randomized atomic wfcs +  272 random wfcs

     Band Structure Calculation
     Davidson diagonalization with overlap
     c_bands:  1 eigenvalues not converged

     ethr =  4.39E-09,  avg # of iterations = 32.6

     total cpu time spent up to now is     3567.9 secs

     End of band structure calculation

          k = 0.0000 0.0000 0.0000 ( 55467 PWs)   bands (ev):

   -20.7127 -20.6394 -20.5304 -20.3797 -20.1858 -19.9526 -19.6806 -19.3690
   -19.0174 -18.6191 -18.1880 -17.7236 -17.2279 -16.7048 -16.1592 -15.5991
   -15.4448 -15.3793 -15.2849 -15.1544 -15.0373 -14.9858 -14.7834 -14.5475
   -14.4995 -14.4358 -14.3735 -14.2799 -14.2769 -14.1651 -14.0206 -14.0100
   -13.9706 -13.8382 -13.7243 -13.6515 -13.6142 -13.6017 -13.2305 -12.8155
   -12.3693 -11.8933 -11.7110 -11.6998 -11.4522 -11.4207 -11.3891 -11.1042
   -10.9650 -10.8590 -10.6801 -10.4350 -10.3055 -10.1947  -9.8933  -9.7309
    -9.6636  -9.3576  -9.1370  -9.1184  -8.8269  -8.8035  -8.7195  -8.5986
    -8.5914  -8.5173  -8.4139  -8.3208  -8.1868  -8.1253  -7.9253  -7.9138
    -7.9043  -7.7031  -7.6527  -7.5962  -7.2937  -7.2341  -7.1352  -6.8283
    -6.6937  -6.6230  -6.3750  -6.1322  -6.1174  -5.8870  -5.6739  -5.5820
    -5.3659  -5.2605  -5.1088  -4.9037  -4.8161  -4.7234  -4.6126  -4.4492
    -4.3982  -4.2900  -4.2729  -4.2440  -3.6571  -3.5087  -3.4225  -3.2899
    -3.1058  -3.0653  -2.8702  -2.5865  -2.4800  -2.2548  -1.9146  -1.8750
    -1.4462  -1.3833  -0.9500  -0.8898  -0.4866  -0.4219  -0.1609   0.0872
     0.1456   0.2645   0.3829   0.4569   0.4987   0.5162   0.7520   1.3955
     1.8104   1.9346   1.9653   2.0729   2.0845   2.1808   2.3889   2.5746
     2.7802   2.8684   3.1277   3.2127   3.3273   3.4187   3.4842   3.5127
     3.5637   3.6833   3.7781   3.8038   4.0199   4.0481   4.1899   4.2644
     4.3239   4.5853   4.5882   4.6119   4.7560   4.8328   4.8514   4.9748
     5.0281   5.1215   5.1383   5.2758   5.3294   5.3564   5.5880   5.6422
     5.8019   5.8390   5.9014   5.9816   6.0310   6.3037   6.3666   6.3815
     6.5549   6.5725   6.6175   6.6747   6.7152   6.8458   6.8957   6.9469
     7.1610   7.2035   7.2569   7.2577   7.2858   7.3586   7.4616   7.4716
     7.5009   7.5405   7.5590   7.7025   7.7227   7.7535   7.7962   7.8970
     7.9386   7.9441   7.9808   7.9958   8.1540   8.1891   8.2215   8.2377
     8.4308   8.5587   8.6131   8.6243   8.6481   8.7919   8.9485   8.9926
     9.0020   9.0217   9.0751   9.0783   9.1063   9.1966   9.2057   9.2771
     9.3631   9.3985   9.4994   9.4995   9.5156   9.5238   9.5787   9.5822
     9.5985   9.6722   9.6737   9.6762   9.7821   9.7855   9.7997   9.8878
     9.8895   9.9117   9.9715  10.0305  10.0313  10.0327  10.0565  10.0607
    10.0733  10.1278  10.1297  10.1786  10.2024  10.2062  10.2099  10.2435
    10.2619  10.3020  10.3664  10.4119  10.4149  10.4159  10.4237  10.4612
    10.4911  10.5593  10.5641  10.6240  10.6385  10.6834  10.7441  10.8016
    10.8182  10.8201  10.8784  10.8970  10.9071  10.9622  11.0524  11.0645
    11.0755  11.1212  11.1439  11.1473  11.1635  11.1795  11.2834  11.2889
    11.3097  11.3744  11.3818  11.3851  11.4144  11.4571  11.4669  11.5086
    11.5252  11.5420  11.5576  11.5591  11.5791  11.5831  11.6004  11.6253
    11.6406  11.6669  11.6669  11.7463  11.7510  11.7572  11.7576  11.7593
    11.8361  11.8484  11.8571  11.8611  11.8964  11.9043  11.9075  11.9360
    11.9497  12.0050  12.0535  12.0633  12.0999  12.1120  12.1618  12.1973
    12.2099  12.2099  12.2406  12.2536  12.2687  12.2713  12.4250  12.4404
    12.4461  12.4968  12.5375  12.5607  12.6536  12.6539  12.6696  12.6928
    12.7048  12.7321  12.7468  12.7792  12.8106  12.8170  12.8398  12.8412
    12.9377  12.9606  12.9725  13.0135  13.1161  13.1405  13.1604  13.2067
    13.2700  13.2814  13.3572  13.4119  13.4541  13.4945  13.5370  13.5439
    13.5511  13.6382  13.6492  13.6534  13.7634  13.7763  13.8443  13.9017
    13.9072  13.9836  13.9966  14.0129  14.0172  14.0562  14.1309  14.1356
    14.1661  14.1697  14.2574  14.2668  14.3321  14.3534  14.3866  14.4429
    14.4580  14.4766  14.5274  14.6081  14.6365  14.6884  14.7348  14.7637
    14.7641  14.9585  14.9804  14.9817  14.9944  15.0606  15.0768  15.1256
    15.1611  15.2106  15.2115  15.2220  15.2929  15.4459  15.4574  15.4732
    15.4803  15.6273  15.6369  15.6753  15.6963  15.7267  15.7401  15.8287
    15.8491  15.8958  16.0015  16.0126  16.0188  16.0277  16.0318  16.0419
    16.1745  16.2000  16.2183  16.2218  16.2710  16.2722  16.2740  16.3478
    16.3501  16.3743  16.3980  16.3987  16.4179  16.4231  16.4422  16.5324
    16.5590  16.5622  16.5649  16.5873  16.6459  16.7385  16.7685  16.7839
    16.8247  16.8483  16.8783  16.9813  16.9841  17.0902  17.1264  17.1411
    17.1725  17.2295  17.2701  17.2809  17.2969  17.3311  17.3600  17.3736
    17.3779  17.3787  17.4033  17.4608  17.5033  17.5389  17.5404  17.5878
    17.5931  17.6002  17.6446  17.6627  17.6743  17.7225  17.7501  17.8223
    17.8592  17.8622  17.9240  18.0014  18.0614  18.0873  18.1057  18.2186
    18.2277  18.2298  18.2623  18.2821

          k = 0.0000 0.0000 0.0047 ( 55509 PWs)   bands (ev):

   -20.7104 -20.6370 -20.5281 -20.3773 -20.1835 -19.9503 -19.6783 -19.3667
   -19.0151 -18.6168 -18.1858 -17.7213 -17.2258 -16.7027 -16.1573 -15.5976
   -15.4893 -15.4236 -15.3288 -15.1982 -15.0365 -15.0291 -14.8261 -14.5932
   -14.4982 -14.3881 -14.3271 -14.3235 -14.2332 -14.1216 -14.0373 -14.0349
   -13.9633 -13.7973 -13.6717 -13.6056 -13.6006 -13.5552 -13.2457 -12.8351
   -12.3901 -11.9144 -11.6971 -11.6816 -11.4354 -11.4107 -11.4062 -11.0846
   -10.9561 -10.8777 -10.6622 -10.4244 -10.3231 -10.1805  -9.8804  -9.7474
    -9.6536  -9.3441  -9.1525  -9.1109  -8.8150  -8.8007  -8.7167  -8.5916
    -8.5886  -8.5320  -8.4111  -8.3125  -8.1840  -8.1166  -7.9270  -7.9127
    -7.9111  -7.7006  -7.6415  -7.5935  -7.3066  -7.2314  -7.1249  -6.8257
    -6.7067  -6.6140  -6.3724  -6.1399  -6.1150  -5.8845  -5.6732  -5.5897
    -5.3636  -5.2613  -5.1164  -4.9067  -4.8141  -4.7302  -4.6178  -4.4550
    -4.4053  -4.2949  -4.2815  -4.2424  -3.6563  -3.5245  -3.4385  -3.3062
    -3.1227  -3.0657  -2.8880  -2.6057  -2.4831  -2.2768  -1.9248  -1.9030
    -1.4983  -1.4312  -0.9035  -0.8382  -0.4583  -0.4138  -0.1379   0.1082
     0.1460   0.2847   0.4028   0.4766   0.5182   0.5357   0.7493   1.3910
     1.8136   1.9378   1.9685   2.0673   2.0877   2.1841   2.3921   2.5778
     2.7739   2.8716   3.1309   3.2159   3.3311   3.4212   3.4875   3.5072
     3.5669   3.6867   3.7813   3.8070   4.0232   4.0514   4.1930   4.2574
     4.3271   4.5886   4.5914   4.6153   4.7592   4.8360   4.8546   4.9780
     5.0206   5.1246   5.1416   5.2787   5.3325   5.3596   5.5912   5.6454
     5.7912   5.8422   5.9088   5.9846   6.0350   6.3067   6.3697   6.3830
     6.5480   6.5756   6.6204   6.6764   6.7193   6.8495   6.8981   6.9496
     7.1640   7.2101   7.2431   7.2750   7.2783   7.3514   7.4654   7.4788
     7.4909   7.5412   7.5609   7.6878   7.7243   7.7575   7.8006   7.9010
     7.9209   7.9454   7.9730   7.9967   8.1513   8.1828   8.2253   8.2275
     8.4332   8.5173   8.6158   8.6260   8.6525   8.7924   8.9013   8.9929
     9.0065   9.0342   9.0749   9.0784   9.1106   9.1880   9.2076   9.2784
     9.3001   9.4228   9.5024   9.5027   9.5206   9.5290   9.5826   9.5886
     9.6043   9.6262   9.6565   9.6625   9.6800   9.7112   9.7614   9.7879
     9.7985   9.8353   9.8904   9.8985  10.0181  10.0221  10.0565  10.0596
    10.0836  10.0978  10.1759  10.2045  10.2255  10.2297  10.2533  10.2801
    10.2985  10.3436  10.3806  10.3972  10.4069  10.4534  10.4746  10.4863
    10.4992  10.5525  10.5569  10.6340  10.6401  10.7213  10.7545  10.7812
    10.7899  10.8150  10.8320  10.8567  10.9127  10.9230  10.9520  10.9840
    11.0538  11.0973  11.1095  11.1196  11.2344  11.2509  11.2984  11.3189
    11.3199  11.3279  11.3563  11.3840  11.3954  11.4350  11.4700  11.5180
    11.5361  11.5368  11.5515  11.6091  11.6316  11.6367  11.6501  11.6642
    11.6728  11.7183  11.7215  11.7225  11.7244  11.7629  11.7735  11.8014
    11.8184  11.8286  11.8333  11.8661  11.8776  11.9372  11.9494  11.9896
    12.0100  12.0149  12.0482  12.0512  12.0899  12.1151  12.1518  12.1561
    12.1602  12.2183  12.2241  12.2383  12.3010  12.3408  12.3893  12.4055
    12.4525  12.4655  12.4978  12.5320  12.5382  12.5613  12.5692  12.6454
    12.6640  12.6993  12.7461  12.7819  12.8027  12.8106  12.8412  12.9498
    12.9846  13.0029  13.0602  13.0730  13.1342  13.1623  13.1746  13.2274
    13.2608  13.2780  13.2849  13.4124  13.4264  13.5380  13.5891  13.6022
    13.6083  13.6239  13.6621  13.7173  13.7632  13.7675  13.7923  13.8791
    13.9058  13.9607  13.9743  14.0339  14.0796  14.0805  14.1367  14.1715
    14.1737  14.1966  14.2701  14.2843  14.3206  14.3579  14.4463  14.4712
    14.4742  14.4989  14.5441  14.6170  14.6830  14.7093  14.7142  14.7669
    14.7680  14.9055  14.9277  14.9846  15.0112  15.0308  15.0633  15.0904
    15.1681  15.1759  15.1811  15.3223  15.3635  15.4324  15.4363  15.4585
    15.5730  15.5864  15.6221  15.6598  15.6947  15.7457  15.7463  15.7793
    15.8214  15.8415  15.8978  15.9705  16.0113  16.0430  16.0945  16.0964
    16.1750  16.1805  16.1934  16.2508  16.2528  16.2566  16.2783  16.3065
    16.3081  16.3683  16.3925  16.4538  16.4576  16.4740  16.5086  16.5394
    16.5633  16.5870  16.5935  16.6353  16.6945  16.7326  16.7613  16.8158
    16.8262  16.8656  16.9424  16.9778  16.9856  17.0511  17.1035  17.1505
    17.1655  17.2065  17.2106  17.2328  17.2805  17.2887  17.3015  17.3383
    17.3830  17.4215  17.4618  17.4678  17.4816  17.4989  17.5565  17.5914
    17.5955  17.6144  17.6426  17.6856  17.7017  17.7982  17.8214  17.8235
    17.8259  17.9247  17.9486  18.0309  18.0508  18.0929  18.0965  18.2143
    18.2261  18.2276  18.2443  18.2571

          k = 0.0000 0.0000 0.0094 ( 55507 PWs)   bands (ev):

   -20.7032 -20.6299 -20.5210 -20.3703 -20.1764 -19.9432 -19.6713 -19.3597
   -19.0082 -18.6099 -18.1790 -17.7146 -17.2192 -16.6964 -16.1516 -15.6045
   -15.5928 -15.5377 -15.4417 -15.3107 -15.1403 -15.0365 -14.9340 -14.7052
   -14.5023 -14.4407 -14.2633 -14.2020 -14.1678 -14.1103 -14.1044 -13.9874
   -13.8446 -13.6867 -13.5780 -13.5566 -13.4917 -13.4462 -13.2882 -12.8906
   -12.4490 -11.9739 -11.6575 -11.6290 -11.4683 -11.3826 -11.3718 -11.0291
   -10.9323 -10.9288 -10.6097 -10.3971 -10.3727 -10.1375  -9.8465  -9.7943
    -9.6225  -9.3078  -9.1966  -9.0875  -8.7921  -8.7823  -8.7082  -8.5801
    -8.5740  -8.5701  -8.4026  -8.2903  -8.1756  -8.0903  -7.9610  -7.9072
    -7.9027  -7.6933  -7.6098  -7.5852  -7.3431  -7.2233  -7.0963  -6.8177
    -6.7419  -6.5908  -6.3647  -6.1689  -6.1024  -5.8772  -5.6748  -5.6090
    -5.3568  -5.2650  -5.1382  -4.9162  -4.8081  -4.7503  -4.6335  -4.4724
    -4.4265  -4.3096  -4.3070  -4.2377  -3.6537  -3.5710  -3.4855  -3.3542
    -3.1722  -3.0671  -2.9398  -2.6616  -2.4923  -2.3398  -1.9810  -1.9546
    -1.6201  -1.5403  -0.7983  -0.7180  -0.3902  -0.3795  -0.0717   0.1473
     0.1696   0.3439   0.4610   0.5344   0.5758   0.5932   0.7411   1.3777
     1.8232   1.9474   1.9782   2.0508   2.0973   2.1938   2.4017   2.5875
     2.7550   2.8812   3.1407   3.2255   3.3425   3.4266   3.4928   3.4971
     3.5766   3.6968   3.7911   3.8167   4.0329   4.0613   4.2025   4.2365
     4.3368   4.5983   4.6010   4.6256   4.7688   4.8455   4.8644   4.9876
     4.9983   5.1340   5.1514   5.2875   5.3420   5.3691   5.6009   5.6548
     5.7630   5.8518   5.9267   5.9936   6.0470   6.3156   6.3787   6.3874
     6.5272   6.5847   6.6290   6.6817   6.7314   6.8607   6.9052   6.9574
     7.1729   7.2289   7.2336   7.2560   7.2936   7.3361   7.4649   7.4770
     7.4930   7.5437   7.5674   7.6498   7.7280   7.7692   7.8016   7.8812
     7.9131   7.9490   7.9499   8.0021   8.1024   8.1748   8.2305   8.2367
     8.4189   8.4405   8.5914   8.6407   8.6646   8.7904   8.7951   8.9942
     9.0198   9.0397   9.0721   9.0734   9.1232   9.1624   9.1778   9.2199
     9.2828   9.3476   9.4109   9.4437   9.5012   9.5112   9.5116   9.5355
     9.5447   9.5933   9.5978   9.6080   9.6226   9.6363   9.6845   9.6884
     9.6979   9.7939   9.7948   9.8982   9.9127   9.9439   9.9918   9.9973
    10.0548  10.0553  10.1427  10.1494  10.1997  10.2103  10.2274  10.2780
    10.2897  10.3746  10.3878  10.4099  10.4249  10.5000  10.5208  10.5464
    10.5656  10.5928  10.5987  10.6098  10.6574  10.6643  10.6866  10.7289
    10.7355  10.7567  10.7844  10.8428  10.8595  10.8708  10.9323  10.9517
    11.0178  11.0598  11.1354  11.1655  11.1833  11.2836  11.2950  11.3046
    11.3163  11.3476  11.3977  11.4269  11.4768  11.4776  11.4968  11.5361
    11.5362  11.5494  11.5499  11.5705  11.6376  11.6565  11.6758  11.6851
    11.6879  11.6998  11.7229  11.7319  11.7377  11.7970  11.8332  11.8365
    11.8594  11.9010  11.9161  11.9597  11.9717  11.9933  12.0187  12.0221
    12.0436  12.0498  12.0676  12.0907  12.1178  12.1226  12.1250  12.1375
    12.1509  12.1696  12.1783  12.2106  12.2415  12.2623  12.2879  12.3233
    12.3272  12.4341  12.4383  12.4387  12.5043  12.5381  12.5496  12.5835
    12.6609  12.6933  12.6950  12.7752  12.7837  12.8079  12.8564  12.8988
    12.9734  12.9838  13.0615  13.0822  13.0950  13.1890  13.2932  13.3148
    13.3184  13.3458  13.4127  13.4677  13.4725  13.5310  13.5796  13.6187
    13.6256  13.6695  13.7118  13.7192  13.8137  13.8169  13.8397  13.8828
    13.9194  13.9785  13.9954  14.0702  14.1238  14.1625  14.1851  14.1862
    14.1949  14.2579  14.2753  14.3282  14.4033  14.4389  14.4881  14.5039
    14.5357  14.5401  14.5815  14.6454  14.6856  14.7269  14.7340  14.7753
    14.8041  14.8657  14.8789  14.9214  14.9387  15.0597  15.0708  15.1048
    15.1864  15.2093  15.2236  15.2920  15.3703  15.4100  15.4583  15.4906
    15.4984  15.5632  15.5772  15.6055  15.6402  15.6992  15.7118  15.7544
    15.8107  15.8840  15.9123  15.9446  15.9939  16.0136  16.0226  16.0634
    16.1586  16.1644  16.1831  16.2648  16.3074  16.3088  16.3164  16.3356
    16.3604  16.3630  16.3969  16.4560  16.5005  16.5468  16.5504  16.5704
    16.6117  16.6202  16.6637  16.7039  16.7236  16.7537  16.8304  16.8387
    16.8761  16.9287  16.9405  16.9600  16.9695  17.0297  17.0510  17.0746
    17.1107  17.1244  17.1249  17.2170  17.2794  17.2925  17.3234  17.3825
    17.4110  17.4333  17.4415  17.4946  17.5300  17.5341  17.5547  17.5746
    17.5894  17.6264  17.6991  17.7424  17.7598  17.7811  17.7824  17.8535
    17.8669  17.8756  17.9859  17.9999  18.0199  18.0763  18.1514  18.1635
    18.1676  18.2071  18.2223  18.2610

          k = 0.0000 0.0000 0.0141 ( 55531 PWs)   bands (ev):

   -20.6914 -20.6180 -20.5091 -20.3585 -20.1646 -19.9315 -19.6596 -19.3481
   -18.9967 -18.5985 -18.1676 -17.7035 -17.2083 -16.6860 -16.1421 -15.7572
   -15.6905 -15.6022 -15.5774 -15.4612 -15.2888 -15.0945 -15.0204 -14.8520
   -14.5880 -14.5154 -14.3150 -14.1917 -14.0925 -14.0307 -13.9427 -13.8252
   -13.6823 -13.5652 -13.5106 -13.4223 -13.3709 -13.3385 -13.3079 -12.9738
   -12.5374 -12.0630 -11.6054 -11.5466 -11.5409 -11.3406 -11.2824 -11.0188
   -10.9280 -10.8998 -10.5310 -10.4423 -10.3625 -10.0668  -9.8637  -9.8032
    -9.5677  -9.2630  -9.2588  -9.0458  -8.7779  -8.7374  -8.6940  -8.6376
    -8.5659  -8.5323  -8.3886  -8.2599  -8.1616  -8.0466  -8.0204  -7.8914
    -7.8888  -7.6813  -7.5715  -7.5617  -7.3992  -7.2098  -7.0543  -6.8045
    -6.7955  -6.5583  -6.3519  -6.2173  -6.0824  -5.8650  -5.6956  -5.6242
    -5.3455  -5.2756  -5.1711  -4.9338  -4.7982  -4.7831  -4.6602  -4.5019
    -4.4615  -4.3486  -4.3343  -4.2298  -3.6495  -3.6456  -3.5609  -3.4309
    -3.2511  -3.0697  -3.0218  -2.7495  -2.5079  -2.4369  -2.0958  -2.0024
    -1.7707  -1.6734  -0.6718  -0.5699  -0.3525  -0.2633   0.0309   0.1497
     0.2665   0.4384   0.5546   0.6275   0.6688   0.6862   0.7278   1.3559
     1.8392   1.9634   1.9944   2.0237   2.1134   2.2100   2.4178   2.6037
     2.7241   2.8973   3.1569   3.2415   3.3613   3.4225   3.4826   3.5132
     3.5927   3.7135   3.8073   3.8328   4.0492   4.0777   4.2012   4.2195
     4.3529   4.6145   4.6170   4.6425   4.7847   4.8614   4.8806   4.9618
     5.0035   5.1498   5.1677   5.3021   5.3579   5.3848   5.6170   5.6704
     5.7224   5.8676   5.9507   6.0086   6.0667   6.3302   6.3931   6.3949
     6.4931   6.5996   6.6428   6.6903   6.7514   6.8792   6.9165   6.9702
     7.1871   7.2193   7.2298   7.2543   7.3089   7.3243   7.4328   7.4961
     7.4986   7.5493   7.5788   7.6063   7.7170   7.7727   7.7884   7.8669
     7.9118   7.9331   7.9471   8.0096   8.0122   8.1845   8.2357   8.2554
     8.2884   8.4496   8.5517   8.6356   8.6476   8.6839   8.8018   8.9720
     8.9859   9.0248   9.0412   9.0535   9.0673   9.0958   9.1207   9.1440
     9.1476   9.2294   9.2351   9.3089   9.3732   9.4422   9.4717   9.5211
     9.5268   9.5588   9.5701   9.5771   9.5934   9.6097   9.6403   9.6540
     9.7011   9.7025   9.7839   9.8012   9.8047   9.8230   9.9113   9.9568
    10.0231  10.0443  10.1082  10.1103  10.1822  10.1938  10.2055  10.2148
    10.2196  10.2647  10.2820  10.3416  10.3794  10.4167  10.4436  10.4555
    10.4768  10.4862  10.5161  10.5315  10.5741  10.5843  10.6239  10.7555
    10.7711  10.7903  10.7963  10.8520  10.8932  10.9280  10.9553  10.9849
    11.0804  11.1176  11.1681  11.2693  11.2858  11.2871  11.3197  11.3219
    11.3539  11.3832  11.4073  11.4204  11.4235  11.4562  11.5051  11.5106
    11.5499  11.5595  11.5787  11.5893  11.5921  11.6586  11.6613  11.6819
    11.6919  11.7060  11.7590  11.7932  11.8005  11.8098  11.8578  11.8708
    11.8772  11.9189  11.9290  11.9583  11.9635  11.9668  11.9941  12.0452
    12.0545  12.0794  12.1020  12.1169  12.1574  12.1669  12.1787  12.1869
    12.2070  12.2116  12.2247  12.2247  12.2378  12.2604  12.2837  12.2958
    12.3384  12.3409  12.3634  12.3638  12.4034  12.5511  12.5661  12.5990
    12.6088  12.6405  12.6477  12.7135  12.7737  12.8001  12.8006  12.8404
    12.9328  12.9972  13.0080  13.0449  13.2068  13.2400  13.2583  13.3020
    13.3079  13.3621  13.4336  13.4873  13.5628  13.6057  13.6295  13.7082
    13.7465  13.7488  13.7602  13.7918  13.8482  13.8638  13.9238  13.9318
    13.9955  14.0477  14.1031  14.1370  14.1774  14.1779  14.1995  14.2430
    14.3130  14.3381  14.3482  14.4245  14.4450  14.4660  14.5001  14.5379
    14.5535  14.6083  14.6561  14.6697  14.6915  14.7604  14.7665  14.7985
    14.8111  14.8325  14.8986  14.9250  15.0366  15.0699  15.0841  15.1143
    15.1722  15.2193  15.2495  15.2909  15.2948  15.3407  15.4122  15.4424
    15.4823  15.4958  15.5582  15.5873  15.5979  15.6275  15.6480  15.7059
    15.8345  15.8661  15.8924  15.8955  16.0219  16.0265  16.0791  16.0983
    16.1132  16.2205  16.2299  16.2701  16.2905  16.3421  16.3479  16.4165
    16.4252  16.4537  16.4538  16.5119  16.5295  16.5478  16.5766  16.5821
    16.6119  16.6839  16.7025  16.7273  16.7677  16.7801  16.7893  16.8145
    16.8297  16.8463  16.8763  16.9994  17.0090  17.0480  17.0595  17.1047
    17.1390  17.1494  17.1963  17.2776  17.2783  17.3159  17.3772  17.4218
    17.4484  17.4516  17.4548  17.4628  17.5193  17.5289  17.5350  17.6005
    17.6120  17.6370  17.6733  17.7270  17.7315  17.7593  17.7628  17.8516
    17.8777  17.8844  17.8977  17.9326  17.9568  18.0325  18.0836  18.1464
    18.1644  18.2093  18.2110  18.2147

          k = 0.0000 0.0000 0.0188 ( 55511 PWs)   bands (ev):

   -20.6748 -20.6015 -20.4926 -20.3419 -20.1482 -19.9151 -19.6432 -19.3318
   -18.9805 -18.5825 -18.1518 -17.6879 -17.1931 -16.6714 -16.1291 -15.9291
   -15.8617 -15.7653 -15.6300 -15.5770 -15.4533 -15.2545 -15.0231 -15.0151
   -14.7477 -14.5482 -14.4587 -14.3014 -13.8961 -13.8357 -13.7494 -13.6367
   -13.5209 -13.4968 -13.4305 -13.3409 -13.2943 -13.1995 -13.1608 -13.0737
   -12.6461 -12.1728 -11.6711 -11.4957 -11.4406 -11.2917 -11.1664 -11.1071
   -10.8638 -10.8144 -10.5507 -10.4035 -10.3280  -9.9956  -9.9235  -9.7619
    -9.4920  -9.3403  -9.2098  -8.9832  -8.7581  -8.7157  -8.6907  -8.6742
    -8.5461  -8.4761  -8.3689  -8.2268  -8.1420  -8.0954  -7.9869  -7.8708
    -7.8694  -7.6652  -7.5523  -7.5017  -7.4704  -7.1909  -7.0034  -6.8646
    -6.7860  -6.5202  -6.3340  -6.2817  -6.0594  -5.8479  -5.7462  -5.6255
    -5.3297  -5.3015  -5.2078  -4.9621  -4.8272  -4.7843  -4.6986  -4.5445
    -4.5095  -4.4046  -4.3688  -4.2189  -3.7446  -3.6612  -3.6433  -3.5324
    -3.3551  -3.1308  -3.0720  -2.8633  -2.5601  -2.5298  -2.2348  -2.0661
    -1.9329  -1.8164  -0.5377  -0.4110  -0.3029  -0.1222   0.1537   0.1616
     0.3928   0.5632   0.6790   0.7100   0.7520   0.7934   0.8109   1.3261
     1.8616   1.9857   1.9866   2.0170   2.1359   2.2326   2.4403   2.6263
     2.6818   2.9198   3.1796   3.2639   3.3871   3.3901   3.4956   3.5357
     3.6152   3.7367   3.8301   3.8553   4.0720   4.1006   4.1546   4.2415
     4.3754   4.6372   4.6392   4.6660   4.8070   4.8837   4.9033   4.9121
     5.0258   5.1718   5.1899   5.3224   5.3801   5.4068   5.6395   5.6713
     5.6924   5.8895   5.9797   6.0294   6.0936   6.3501   6.4055   6.4117
     6.4463   6.6200   6.6610   6.7022   6.7793   6.9049   6.9312   6.9876
     7.1687   7.2063   7.2323   7.2699   7.3124   7.3302   7.4065   7.4767
     7.5225   7.5567   7.5860   7.5944   7.6468   7.7728   7.8150   7.8594
     7.8660   7.8680   7.9608   7.9830   8.0239   8.1474   8.1911   8.2234
     8.2813   8.4540   8.4971   8.4995   8.6029   8.7100   8.7574   8.7842
     8.8285   8.8607   8.8802   8.9871   9.0162   9.0463   9.0533   9.0807
     9.0852   9.1714   9.1721   9.2498   9.2948   9.2980   9.3906   9.3996
     9.5246   9.5328   9.5481   9.5827   9.5900   9.5917   9.6024   9.6310
     9.6437   9.6844   9.6973   9.7168   9.7679   9.8151   9.8557   9.8988
     9.9329   9.9446  10.0171  10.0935  10.1024  10.1133  10.1364  10.1738
    10.1790  10.1895  10.1970  10.2200  10.2435  10.2467  10.2767  10.2787
    10.3531  10.3831  10.4091  10.4987  10.5456  10.5643  10.5938  10.6389
    10.6631  10.7285  10.7859  10.8178  10.8550  10.9552  11.0515  11.1659
    11.1896  11.2193  11.2717  11.2870  11.2987  11.3028  11.3192  11.3396
    11.3746  11.4074  11.4112  11.4153  11.4387  11.4784  11.5101  11.5254
    11.5269  11.5487  11.5733  11.5933  11.6130  11.6270  11.6453  11.6838
    11.6930  11.7099  11.7316  11.7516  11.7803  11.7902  11.8646  11.8920
    11.9019  11.9271  11.9399  11.9420  11.9709  11.9887  12.0221  12.0232
    12.0764  12.0791  12.1023  12.1271  12.1397  12.1477  12.2033  12.2380
    12.2451  12.2569  12.2597  12.2782  12.3236  12.3292  12.3436  12.3589
    12.3885  12.3942  12.4178  12.4637  12.4816  12.4968  12.5095  12.5719
    12.5767  12.6135  12.6522  12.6689  12.6935  12.7178  12.7510  12.8037
    12.9613  12.9636  13.0311  13.0741  13.1353  13.1559  13.2265  13.3072
    13.3277  13.4246  13.4439  13.4490  13.5263  13.6983  13.7206  13.7292
    13.7678  13.8291  13.8571  13.8667  13.9438  14.0047  14.0073  14.0740
    14.1358  14.1693  14.1926  14.1972  14.2260  14.2713  14.2932  14.3408
    14.3580  14.3992  14.4200  14.4268  14.5025  14.5273  14.5771  14.5932
    14.6108  14.6330  14.6575  14.7061  14.7540  14.7614  14.7748  14.8183
    14.8702  14.9734  14.9811  14.9982  15.0021  15.0678  15.0989  15.1011
    15.1294  15.1652  15.1848  15.2088  15.3265  15.3545  15.3870  15.4312
    15.4806  15.4847  15.5231  15.5487  15.5511  15.5853  15.6794  15.7018
    15.8453  15.8553  15.8706  15.8929  15.9623  16.0340  16.0436  16.1778
    16.2077  16.2135  16.2421  16.2975  16.3222  16.3972  16.4046  16.4076
    16.4430  16.4847  16.5120  16.5527  16.5568  16.5712  16.5893  16.6001
    16.6651  16.6780  16.7234  16.7358  16.7790  16.8119  16.8127  16.8543
    16.8564  16.8729  16.9396  16.9548  16.9975  17.0568  17.1044  17.1776
    17.2134  17.2453  17.2500  17.2736  17.2873  17.3461  17.3602  17.3990
    17.4009  17.4358  17.4635  17.4930  17.4982  17.5001  17.5477  17.5513
    17.6104  17.6249  17.6302  17.6398  17.6589  17.7753  17.7964  17.8025
    17.8367  17.9058  17.9202  17.9278  17.9674  18.0365  18.0551  18.0612
    18.0742  18.0818  18.0878  18.1687

          k = 0.0000 0.0000 0.0235 ( 55539 PWs)   bands (ev):

   -20.6535 -20.5802 -20.4713 -20.3207 -20.1270 -19.8940 -19.6222 -19.3109
   -18.9597 -18.5619 -18.1314 -17.6679 -17.1736 -16.6529 -16.1137 -16.1094
   -16.0406 -15.9437 -15.8068 -15.6413 -15.5525 -15.4269 -15.1847 -15.0297
   -14.9051 -14.6583 -14.5393 -14.4258 -13.6845 -13.6255 -13.5421 -13.5063
   -13.4967 -13.4239 -13.2977 -13.1892 -13.1869 -13.1493 -13.0251 -13.0061
   -12.7666 -12.2960 -11.7898 -11.3921 -11.3200 -11.2874 -11.1488 -11.0314
   -10.8342 -10.6784 -10.6396 -10.3003 -10.2758 -10.0591  -9.8334  -9.7294
    -9.4671  -9.3519  -9.1690  -8.9113  -8.7904  -8.7325  -8.6487  -8.6486
    -8.5207  -8.4043  -8.3435  -8.1936  -8.1788  -8.1168  -7.9151  -7.8462
    -7.8444  -7.6478  -7.5499  -7.5276  -7.4343  -7.1666  -6.9480  -6.9464
    -6.7622  -6.4805  -6.3594  -6.3110  -6.0371  -5.8260  -5.8166  -5.6244
    -5.3515  -5.3094  -5.2405  -5.0040  -4.8809  -4.7664  -4.7493  -4.6022
    -4.5698  -4.4720  -4.4130  -4.2051  -3.8640  -3.7812  -3.6543  -3.6365
    -3.4793  -3.2586  -3.0771  -2.9969  -2.7020  -2.5584  -2.3886  -2.1447
    -2.0985  -1.9643  -0.4009  -0.2505  -0.2407   0.0348   0.1596   0.3132
     0.5426   0.6882   0.7131   0.8295   0.9033   0.9453   0.9632   1.2891
     1.8904   1.9402   2.0144   2.0461   2.1649   2.2617   2.4693   2.6289
     2.6554   2.9487   3.2088   3.2926   3.3377   3.4198   3.5243   3.5647
     3.6442   3.7664   3.8593   3.8842   4.0961   4.1013   4.1301   4.2703
     4.4043   4.6663   4.6676   4.6959   4.8357   4.8504   4.9124   4.9324
     5.0545   5.2002   5.2174   5.3480   5.4086   5.4349   5.6108   5.6683
     5.7206   5.9169   6.0137   6.0558   6.1271   6.3738   6.3879   6.4203
     6.4331   6.6453   6.6819   6.7171   6.8147   6.9375   6.9485   7.0088
     7.1050   7.2293   7.2404   7.2721   7.2999   7.3358   7.3866   7.4444
     7.5558   7.5611   7.5617   7.5958   7.6119   7.7521   7.7897   7.7936
     7.8483   7.8522   7.9911   7.9930   7.9959   8.0614   8.1387   8.2259
     8.3140   8.3759   8.4219   8.4282   8.4730   8.5432   8.5835   8.6428
     8.6566   8.7420   8.8188   8.8397   8.8868   8.8944   8.9844   9.0364
     9.1138   9.1157   9.1547   9.2064   9.2330   9.2472   9.2752   9.3553
     9.3679   9.4563   9.4933   9.5008   9.5627   9.5750   9.5982   9.6242
     9.6353   9.6550   9.7298   9.7391   9.7392   9.7397   9.7654   9.8199
     9.8326   9.9187   9.9195   9.9224   9.9518   9.9671   9.9678  10.0128
    10.0212  10.0548  10.0815  10.1438  10.1599  10.1925  10.2550  10.2757
    10.2786  10.2935  10.3338  10.3535  10.4427  10.4996  10.5839  10.6082
    10.6326  10.6730  10.7422  10.8459  10.8649  10.9005  10.9261  11.0148
    11.1810  11.1996  11.2145  11.2186  11.2280  11.2721  11.2924  11.3306
    11.3642  11.3912  11.4005  11.4301  11.4662  11.4843  11.5377  11.5577
    11.5637  11.6001  11.6060  11.6233  11.6374  11.6728  11.6746  11.6961
    11.6982  11.7435  11.7554  11.7913  11.7988  11.8386  11.8901  11.9050
    11.9220  11.9391  11.9704  11.9779  11.9844  12.0200  12.0242  12.0675
    12.0781  12.0925  12.1164  12.1393  12.1442  12.2154  12.2192  12.2220
    12.2233  12.2566  12.2910  12.3291  12.3395  12.3592  12.3913  12.4068
    12.4279  12.4319  12.4587  12.4660  12.5079  12.5169  12.5983  12.6025
    12.6658  12.6752  12.7003  12.7119  12.7166  12.7726  12.7835  12.7882
    12.8225  12.8843  12.9428  13.0163  13.0381  13.2465  13.2630  13.3050
    13.3297  13.3718  13.4017  13.6029  13.6064  13.6440  13.6513  13.7856
    13.7976  13.8054  13.8748  13.9357  14.0089  14.1537  14.1783  14.2071
    14.2520  14.2600  14.2738  14.2760  14.3090  14.3563  14.3995  14.4484
    14.4582  14.5058  14.5226  14.5233  14.5281  14.5643  14.5692  14.5870
    14.6507  14.7050  14.7327  14.7595  14.8144  14.8463  14.8576  14.8733
    14.9098  14.9399  14.9442  14.9944  15.0193  15.0550  15.0884  15.1378
    15.1550  15.1579  15.2309  15.2598  15.2847  15.3003  15.3748  15.3961
    15.4751  15.5167  15.5639  15.5889  15.5906  15.6215  15.6862  15.7480
    15.8133  15.8658  15.9032  15.9156  15.9249  16.0588  16.0633  16.1253
    16.1368  16.1838  16.2266  16.3003  16.3539  16.3916  16.4115  16.4323
    16.4385  16.4491  16.5795  16.6037  16.6430  16.6487  16.6511  16.7173
    16.7250  16.7687  16.7913  16.8135  16.8314  16.8387  16.8459  16.8720
    16.8981  16.9039  16.9106  17.0733  17.1072  17.1189  17.1483  17.1492
    17.1614  17.1811  17.2169  17.2641  17.2696  17.2770  17.3201  17.3265
    17.3559  17.3900  17.4061  17.4201  17.4772  17.4969  17.4995  17.5532
    17.5967  17.6215  17.6458  17.6774  17.7149  17.7747  17.8224  17.8373
    17.8397  17.8728  17.8859  17.9227  17.9398  17.9531  18.0013  18.0026
    18.0051  18.0555  18.1161  18.1560

          k = 0.0000 0.0000 0.0282 ( 55538 PWs)   bands (ev):

   -20.6275 -20.5541 -20.4453 -20.2948 -20.1011 -19.8682 -19.5965 -19.2854
   -18.9344 -18.5367 -18.1066 -17.6434 -17.1499 -16.6305 -16.2929 -16.2256
   -16.1255 -16.0947 -15.9847 -15.8152 -15.6027 -15.5464 -15.3537 -15.1133
   -14.9882 -14.8147 -14.5882 -14.5596 -13.5788 -13.4725 -13.4626 -13.4038
   -13.3226 -13.2968 -13.2112 -13.1207 -13.0667 -12.9518 -12.8910 -12.8590
   -12.8412 -12.4265 -11.9193 -11.3904 -11.2694 -11.1915 -11.0710 -10.8880
   -10.8551 -10.6762 -10.5288 -10.3020 -10.1319 -10.1268  -9.7185  -9.7015
    -9.5352  -9.2442  -9.1423  -8.9256  -8.7620  -8.7013  -8.6175  -8.6138
    -8.4896  -8.3458  -8.3126  -8.2408  -8.1605  -8.0860  -7.8390  -7.8179
    -7.8139  -7.6639  -7.5965  -7.4974  -7.3644  -7.1369  -7.0374  -6.8922
    -6.7332  -6.4480  -6.4426  -6.2829  -6.0188  -5.9002  -5.7993  -5.6278
    -5.4237  -5.2846  -5.2719  -5.0624  -4.9425  -4.8128  -4.7448  -4.6780
    -4.6414  -4.5464  -4.4664  -4.1884  -3.9998  -3.9178  -3.7923  -3.6321
    -3.6156  -3.4021  -3.1452  -3.0839  -2.8565  -2.5971  -2.5480  -2.2758
    -2.2251  -2.1149  -0.2634  -0.1771  -0.0816   0.1673   0.2025   0.4799
     0.6636   0.7105   0.8830   1.0016   1.0770   1.1202   1.1389   1.2457
     1.8853   1.9256   2.0494   2.0817   2.2003   2.2973   2.5047   2.5665
     2.6910   2.9841   3.2445   3.2726   3.3277   3.4588   3.5623   3.6000
     3.6795   3.8026   3.8951   3.9190   4.0278   4.1370   4.1659   4.3056
     4.4396   4.7011   4.7019   4.7319   4.7789   4.8707   4.9475   4.9678
     5.0896   5.2349   5.2483   5.3786   5.4435   5.4689   5.5431   5.7035
     5.7551   5.9494   6.0531   6.0875   6.1660   6.3200   6.3986   6.4416
     6.4546   6.6750   6.7027   6.7347   6.8575   6.9673   6.9760   7.0298
     7.0324   7.2522   7.2531   7.2762   7.2836   7.3086   7.3517   7.4086
     7.4861   7.5682   7.5938   7.6085   7.6233   7.6775   7.7168   7.7858
     7.8174   7.8877   7.9225   7.9706   8.0380   8.0529   8.0673   8.1932
     8.2232   8.2551   8.3198   8.3460   8.3462   8.3532   8.3943   8.4765
     8.5779   8.6460   8.6709   8.7084   8.7776   8.8587   8.8946   8.9055
     9.0152   9.0788   9.0860   9.1594   9.2331   9.2402   9.2421   9.3113
     9.3274   9.3546   9.3652   9.3847   9.4147   9.5006   9.5720   9.6064
     9.6510   9.6566   9.6657   9.6740   9.6838   9.7313   9.7425   9.7539
     9.7563   9.7574   9.7689   9.8112   9.8233   9.8287   9.8430   9.8575
     9.8673   9.9687   9.9868   9.9897  10.0858  10.1768  10.1981  10.2069
    10.2270  10.2743  10.2942  10.3021  10.3318  10.4517  10.5474  10.6011
    10.6020  10.6497  10.6520  10.7895  10.8424  10.8728  10.8797  10.9166
    10.9472  11.0148  11.0675  11.0737  11.1001  11.1257  11.2273  11.2534
    11.3249  11.3592  11.4010  11.4344  11.4416  11.4724  11.4805  11.5011
    11.5699  11.5952  11.6039  11.6335  11.6735  11.7105  11.7189  11.7833
    11.8192  11.8355  11.8416  11.8698  11.8926  11.9034  11.9196  11.9392
    11.9705  11.9728  12.0074  12.0185  12.0332  12.0581  12.0704  12.0969
    12.1148  12.1150  12.1472  12.1665  12.1901  12.2519  12.2523  12.2531
    12.2662  12.2745  12.2912  12.2961  12.3089  12.4045  12.4094  12.4213
    12.4544  12.4676  12.5070  12.5151  12.5660  12.6011  12.6230  12.6366
    12.6385  12.6394  12.6904  12.7946  12.8084  12.8153  12.8220  12.8531
    12.8924  12.9144  12.9208  13.0367  13.0626  13.1256  13.1665  13.3225
    13.3890  13.4471  13.4780  13.5440  13.5464  13.5889  13.6704  13.7790
    13.8348  13.9476  13.9582  13.9892  14.0544  14.0913  14.2159  14.2316
    14.2484  14.2871  14.2994  14.3379  14.4109  14.4641  14.4878  14.5578
    14.5749  14.6078  14.6198  14.6252  14.6488  14.6662  14.6711  14.6866
    14.7440  14.7727  14.7978  14.8270  14.8275  14.8342  14.8619  14.8653
    14.8969  14.9613  14.9863  15.0077  15.0680  15.0826  15.0969  15.1610
    15.2313  15.2494  15.2708  15.3117  15.3192  15.3200  15.4100  15.4700
    15.4963  15.5511  15.5566  15.6078  15.6593  15.7080  15.7169  15.7626
    15.7922  15.7931  15.8709  15.9231  15.9751  16.0353  16.1046  16.1392
    16.1487  16.1876  16.2166  16.3371  16.3583  16.3589  16.4148  16.4410
    16.5561  16.5680  16.5823  16.6129  16.6974  16.7258  16.7378  16.7469
    16.7539  16.7943  16.8059  16.8418  16.8670  16.8816  16.9009  16.9143
    16.9886  16.9991  17.0004  17.0385  17.0484  17.0522  17.0708  17.1247
    17.1695  17.1756  17.1833  17.2024  17.2146  17.2364  17.2997  17.3077
    17.3675  17.4021  17.4180  17.4600  17.4750  17.4771  17.4922  17.5443
    17.6040  17.6085  17.6545  17.6558  17.6754  17.7474  17.7554  17.7900
    17.8353  17.8398  17.8639  17.9159  17.9176  17.9852  17.9938  18.0239
    18.0325  18.0855  18.1155  18.1613

          k = 0.0000 0.0000 0.0329 ( 55526 PWs)   bands (ev):

   -20.5967 -20.5234 -20.4146 -20.2641 -20.0706 -19.8377 -19.5662 -19.2552
   -18.9044 -18.5070 -18.0772 -17.6147 -17.1220 -16.6048 -16.4769 -16.4087
   -16.3078 -16.1750 -16.0644 -15.9937 -15.7778 -15.5753 -15.4822 -15.2735
   -14.9976 -14.9765 -14.6987 -14.6472 -13.6384 -13.4944 -13.3593 -13.2334
   -13.1760 -13.1006 -13.0826 -12.9910 -12.9618 -12.8607 -12.7618 -12.7120
   -12.6603 -12.5544 -12.0541 -11.5176 -11.1344 -11.0700 -10.9528 -10.9412
   -10.7460 -10.6182 -10.3724 -10.3717 -10.1273  -9.9790  -9.7653  -9.5612
    -9.5587  -9.1520  -9.1161  -8.9788  -8.6644  -8.6561  -8.5920  -8.5807
    -8.4529  -8.3912  -8.2760  -8.1859  -8.1281  -8.0497  -7.8005  -7.7860
    -7.7779  -7.7077  -7.5746  -7.4618  -7.2994  -7.1314  -7.1019  -6.8400
    -6.6989  -6.5443  -6.4096  -6.2498  -6.0074  -5.9940  -5.7677  -5.6392
    -5.5116  -5.3091  -5.2555  -5.1387  -5.0114  -4.8899  -4.7733  -4.7233
    -4.7193  -4.6245  -4.5286  -4.1691  -4.1480  -4.0668  -3.9426  -3.7726
    -3.6181  -3.5570  -3.3036  -3.0949  -3.0173  -2.7261  -2.6291  -2.4454
    -2.3227  -2.2670  -0.1259  -0.1038   0.0842   0.1791   0.3754   0.6354
     0.6587   0.8921   1.0688   1.1911   1.1969   1.2693   1.3144   1.3342
     1.8230   1.9671   2.0908   2.1238   2.2420   2.3394   2.4954   2.5466
     2.7331   3.0259   3.1972   3.2867   3.3691   3.5034   3.6077   3.6418
     3.7211   3.8452   3.9373   3.9416   3.9697   4.1791   4.2079   4.3472
     4.4813   4.6889   4.7439   4.7496   4.7740   4.9121   4.9890   5.0096
     5.1311   5.2760   5.2760   5.4135   5.4755   5.4848   5.5087   5.7450
     5.7958   5.9862   6.0981   6.1241   6.1989   6.2552   6.4205   6.4723
     6.4725   6.7083   6.7182   6.7547   6.9073   6.9395   6.9865   7.0248
     7.0558   7.2614   7.2629   7.2714   7.2715   7.2936   7.3051   7.3440
     7.4106   7.5333   7.5796   7.5942   7.6019   7.6642   7.7188   7.7439
     7.8412   7.8417   7.9144   7.9173   7.9318   7.9969   8.0355   8.0477
     8.0858   8.1439   8.2023   8.2081   8.2530   8.2845   8.3252   8.3980
     8.4568   8.4931   8.5358   8.6078   8.7739   8.7742   8.7805   8.7890
     8.8114   8.9885   9.0483   9.1096   9.1617   9.2065   9.2260   9.2577
     9.2601   9.2679   9.3054   9.3304   9.3513   9.3733   9.4036   9.4393
     9.5147   9.5359   9.5485   9.6114   9.6419   9.6481   9.6574   9.6645
     9.6677   9.6740   9.6764   9.7175   9.7260   9.7263   9.7847   9.8509
     9.8728   9.8981   9.9005   9.9983  10.0449  10.0461  10.0640  10.0658
    10.1734  10.2383  10.2656  10.3364  10.3621  10.4164  10.4294  10.4796
    10.5893  10.6268  10.6666  10.6838  10.7196  10.7517  10.7659  10.8378
    10.8597  10.8704  10.9155  10.9325  10.9712  10.9833  11.0454  11.1972
    11.1992  11.3419  11.3481  11.3926  11.4455  11.4658  11.4810  11.4995
    11.5155  11.5435  11.6202  11.6389  11.6487  11.6779  11.7594  11.7953
    11.8055  11.8249  11.8441  11.8877  11.9107  11.9324  11.9930  11.9971
    11.9996  12.0052  12.0471  12.0815  12.0914  12.0968  12.1358  12.1454
    12.1636  12.1715  12.2188  12.2218  12.2479  12.2694  12.2943  12.2987
    12.3143  12.3187  12.3362  12.3887  12.4385  12.4453  12.4487  12.4524
    12.4544  12.5067  12.5216  12.5637  12.5696  12.5851  12.6683  12.6837
    12.6951  12.7336  12.7353  12.7531  12.7748  12.8365  12.8531  12.8917
    12.9562  12.9759  13.0337  13.0725  13.1048  13.1444  13.2409  13.2602
    13.4188  13.4277  13.4504  13.5017  13.5186  13.6727  13.7696  13.7871
    13.8482  13.9298  13.9582  13.9650  14.0233  14.1699  14.2014  14.2586
    14.2746  14.3295  14.3737  14.3755  14.3828  14.4360  14.4589  14.5118
    14.5997  14.6263  14.6856  14.6987  14.7700  14.7778  14.8264  14.8372
    14.8431  14.8595  14.8854  14.8953  14.8958  14.9071  14.9239  14.9355
    14.9569  15.0471  15.0679  15.0748  15.0770  15.1519  15.1738  15.1907
    15.2556  15.2999  15.3522  15.4214  15.4324  15.4327  15.4657  15.5031
    15.5200  15.5262  15.5867  15.6282  15.6892  15.6926  15.7257  15.7648
    15.8180  15.8327  15.9080  15.9729  16.0022  16.0248  16.1659  16.1763
    16.2172  16.2358  16.3289  16.3548  16.3593  16.3755  16.4316  16.4826
    16.5778  16.6401  16.6605  16.6837  16.7091  16.7263  16.7445  16.7748
    16.7839  16.8003  16.8204  16.8336  16.8478  16.8537  16.8971  16.8972
    16.9180  16.9578  16.9932  16.9988  17.0163  17.0261  17.0700  17.0720
    17.1138  17.1374  17.2490  17.2704  17.2869  17.2891  17.2982  17.3512
    17.3597  17.3659  17.4670  17.4816  17.5002  17.5223  17.5266  17.5471
    17.5647  17.6436  17.6505  17.6680  17.7167  17.7231  17.7345  17.7544
    17.8017  17.8267  17.8467  17.8802  17.8952  17.9812  17.9981  18.0406
    18.0666  18.0953  18.1403  18.2001

          k = 0.0000 0.0000 0.0376 ( 55540 PWs)   bands (ev):

   -20.5612 -20.4879 -20.3792 -20.2288 -20.0353 -19.8026 -19.5312 -19.2204
   -18.8699 -18.4728 -18.0434 -17.5816 -17.0901 -16.6604 -16.5911 -16.5774
   -16.4870 -16.3524 -16.1713 -16.0532 -15.9416 -15.7235 -15.4894 -15.4409
   -15.1376 -15.0065 -14.8374 -14.7215 -13.6832 -13.5851 -13.3498 -13.1916
   -12.9985 -12.9427 -12.9139 -12.8607 -12.7655 -12.7286 -12.6441 -12.5719
   -12.5249 -12.4809 -12.1892 -11.6513 -11.0987 -10.9592 -10.9493 -10.7855
   -10.6391 -10.4909 -10.4796 -10.2195 -10.0760  -9.8655  -9.8195  -9.5369
    -9.4109  -9.2248  -8.9816  -8.9783  -8.6220  -8.6116  -8.5387  -8.5383
    -8.4373  -8.4106  -8.2339  -8.1006  -8.0893  -8.0078  -7.8729  -7.7508
    -7.7364  -7.6477  -7.5389  -7.4208  -7.2846  -7.1832  -7.0615  -6.7979
    -6.6594  -6.6429  -6.3848  -6.2116  -6.0954  -6.0051  -5.7315  -5.6608
    -5.6111  -5.3560  -5.2322  -5.2221  -5.0888  -4.9823  -4.8855  -4.8140
    -4.7056  -4.6903  -4.5988  -4.3061  -4.2253  -4.1478  -4.1012  -3.9334
    -3.7200  -3.6092  -3.4682  -3.1947  -3.0970  -2.8971  -2.6776  -2.6164
    -2.4260  -2.4198  -0.0256   0.0109   0.1943   0.2497   0.5526   0.6088
     0.8427   1.0836   1.1443   1.2672   1.3947   1.4769   1.5246   1.5460
     1.7544   2.0150   2.1386   2.1723   2.2903   2.3879   2.4168   2.5949
     2.7816   3.0741   3.1130   3.3354   3.4169   3.5514   3.6600   3.6900
     3.7683   3.8654   3.8942   3.9861   4.0118   4.2276   4.2560   4.3953
     4.5294   4.6004   4.7924   4.7946   4.8216   4.9599   5.0368   5.0576
     5.1789   5.2748   5.3234   5.4345   5.4512   5.5324   5.5541   5.7924
     5.8427   6.0257   6.1443   6.1489   6.1644   6.2772   6.4381   6.4804
     6.5126   6.7192   6.7445   6.7762   6.8418   6.9639   7.0061   7.0732
     7.0768   7.2293   7.2293   7.2527   7.2683   7.2758   7.2944   7.3167
     7.3364   7.4715   7.4914   7.5102   7.5773   7.6523   7.6838   7.6994
     7.7061   7.7380   7.8599   7.8699   7.8847   7.8958   7.9434   7.9750
     8.0556   8.0775   8.1219   8.1673   8.1712   8.2099   8.2141   8.2839
     8.3971   8.4329   8.4458   8.5420   8.5942   8.6407   8.6694   8.7048
     8.7955   8.8243   8.9417   8.9819   9.0655   9.1086   9.1161   9.1200
     9.1498   9.1925   9.2769   9.2912   9.2917   9.3042   9.3082   9.3384
     9.3655   9.3987   9.4270   9.4609   9.4918   9.4971   9.5342   9.5449
     9.5666   9.5908   9.6261   9.6936   9.7126   9.7549   9.7598   9.7702
     9.7970   9.8961   9.9432   9.9434   9.9668   9.9788  10.0040  10.0750
    10.0827  10.1253  10.2654  10.2794  10.3444  10.3765  10.3963  10.4064
    10.4704  10.4876  10.5095  10.5787  10.6494  10.6623  10.7242  10.7298
    10.7378  10.7746  10.7940  10.8570  10.8897  10.9514  10.9704  10.9747
    11.0949  11.2043  11.2229  11.2969  11.4283  11.4599  11.4881  11.4925
    11.5258  11.5449  11.5894  11.6166  11.6884  11.7233  11.7595  11.7646
    11.8262  11.8679  11.8757  11.8995  11.9148  11.9291  11.9427  11.9617
    11.9986  12.0299  12.0304  12.0363  12.0753  12.0954  12.1136  12.1314
    12.1424  12.1540  12.1845  12.2526  12.3007  12.3188  12.3546  12.3721
    12.3796  12.3958  12.4939  12.4985  12.5137  12.5253  12.5506  12.5773
    12.5895  12.6181  12.6252  12.6295  12.6397  12.6425  12.6430  12.6746
    12.7168  12.7729  12.7887  12.8207  12.8427  12.8572  12.8830  12.9353
    12.9448  12.9698  13.0707  13.1209  13.1450  13.2535  13.2972  13.3303
    13.3635  13.3667  13.4360  13.4751  13.5835  13.6939  13.7838  13.7971
    13.8534  13.9143  13.9396  13.9896  14.0650  14.1199  14.1360  14.2308
    14.2835  14.3390  14.3677  14.3797  14.4593  14.4765  14.5117  14.5165
    14.5504  14.6322  14.6670  14.6715  14.7305  14.7760  14.8106  14.9175
    14.9514  14.9524  14.9893  14.9995  15.0257  15.0577  15.0782  15.0939
    15.1248  15.1877  15.1910  15.2030  15.2163  15.2197  15.2501  15.2896
    15.3239  15.3302  15.3640  15.4061  15.4077  15.4258  15.4951  15.5350
    15.5766  15.6287  15.6394  15.6761  15.7011  15.7584  15.8347  15.8499
    15.8757  15.9174  15.9894  16.0481  16.0932  16.0990  16.1929  16.2216
    16.2404  16.2551  16.3324  16.3411  16.4033  16.4586  16.5232  16.5241
    16.5744  16.5827  16.6181  16.6265  16.6517  16.6766  16.7077  16.7714
    16.7887  16.7961  16.7979  16.8332  16.8394  16.8481  16.9160  16.9260
    16.9462  16.9963  17.0157  17.0194  17.0341  17.0361  17.0734  17.0774
    17.0813  17.2216  17.2365  17.2512  17.2934  17.3195  17.3378  17.3403
    17.3596  17.3818  17.4182  17.4302  17.4508  17.5389  17.5649  17.6097
    17.6291  17.6302  17.6460  17.7016  17.7204  17.7913  17.8189  17.8451
    17.8599  17.8713  17.8741  17.9201  17.9930  17.9931  18.0077  18.0223
    18.1090  18.1218  18.2200  18.2468

          k = 0.0000 0.0000 0.0423 ( 55562 PWs)   bands (ev):

   -20.5210 -20.4477 -20.3391 -20.1887 -19.9954 -19.7628 -19.4916 -19.1811
   -18.8308 -18.4341 -18.0053 -17.5442 -17.0546 -16.8413 -16.7715 -16.6726
   -16.5415 -16.5301 -16.3444 -16.1490 -15.9924 -15.8917 -15.6069 -15.4792
   -15.2919 -15.0478 -14.9499 -14.8111 -13.7129 -13.6889 -13.3206 -13.3187
   -12.8534 -12.8427 -12.7584 -12.7046 -12.6289 -12.5371 -12.4540 -12.4246
   -12.3540 -12.3213 -12.2722 -11.7863 -11.2221 -10.8278 -10.8021 -10.6466
   -10.5603 -10.5504 -10.3273 -10.1016  -9.9773  -9.9712  -9.6647  -9.4898
    -9.3351  -9.2558  -8.9458  -8.8462  -8.6908  -8.5738  -8.4902  -8.4276
    -8.4190  -8.3627  -8.1862  -8.0997  -7.9886  -7.9604  -7.9411  -7.7136
    -7.6894  -7.5716  -7.4956  -7.3743  -7.3725  -7.1401  -7.0157  -6.8029
    -6.7072  -6.6148  -6.3727  -6.2006  -6.1684  -6.0142  -5.7201  -5.6944
    -5.6905  -5.4147  -5.3415  -5.1844  -5.1763  -5.0944  -5.0071  -4.9122
    -4.7906  -4.6762  -4.6577  -4.4708  -4.3904  -4.2687  -4.1224  -4.1004
    -3.8880  -3.6484  -3.5886  -3.3652  -3.1120  -3.0705  -2.7869  -2.7316
    -2.5723  -2.5346   0.0566   0.1454   0.2152   0.4143   0.5816   0.7322
     1.0331   1.0871   1.2845   1.4752   1.6097   1.6806   1.6969   1.7479
     1.7714   2.0692   2.1926   2.2273   2.3316   2.3449   2.4430   2.6497
     2.8367   3.0211   3.1288   3.3906   3.4709   3.5939   3.7186   3.7446
     3.7810   3.8286   3.9493   4.0413   4.0662   4.2825   4.3087   4.4497
     4.5040   4.5838   4.8472   4.8483   4.8736   5.0141   5.0911   5.1118
     5.2149   5.2331   5.3771   5.4517   5.4887   5.5864   5.6045   5.8457
     5.8958   6.0581   6.0652   6.2057   6.2059   6.3337   6.4508   6.4715
     6.5588   6.6951   6.7340   6.7806   6.7998   7.0266   7.0269   7.0726
     7.1357   7.1803   7.1853   7.1922   7.2324   7.2493   7.2882   7.3328
     7.3457   7.3861   7.3894   7.3975   7.4365   7.4701   7.5112   7.5555
     7.6849   7.7069   7.7163   7.7636   7.8051   7.9327   7.9432   7.9702
     7.9907   8.0067   8.0655   8.0818   8.1248   8.2100   8.2152   8.2306
     8.2394   8.3462   8.4362   8.4697   8.5227   8.5416   8.5603   8.5726
     8.7258   8.7273   8.7618   8.8581   8.9002   8.9087   8.9466   8.9575
     9.0365   9.0745   9.1368   9.1414   9.1635   9.2058   9.2741   9.3080
     9.3204   9.3481   9.3670   9.3742   9.3760   9.4132   9.4626   9.4663
     9.4686   9.5312   9.5367   9.5803   9.6165   9.7031   9.7054   9.7491
     9.7703   9.8207   9.8253   9.9388   9.9454   9.9644  10.0281  10.0876
    10.1076  10.1167  10.1300  10.1366  10.1739  10.2259  10.3282  10.3388
    10.4196  10.4216  10.4537  10.4803  10.5172  10.5254  10.6538  10.6612
    10.6641  10.7067  10.7638  10.8023  10.8036  10.8279  10.9287  10.9950
    11.0231  11.0293  11.0776  11.1298  11.3075  11.3505  11.4647  11.5145
    11.5704  11.5874  11.5930  11.6431  11.6682  11.7433  11.7438  11.7750
    11.7914  11.8522  11.8806  11.8905  11.9242  11.9257  11.9417  11.9436
    11.9767  11.9905  12.0020  12.0464  12.0575  12.0843  12.0881  12.1343
    12.1596  12.1958  12.2195  12.2457  12.2831  12.3187  12.3962  12.4033
    12.4114  12.4311  12.4808  12.4900  12.4927  12.5419  12.5910  12.6211
    12.6260  12.6608  12.6933  12.7403  12.7563  12.7662  12.7807  12.8444
    12.8446  12.8636  12.8693  12.8825  12.9140  12.9262  12.9903  12.9928
    13.0025  13.0850  13.1431  13.1446  13.1903  13.1938  13.2169  13.2713
    13.3110  13.4686  13.5210  13.5216  13.5954  13.6136  13.6354  13.8078
    13.8610  13.9186  13.9989  14.0263  14.0611  14.1426  14.1512  14.1837
    14.2154  14.3205  14.3278  14.3609  14.4457  14.5104  14.5158  14.5173
    14.5516  14.6632  14.6860  14.7602  14.7813  14.7957  14.8590  14.9864
    14.9954  15.0228  15.0232  15.0457  15.1516  15.1526  15.1630  15.1649
    15.1882  15.2280  15.2354  15.2390  15.3193  15.3642  15.4091  15.4109
    15.4239  15.4327  15.4484  15.4598  15.4826  15.4884  15.5347  15.5880
    15.6426  15.6610  15.7279  15.7634  15.7826  15.8847  15.9346  15.9482
    15.9816  15.9825  16.0256  16.1138  16.1159  16.1865  16.2374  16.2494
    16.2840  16.2849  16.3631  16.3925  16.4077  16.4115  16.4492  16.4956
    16.5261  16.5301  16.6033  16.6140  16.6190  16.6327  16.6512  16.7363
    16.7567  16.7690  16.8208  16.8310  16.8560  16.9007  16.9297  16.9977
    17.0236  17.0237  17.0383  17.0430  17.0887  17.1061  17.1309  17.1380
    17.1985  17.2215  17.2546  17.2625  17.2776  17.2838  17.3415  17.3771
    17.3864  17.3964  17.3972  17.4583  17.4587  17.4877  17.5356  17.5484
    17.6425  17.6740  17.6912  17.7165  17.7333  17.8783  17.8925  17.9185
    17.9195  17.9301  17.9820  18.0590  18.0791  18.0795  18.1233  18.1363
    18.1453  18.2015  18.2121  18.2526

          k = 0.0000 0.0000 0.0469 ( 55632 PWs)   bands (ev):

   -20.4760 -20.4028 -20.2942 -20.1440 -19.9508 -19.7184 -19.4474 -19.1371
   -18.7871 -18.3909 -17.9627 -17.5028 -17.0197 -17.0175 -16.9479 -16.8482
   -16.7047 -16.5533 -16.4721 -16.3144 -16.0592 -15.9731 -15.7660 -15.5137
   -15.3969 -15.1661 -14.9940 -14.9136 -13.7857 -13.7320 -13.4409 -13.2917
   -12.9799 -12.7828 -12.5148 -12.4654 -12.4630 -12.3906 -12.3553 -12.2922
   -12.1977 -12.1200 -12.1168 -11.9159 -11.3541 -10.7897 -10.6327 -10.6292
   -10.4637 -10.4167 -10.1676 -10.0731 -10.0240  -9.8173  -9.5277  -9.4454
    -9.4152  -9.1090  -8.9006  -8.8045  -8.7018  -8.5201  -8.4366  -8.3914
    -8.3093  -8.3025  -8.1629  -8.1330  -7.9444  -7.9075  -7.8900  -7.6796
    -7.6369  -7.5014  -7.4735  -7.4443  -7.3224  -7.0865  -6.9647  -6.8969
    -6.6958  -6.5649  -6.3897  -6.2935  -6.1203  -6.0371  -5.8361  -5.7411
    -5.6448  -5.4864  -5.4653  -5.2752  -5.2310  -5.1425  -5.1301  -5.0163
    -4.8803  -4.7600  -4.6403  -4.6223  -4.5598  -4.4388  -4.2713  -4.1031
    -4.0529  -3.8165  -3.5830  -3.5390  -3.2441  -3.1292  -2.9554  -2.7937
    -2.7220  -2.6474   0.1423   0.2309   0.2889   0.5483   0.5854   0.9123
     1.0296   1.2270   1.4900   1.6015   1.6922   1.8336   1.9270   1.9822
     2.0081   2.1297   2.2411   2.2529   2.2887   2.4059   2.5045   2.7109
     2.8982   2.9227   3.1900   3.4523   3.5312   3.5884   3.7525   3.7828
     3.8056   3.8869   4.0101   4.1031   4.1272   4.3437   4.3496   4.4202
     4.5105   4.6446   4.9084   4.9084   4.9253   5.0746   5.1276   5.1517
     5.1719   5.2937   5.4370   5.5010   5.5190   5.6468   5.6591   5.9039
     5.9549   5.9748   6.0981   6.2399   6.2685   6.3982   6.4442   6.4532
     6.6013   6.6178   6.6550   6.8014   6.8353   7.0357   7.0383   7.0949
     7.1212   7.1382   7.1398   7.1466   7.1912   7.2006   7.2263   7.2442
     7.2749   7.2985   7.3008   7.3163   7.3443   7.3819   7.3934   7.4786
     7.5417   7.5434   7.6671   7.7100   7.7978   7.8100   7.8255   7.8607
     7.9392   7.9926   8.0130   8.1128   8.1356   8.1656   8.1930   8.2379
     8.2708   8.2911   8.3031   8.3526   8.4281   8.4977   8.5122   8.5624
     8.5777   8.6132   8.6360   8.7054   8.7118   8.7335   8.7777   8.8089
     8.8453   8.9187   8.9471   9.0069   9.1076   9.1107   9.1486   9.1787
     9.2039   9.2495   9.2677   9.3151   9.3556   9.3859   9.4196   9.4224
     9.4255   9.4674   9.5082   9.5153   9.5576   9.6066   9.6418   9.6496
     9.6687   9.7739   9.8047   9.8771   9.8855   9.9439   9.9599   9.9809
     9.9823  10.0353  10.0644  10.0937  10.1691  10.1934  10.1961  10.2341
    10.2776  10.3802  10.4331  10.4364  10.4699  10.4708  10.5089  10.5336
    10.6363  10.6622  10.7110  10.7382  10.7472  10.7799  10.8423  10.9432
    10.9701  11.0155  11.0265  11.0791  11.1231  11.1776  11.3737  11.4887
    11.5005  11.5836  11.6112  11.6353  11.6725  11.7037  11.7068  11.8030
    11.8033  11.8129  11.8360  11.8647  11.8822  11.9503  11.9581  11.9828
    12.0036  12.0042  12.0069  12.0261  12.0918  12.1037  12.1299  12.1694
    12.1756  12.2329  12.2427  12.2524  12.2561  12.2647  12.3479  12.4058
    12.4140  12.4350  12.4817  12.4881  12.5228  12.5261  12.5363  12.6375
    12.6611  12.7209  12.7297  12.7469  12.7586  12.8247  12.8361  12.8788
    12.9465  12.9756  12.9844  13.0427  13.0481  13.0719  13.0768  13.0829
    13.1372  13.1403  13.1605  13.1747  13.1874  13.2541  13.2750  13.3053
    13.3138  13.5168  13.5189  13.5498  13.5568  13.5824  13.6097  13.7371
    13.7472  13.9494  13.9552  13.9747  14.1019  14.1096  14.1136  14.1813
    14.2277  14.3223  14.3717  14.3906  14.4012  14.5047  14.5190  14.5606
    14.5901  14.7281  14.7376  14.7905  14.8185  14.8881  14.9077  14.9721
    14.9772  15.0056  15.0670  15.0671  15.1750  15.1750  15.2097  15.2217
    15.2772  15.2928  15.3242  15.3856  15.4055  15.4352  15.4520  15.4633
    15.4978  15.5262  15.5270  15.5704  15.6136  15.6312  15.6736  15.7324
    15.7454  15.8131  15.8327  15.8429  15.9069  15.9443  15.9821  15.9941
    16.0040  16.0110  16.0434  16.1148  16.1230  16.1548  16.1792  16.2166
    16.3201  16.3241  16.3742  16.4017  16.4179  16.4194  16.4734  16.4787
    16.4993  16.5377  16.5621  16.6001  16.6487  16.6778  16.6904  16.7340
    16.7546  16.7656  16.8413  16.8577  16.9314  16.9472  16.9924  17.0023
    17.0384  17.0480  17.0768  17.1153  17.1355  17.1426  17.1529  17.1569
    17.2135  17.2198  17.2446  17.2616  17.2960  17.3193  17.3986  17.4065
    17.4113  17.4536  17.4751  17.4780  17.4852  17.5714  17.6167  17.6469
    17.6540  17.7260  17.7411  17.7674  17.7889  17.8295  17.8988  17.9441
    17.9565  17.9974  18.0634  18.0639  18.1229  18.1283  18.1551  18.2103
    18.2115  18.2368  18.2748  18.2851

          k = 0.0000 0.0000 0.0516 ( 55630 PWs)   bands (ev):

   -20.4264 -20.3532 -20.2447 -20.0946 -19.9015 -19.6693 -19.3986 -19.0885
   -18.7389 -18.3433 -17.9160 -17.4578 -17.1951 -17.1259 -17.0217 -16.9787
   -16.8703 -16.7045 -16.4817 -16.4564 -16.2210 -15.9919 -15.8769 -15.6462
   -15.4018 -15.3086 -15.0256 -15.0244 -13.8687 -13.7527 -13.5437 -13.2848
   -13.0797 -12.7583 -12.5573 -12.2685 -12.2676 -12.2156 -12.1492 -12.0620
   -12.0377 -11.9817 -11.9501 -11.9012 -11.4844 -10.8982 -10.4972 -10.4498
   -10.3982 -10.2322 -10.1873  -9.9593  -9.9531  -9.6594  -9.5428  -9.4405
    -9.2892  -8.9682  -8.9105  -8.8442  -8.5714  -8.4608  -8.3774  -8.3452
    -8.2761  -8.2503  -8.1750  -8.0742  -7.9088  -7.8491  -7.7976  -7.6783
    -7.5790  -7.5403  -7.4392  -7.3877  -7.2652  -7.0391  -7.0107  -6.9084
    -6.6773  -6.5099  -6.4741  -6.3361  -6.0788  -6.0672  -5.9545  -5.8021
    -5.6022  -5.5946  -5.5717  -5.3896  -5.3853  -5.2536  -5.1251  -5.0966
    -4.9747  -4.8496  -4.8128  -4.7333  -4.6116  -4.5836  -4.4434  -4.2382
    -4.0636  -3.9904  -3.7131  -3.5746  -3.4154  -3.1622  -3.1095  -2.8914
    -2.8411  -2.7637   0.2309   0.2618   0.4216   0.5290   0.7439   0.9676
     1.0965   1.4223   1.5221   1.6998   1.9132   2.0638   2.1471   2.1653
     2.1966   2.2254   2.2542   2.3195   2.3566   2.4734   2.5725   2.7786
     2.8189   2.9662   3.2576   3.5082   3.5204   3.5977   3.7967   3.8509
     3.8730   3.9540   4.0746   4.1714   4.1947   4.2802   4.4112   4.4523
     4.5776   4.7117   4.9414   4.9748   4.9759   5.0675   5.1414   5.2188
     5.2378   5.3604   5.5031   5.5264   5.5632   5.7136   5.7158   5.9126
     5.9644   6.0191   6.1099   6.2368   6.3371   6.4256   6.4378   6.4692
     6.4947   6.5830   6.6780   6.7867   6.8764   6.9035   6.9488   7.0015
     7.0355   7.0383   7.1051   7.1121   7.1253   7.1391   7.1865   7.1868
     7.2156   7.2342   7.2715   7.2733   7.3101   7.3272   7.4140   7.4215
     7.4314   7.4635   7.5714   7.5973   7.6964   7.7146   7.7219   7.8155
     7.8826   7.8906   7.8930   8.0343   8.1166   8.1351   8.1933   8.1976
     8.2186   8.3199   8.3213   8.3434   8.3851   8.3891   8.3899   8.4502
     8.4648   8.5375   8.5456   8.5553   8.5907   8.6130   8.6816   8.6952
     8.7031   8.7313   8.8313   8.8534   8.8993   8.9901   9.0061   9.1096
     9.1450   9.1520   9.1730   9.1970   9.2222   9.2497   9.3122   9.3598
     9.4603   9.4807   9.5002   9.5008   9.5257   9.5511   9.5673   9.5842
     9.6341   9.6517   9.6720   9.7090   9.7557   9.8550   9.8673   9.9131
     9.9374   9.9686  10.0043  10.0262  10.0629  10.1011  10.2005  10.2343
    10.2839  10.2843  10.2893  10.3997  10.4099  10.4687  10.4924  10.4995
    10.5225  10.5722  10.6241  10.7014  10.7187  10.7480  10.8419  10.8804
    10.9026  10.9459  10.9930  11.0624  11.1094  11.1403  11.1720  11.2936
    11.4082  11.4888  11.5349  11.6375  11.6831  11.7158  11.7185  11.7717
    11.7870  11.8005  11.8667  11.9017  11.9120  11.9148  11.9332  11.9712
    12.0055  12.0486  12.0561  12.0761  12.1046  12.1370  12.1671  12.1720
    12.1753  12.1975  12.2122  12.2767  12.3023  12.3164  12.3408  12.3548
    12.3666  12.3692  12.4778  12.5294  12.5349  12.5770  12.5797  12.5894
    12.6428  12.7220  12.7239  12.7413  12.8197  12.8483  12.8665  12.8984
    12.9714  12.9987  13.0011  13.0292  13.0573  13.1126  13.1155  13.1410
    13.1760  13.2128  13.2645  13.3104  13.3169  13.4095  13.4245  13.4264
    13.4321  13.4566  13.4669  13.4979  13.6092  13.6595  13.6659  13.6689
    13.7066  13.8152  13.8575  14.0120  14.0260  14.0345  14.0866  14.1517
    14.2566  14.3089  14.4032  14.4057  14.4329  14.5766  14.6045  14.6229
    14.6633  14.6868  14.7627  14.8114  14.8163  14.8351  14.9265  14.9460
    15.0286  15.0663  15.1114  15.1177  15.1736  15.2418  15.2756  15.2764
    15.3445  15.3817  15.4108  15.4641  15.4696  15.5179  15.5393  15.5461
    15.5649  15.5848  15.6102  15.6713  15.6986  15.7223  15.7627  15.8206
    15.8396  15.8708  15.8828  15.8995  15.9320  15.9710  15.9772  16.0046
    16.0224  16.0357  16.0862  16.1202  16.1299  16.1659  16.1818  16.2273
    16.2512  16.2734  16.3790  16.3797  16.3948  16.4588  16.4798  16.5630
    16.5726  16.5747  16.6376  16.6559  16.6726  16.6934  16.7026  16.8182
    16.8309  16.8451  16.8708  16.8745  16.9410  16.9604  17.0107  17.0194
    17.0344  17.0539  17.1566  17.1628  17.1716  17.1786  17.2082  17.2119
    17.2304  17.2755  17.2977  17.3049  17.3314  17.3338  17.4318  17.4320
    17.5199  17.5325  17.5402  17.5433  17.5830  17.5891  17.6394  17.7281
    17.7321  17.8036  17.8247  17.8708  17.8977  17.9255  17.9344  17.9748
    18.0069  18.0106  18.0133  18.0753  18.1249  18.1368  18.1565  18.2616
    18.2688  18.2770  18.3270  18.3401

          k = 0.0000 0.0000 0.0563 ( 55658 PWs)   bands (ev):

   -20.3721 -20.2989 -20.1905 -20.0405 -19.8476 -19.6156 -19.3451 -19.0354
   -18.6863 -18.2913 -17.8651 -17.4107 -17.3666 -17.2970 -17.1910 -17.0593
   -16.9154 -16.8699 -16.6446 -16.4525 -16.3472 -16.1225 -15.8707 -15.7977
   -15.4532 -15.3883 -15.1424 -15.0644 -13.9340 -13.8018 -13.6005 -13.3442
   -13.1074 -12.8229 -12.5608 -12.2763 -12.0598 -12.0174 -11.9682 -11.9068
   -11.8255 -11.8235 -11.7405 -11.7025 -11.5982 -11.0239 -10.4378 -10.3356
   -10.2657 -10.1493 -10.0429  -9.9143  -9.7706  -9.6569  -9.4564  -9.3851
    -9.1461  -9.0027  -8.8580  -8.7606  -8.4441  -8.3960  -8.3771  -8.3127
    -8.2934  -8.1857  -8.0690  -8.0099  -7.8608  -7.7852  -7.7689  -7.6970
    -7.5258  -7.5157  -7.3810  -7.3354  -7.2026  -7.1250  -7.0015  -6.8469
    -6.6677  -6.5927  -6.4499  -6.3615  -6.1551  -6.0596  -6.0093  -5.8795
    -5.7497  -5.6716  -5.5639  -5.5399  -5.5061  -5.3802  -5.2377  -5.0734
    -5.0473  -4.9867  -4.9439  -4.9072  -4.7855  -4.6244  -4.5351  -4.4118
    -4.1645  -4.0366  -3.8847  -3.6079  -3.5439  -3.2996  -3.1609  -3.0365
    -2.9168  -2.8822   0.2956   0.3217   0.5092   0.5559   0.9058   0.9095
     1.2773   1.4363   1.6230   1.9117   2.0479   2.1391   2.2697   2.3024
     2.3923   2.4101   2.4310   2.4758   2.5080   2.5472   2.6469   2.7109
     2.8527   3.0408   3.3317   3.4016   3.5951   3.6703   3.8683   3.9158
     3.9468   4.0277   4.1209   4.2071   4.2462   4.2686   4.4848   4.5233
     4.6507   4.7850   4.8585   5.0473   5.0497   5.1040   5.2146   5.2921
     5.3089   5.4333   5.4893   5.5747   5.6328   5.7677   5.7866   5.8944
     6.0117   6.0597   6.1062   6.1792   6.3642   6.4140   6.4196   6.4530
     6.5250   6.5461   6.6517   6.7180   6.7326   6.8094   6.8608   6.9136
     6.9521   6.9596   6.9933   6.9994   7.0409   7.0886   7.1286   7.1713
     7.2158   7.2273   7.2311   7.2573   7.3332   7.3474   7.3514   7.3970
     7.4072   7.4627   7.4704   7.5064   7.5708   7.6002   7.6501   7.6616
     7.7952   7.8128   7.8829   7.9143   8.0238   8.0563   8.0741   8.0757
     8.1566   8.1822   8.2515   8.2794   8.2834   8.3610   8.3641   8.3765
     8.3974   8.4482   8.4573   8.4926   8.5292   8.5794   8.6247   8.6349
     8.6575   8.6718   8.6870   8.7571   8.7697   8.8539   8.9397   8.9637
     8.9676   8.9698   9.0481   9.1147   9.1383   9.1780   9.2448   9.2563
     9.3582   9.3876   9.4021   9.4301   9.4605   9.4686   9.5463   9.5692
     9.5729   9.5864   9.6170   9.6371   9.7056   9.7144   9.7342   9.8655
     9.8682   9.9106   9.9345   9.9803   9.9844  10.0099  10.1225  10.1575
    10.2255  10.2356  10.2953  10.3015  10.3616  10.3740  10.4719  10.5246
    10.5392  10.5711  10.5966  10.6487  10.6691  10.7349  10.7545  10.7920
    10.8568  10.9683  10.9723  11.0484  11.0542  11.1036  11.1305  11.1927
    11.2062  11.3221  11.4894  11.5658  11.6684  11.7061  11.7118  11.7641
    11.7725  11.7976  11.8370  11.8447  11.9324  11.9512  11.9759  11.9769
    12.0415  12.0640  12.1196  12.1341  12.1397  12.1602  12.1706  12.1828
    12.1883  12.1967  12.1992  12.2580  12.2614  12.3185  12.3400  12.3443
    12.3624  12.3713  12.4076  12.5620  12.5675  12.5767  12.6247  12.6269
    12.6379  12.6684  12.7146  12.7213  12.7294  12.8206  12.8339  12.9576
    12.9936  13.0331  13.0400  13.1091  13.1170  13.1181  13.1652  13.1851
    13.1891  13.2033  13.3256  13.3453  13.3541  13.3598  13.3910  13.4097
    13.4613  13.5685  13.6079  13.6208  13.6521  13.6742  13.7115  13.7451
    13.7702  13.7961  13.8564  13.9545  13.9845  14.0438  14.0889  14.1553
    14.1846  14.3439  14.3810  14.3870  14.4994  14.5895  14.5907  14.6118
    14.6507  14.7121  14.7181  14.7593  14.8299  14.8668  15.0009  15.0041
    15.0324  15.1247  15.1821  15.2531  15.2887  15.2964  15.3118  15.3544
    15.3789  15.4079  15.4206  15.5219  15.5357  15.5586  15.5799  15.5822
    15.6077  15.6479  15.6526  15.6792  15.7073  15.7860  15.8266  15.8346
    15.8634  15.8786  15.8800  15.8876  15.9307  15.9707  15.9972  16.0145
    16.0178  16.0370  16.0596  16.0992  16.1069  16.2168  16.2619  16.2907
    16.3158  16.3313  16.4253  16.4429  16.4440  16.4925  16.6113  16.6142
    16.6246  16.6292  16.6498  16.6699  16.7078  16.7306  16.7477  16.7954
    16.8750  16.8758  16.8849  16.8901  16.9727  17.0094  17.0227  17.0521
    17.0603  17.1217  17.1388  17.1882  17.2164  17.2782  17.2958  17.3158
    17.3572  17.3586  17.3736  17.3973  17.4043  17.4839  17.5006  17.5150
    17.5341  17.5437  17.5738  17.6404  17.6763  17.7123  17.7214  17.7365
    17.7751  17.8270  17.9305  17.9382  17.9409  17.9515  17.9531  18.0108
    18.0820  18.1027  18.1107  18.1549  18.1627  18.1672  18.1794  18.2650
    18.3674  18.3867  18.4067  18.4459

          k = 0.0000 0.0000 0.0610 ( 55660 PWs)   bands (ev):

   -20.3131 -20.2400 -20.1317 -19.9818 -19.7891 -19.5573 -19.2871 -18.9778
   -18.6292 -18.2350 -17.8105 -17.5361 -17.4646 -17.3855 -17.3308 -17.2208
   -17.0324 -16.8904 -16.7862 -16.5726 -16.3426 -16.2751 -15.9484 -15.8408
   -15.5933 -15.3851 -15.2529 -15.1185 -13.9797 -13.8850 -13.6057 -13.4516
   -13.0803 -12.9378 -12.5124 -12.3806 -11.9911 -11.8102 -11.7642 -11.7179
   -11.6552 -11.6031 -11.5856 -11.5124 -11.5074 -11.1467 -10.5440 -10.1667
   -10.0919 -10.0193  -9.9343  -9.8501  -9.6621  -9.5853  -9.3612  -9.2860
    -9.1092  -8.9539  -8.7995  -8.6449  -8.4643  -8.3276  -8.3256  -8.2425
    -8.2371  -8.1157  -7.9658  -7.9402  -7.8657  -7.8078  -7.7159  -7.6218
    -7.4789  -7.4469  -7.3268  -7.3157  -7.2093  -7.1347  -6.9761  -6.7801
    -6.7196  -6.6702  -6.3950  -6.3847  -6.2765  -6.1412  -5.9817  -5.9466
    -5.8989  -5.7936  -5.7424  -5.6365  -5.5110  -5.4809  -5.3531  -5.1761
    -5.1613  -5.0815  -5.0423  -4.9996  -4.9540  -4.7961  -4.5856  -4.4948
    -4.3360  -4.0734  -3.9892  -3.7671  -3.5455  -3.4621  -3.1891  -3.1854
    -3.0021  -2.9919   0.3345   0.4123   0.4963   0.6890   0.8533   1.0666
     1.3531   1.4581   1.8211   1.9447   2.1291   2.3491   2.3678   2.4713
     2.5118   2.5433   2.5971   2.6275   2.6629   2.7279   2.7322   2.7682
     2.9333   3.1218   3.2858   3.4123   3.6762   3.7491   3.9349   3.9509
     4.0269   4.1006   4.1078   4.2521   4.3275   4.3488   4.5644   4.6030
     4.7223   4.7493   4.8645   5.1254   5.1295   5.1741   5.2939   5.3719
     5.3840   5.4061   5.5118   5.6487   5.7061   5.7865   5.8653   5.9230
     5.9690   6.0124   6.1730   6.1761   6.2351   6.3284   6.4360   6.4681
     6.4938   6.5109   6.5764   6.6290   6.6684   6.7610   6.7691   6.8004
     6.8450   6.8917   6.9229   6.9630   6.9763   6.9805   7.0320   7.1511
     7.1576   7.2284   7.2476   7.2865   7.2900   7.3399   7.3454   7.3860
     7.3958   7.4159   7.4179   7.4430   7.4910   7.5320   7.5621   7.5656
     7.7398   7.7436   7.7623   7.8492   7.8822   7.8873   7.9261   7.9774
     8.0365   8.0420   8.0855   8.1355   8.1965   8.2136   8.2502   8.3203
     8.3251   8.4065   8.4302   8.4558   8.4702   8.4936   8.5202   8.5831
     8.6558   8.6764   8.6999   8.7584   8.7770   8.7921   8.7945   8.8537
     8.8775   8.8995   8.9248   8.9565   8.9616   9.1087   9.1470   9.1812
     9.2278   9.2366   9.2799   9.2846   9.3456   9.3737   9.4159   9.4288
     9.5198   9.6228   9.6447   9.6565   9.6759   9.7131   9.7152   9.7199
     9.7811   9.8237   9.8790   9.9226   9.9363  10.0133  10.0214  10.0246
    10.0836  10.1278  10.2272  10.3361  10.3741  10.3985  10.4070  10.4472
    10.5077  10.5897  10.5952  10.6067  10.6697  10.7451  10.7521  10.7997
    10.8116  10.8159  10.9168  10.9771  10.9983  11.0860  11.1194  11.1517
    11.1635  11.2765  11.3529  11.5124  11.5192  11.5878  11.6234  11.7745
    11.8248  11.8511  11.8621  11.9190  11.9323  11.9836  12.0026  12.0063
    12.0276  12.0472  12.0654  12.0957  12.1130  12.1486  12.1609  12.1960
    12.1964  12.2126  12.2340  12.2529  12.3005  12.3019  12.3319  12.3904
    12.4250  12.4327  12.4403  12.4830  12.4927  12.5048  12.5247  12.6323
    12.6563  12.6841  12.7054  12.7662  12.7786  12.8016  12.8731  12.9653
    13.0100  13.0336  13.0795  13.0798  13.1129  13.1568  13.1786  13.1883
    13.1905  13.2244  13.2564  13.2753  13.3233  13.3826  13.3864  13.4413
    13.4845  13.4998  13.5420  13.6421  13.7852  13.7984  13.8148  13.8718
    13.9274  13.9359  13.9470  13.9475  13.9983  14.0525  14.1106  14.1580
    14.2091  14.2913  14.3463  14.3578  14.4906  14.5057  14.5766  14.6283
    14.6726  14.6767  14.6990  14.7578  14.7851  14.9289  14.9349  15.0547
    15.0677  15.2142  15.2645  15.3077  15.3599  15.3651  15.3906  15.3958
    15.4217  15.4754  15.4814  15.5115  15.5315  15.5335  15.5567  15.5577
    15.5771  15.6017  15.6245  15.6584  15.7412  15.7457  15.7864  15.8193
    15.8860  15.8950  15.9326  15.9335  15.9462  15.9596  15.9826  16.0153
    16.0308  16.0941  16.1015  16.1134  16.1978  16.2165  16.2692  16.3555
    16.3939  16.4493  16.4851  16.4901  16.5027  16.5033  16.6093  16.6384
    16.6909  16.6945  16.7126  16.7500  16.7724  16.7978  16.8134  16.8569
    16.8841  16.8861  16.9390  16.9777  17.0259  17.0366  17.0930  17.1215
    17.1364  17.1522  17.1626  17.2600  17.2785  17.2831  17.3194  17.3835
    17.4102  17.4276  17.4374  17.4754  17.4809  17.5900  17.6014  17.6284
    17.6368  17.6652  17.6973  17.7449  17.7633  17.7822  17.8276  17.8358
    17.8798  17.9205  17.9366  17.9529  17.9895  18.0525  18.0594  18.0613
    18.0652  18.1271  18.1645  18.1802  18.2450  18.2524  18.2847  18.3242
    18.4727  18.5043  18.5602  18.5662

          k = 0.0000 0.0000 0.0657 ( 55638 PWs)   bands (ev):

   -20.2494 -20.1763 -20.0681 -19.9184 -19.7259 -19.4944 -19.2245 -18.9157
   -18.5677 -18.1747 -17.7544 -17.7007 -17.6269 -17.5288 -17.3815 -17.3043
   -17.1831 -16.9890 -16.7950 -16.7242 -16.4263 -16.3054 -16.0908 -15.8323
   -15.7053 -15.4403 -15.3117 -15.1871 -14.0065 -13.9764 -13.5857 -13.5674
   -13.0599 -13.0377 -12.5011 -12.4542 -11.9119 -11.9086 -11.5096 -11.4857
   -11.4661 -11.4071 -11.3719 -11.3290 -11.2897 -11.2284 -10.6619 -10.0668
    -9.9403  -9.9348  -9.8457  -9.6673  -9.5874  -9.4150  -9.3845  -9.1139
    -9.1051  -8.8050  -8.7927  -8.5701  -8.4599  -8.2498  -8.2437  -8.1713
    -8.1667  -8.0401  -7.9529  -7.8700  -7.8650  -7.7547  -7.6412  -7.5497
    -7.4241  -7.4008  -7.3729  -7.2651  -7.2002  -7.0616  -6.9687  -6.8454
    -6.7082  -6.6864  -6.4410  -6.4205  -6.3146  -6.2213  -6.1275  -6.0296
    -5.9695  -5.8903  -5.8793  -5.7751  -5.6457  -5.4708  -5.4183  -5.3352
    -5.2818  -5.2547  -5.1440  -5.1363  -4.9691  -4.9353  -4.7569  -4.5224
    -4.4332  -4.2373  -3.9636  -3.9340  -3.6232  -3.5393  -3.3325  -3.2217
    -3.1212  -3.0703   0.3788   0.4670   0.5269   0.7844   0.8373   1.2205
     1.2755   1.6378   1.8436   2.0196   2.3443   2.4347   2.4816   2.5565
     2.5991   2.6021   2.7141   2.7874   2.8152   2.9155   2.9929   3.0203
     3.0335   3.1655   3.2093   3.4993   3.7638   3.8339   3.8520   4.0403
     4.1133   4.1521   4.1940   4.3353   4.4153   4.4344   4.6145   4.6499
     4.6894   4.8183   4.9498   5.2058   5.2149   5.2527   5.2979   5.3792
     5.4578   5.4585   5.5944   5.6702   5.7680   5.7752   5.8424   5.9534
     5.9816   6.0221   6.1126   6.1200   6.2127   6.2405   6.2595   6.3472
     6.5061   6.5327   6.5790   6.5806   6.6751   6.6888   6.7187   6.7426
     6.7488   6.7730   6.8208   6.8804   6.9433   6.9798   7.0158   7.0350
     7.1114   7.1965   7.2115   7.2228   7.2364   7.2660   7.3080   7.3355
[...]
     4.6967   4.7127   4.7425   4.7782   4.9131   4.9659   5.0458   5.0465
     5.1072   5.1115   5.1194   5.1831   5.2099   5.2177   5.3192   5.3519
     5.3628   5.3951   5.5497   5.6294   5.6679   5.6776   5.7072   5.7721
     5.8826   5.9584   6.0047   6.1071   6.1237   6.1432   6.1527   6.2115
     6.2586   6.2615   6.2877   6.3236   6.3512   6.3632   6.3642   6.3712
     6.3788   6.4619   6.4854   6.5096   6.5136   6.5622   6.6259   6.6445
     6.6786   6.7005   6.7164   6.7626   6.7783   6.8187   6.8376   6.8515
     6.8749   6.8932   6.9120   6.9556   7.0241   7.0765   7.0793   7.1294
     7.1508   7.1689   7.1739   7.2040   7.2374   7.3061   7.3130   7.3400
     7.4280   7.4524   7.4793   7.4801   7.4974   7.5844   7.6268   7.6300
     7.6925   7.7004   7.7045   7.7388   7.8261   7.8611   7.8941   7.9260
     7.9928   8.0527   8.0854   8.1076   8.1653   8.1821   8.2962   8.3115
     8.3670   8.3811   8.3833   8.4439   8.4495   8.4932   8.5388   8.5639
     8.6287   8.6672   8.7546   8.7966   8.8907   8.9815   9.1608   9.1937
     9.2073   9.2633   9.2657   9.3409   9.3540   9.3669   9.3689   9.4551
     9.5004   9.5225   9.6376   9.7107   9.7773   9.8595   9.8920  10.0344
    10.1418  10.1429  10.1566  10.3024  10.3369  10.3755  10.3928  10.4804
    10.5887  10.5901  10.5946  10.6249  10.6326  10.6623  10.7240  10.7300
    10.7310  10.7510  10.7747  10.8936  10.9448  10.9886  10.9999  11.0028
    11.0497  11.1358  11.1988  11.2521  11.2691  11.4602  11.4774  11.4931
    11.4982  11.5275  11.5933  11.6328  11.6361  11.6757  11.7280  11.7312
    11.7430  11.7749  11.7954  11.7986  11.8314  11.9051  11.9284  12.0040
    12.0178  12.0187  12.0521  12.1118  12.1183  12.1202  12.1754  12.1932
    12.2860  12.4072  12.4260  12.6251  12.6299  12.6484  12.6687  12.7346
    12.7665  12.7909  12.8065  12.8333  12.8413  12.8951  12.9184  12.9208
    12.9298  12.9380  12.9501  12.9791  12.9946  13.0380  13.0702  13.0932
    13.1681  13.1742  13.2899  13.3066  13.3508  13.4450  13.4517  13.5425
    13.5645  13.7228  13.7416  13.7665  13.7794  13.8014  13.8171  13.8810
    13.9514  13.9556  14.0062  14.0748  14.0775  14.0971  14.1222  14.1559
    14.2200  14.2515  14.3153  14.3506  14.4675  14.5040  14.6242  14.7015
    14.7388  14.7469  14.7541  14.8260  14.8449  14.8875  14.9103  15.0106
    15.0181  15.0405  15.0693  15.1022  15.1029  15.1472  15.1594  15.1903
    15.2532  15.2651  15.3317  15.3824  15.4445  15.4751  15.4799  15.5667
    15.6034  15.6055  15.6187  15.6428  15.6455  15.7696  15.7829  15.7895
    15.8353  15.8994  15.9503  15.9649  16.0209  16.0426  16.2003  16.2007
    16.2280  16.2568  16.3116  16.4054  16.4139  16.4369  16.4544  16.5604
    16.5696  16.6195  16.6736  16.7410  16.7608  16.8195  16.8755  16.9128
    17.0092  17.0225  17.0258  17.0619  17.0857  17.1262  17.1425  17.2425
    17.2650  17.3146  17.3456  17.3678  17.3771  17.4167  17.4539  17.4742
    17.4953  17.5145  17.5532  17.5554  17.5813  17.6011  17.6123  17.6314
    17.6866  17.7852  17.8509  17.8604  17.8630  17.9306  17.9490  17.9568
    17.9847  18.1113  18.1652  18.1763  18.1766  18.2074  18.2502  18.2657
    18.2930  18.4076  18.4364  18.4781  18.5299  18.6155  18.6354  18.7082
    18.7223  18.8189  18.8492  18.8638  18.8649  18.9601  18.9990  19.0128
    19.1312  19.1626  19.1803  19.2182

          k = 0.0000 0.0000 0.1080 ( 55662 PWs)   bands (ev):

   -19.4678 -19.3956 -19.2891 -19.1419 -19.0022 -18.9549 -18.9290 -18.8269
   -18.7263 -18.6815 -18.4894 -18.4616 -18.2572 -18.1608 -17.9856 -17.8238
   -17.6738 -17.4483 -17.3191 -17.0470 -16.9193 -16.6244 -16.4899 -16.1886
   -16.0478 -15.7733 -15.6469 -15.5047 -14.3273 -14.2100 -13.9494 -13.7176
   -13.4211 -13.1459 -12.8236 -12.5325 -12.1922 -11.8926 -11.5405 -11.2384
   -10.8906 -10.5914 -10.2633  -9.9705  -9.6942  -9.4616  -9.2156  -9.2152
    -9.1519  -9.1377  -9.1295  -8.7433  -8.4054  -8.2458  -8.2363  -8.2067
    -8.1568  -8.1318  -8.1082  -8.0992  -8.0419  -8.0119  -7.9110  -7.8162
    -7.7658  -7.7221  -7.6425  -7.5844  -7.5398  -7.5210  -7.5139  -7.5085
    -7.4942  -7.4935  -7.3782  -7.3616  -7.3268  -7.2454  -7.1697  -7.1635
    -7.1319  -7.1215  -7.0153  -6.9505  -6.8137  -6.7860  -6.7333  -6.7050
    -6.7036  -6.5836  -6.5131  -6.5104  -6.4732  -6.4152  -6.2683  -6.1988
    -6.1733  -6.1091  -5.9408  -5.8369  -5.6443  -5.4680  -5.3128  -5.0707
    -4.9518  -4.6666  -4.5692  -4.2753  -4.1926  -3.9278  -3.8555  -3.6705
    -3.6127  -3.5471   0.5460   0.6315   0.7055   0.9560   1.0434   1.4285
     1.5164   1.9930   2.0680   2.6064   2.6620   3.2127   3.2775   3.4716
     3.5828   3.6741   3.7628   3.7764   3.8904   3.8998   4.0651   4.1374
     4.2006   4.2504   4.2930   4.3186   4.4180   4.4959   4.5360   4.5775
     4.6634   4.7300   4.8429   4.9068   4.9338   4.9665   5.0357   5.1844
     5.1868   5.2068   5.2195   5.2693   5.2980   5.4045   5.4289   5.4721
     5.4855   5.4986   5.4988   5.5020   5.5190   5.7398   5.7629   5.7830
     5.8311   5.8824   5.9388   5.9888   6.0257   6.0585   6.0831   6.1465
     6.1801   6.2795   6.2899   6.3015   6.3336   6.3456   6.3478   6.3515
     6.4291   6.4565   6.4676   6.4682   6.5069   6.5102   6.5124   6.5322
     6.6338   6.6435   6.6583   6.6888   6.7409   6.7807   6.8655   6.8784
     6.8789   6.9030   6.9333   6.9716   6.9774   6.9847   7.0201   7.0640
     7.0896   7.1507   7.1550   7.2163   7.2468   7.2569   7.3157   7.3323
     7.3485   7.4254   7.4404   7.4850   7.5258   7.5387   7.5624   7.5732
     7.6396   7.6563   7.6659   7.7209   7.7667   7.7756   7.9127   7.9273
     7.9964   8.0179   8.0512   8.0772   8.1305   8.2080   8.2413   8.2536
     8.3367   8.3777   8.3826   8.4371   8.5037   8.5735   8.5830   8.6224
     8.6402   8.6589   8.7172   8.7462   8.7942   8.8613   9.0452   9.1533
     9.1789   9.1812   9.1876   9.1909   9.2886   9.3439   9.4056   9.5378
     9.5577   9.5970   9.6063   9.7804   9.8772   9.9530   9.9802   9.9806
     9.9933  10.0330  10.1869  10.2213  10.2876  10.3101  10.4276  10.4533
    10.4759  10.5632  10.5655  10.6067  10.6824  10.7216  10.7752  10.7810
    10.8539  10.8598  10.8771  10.8940  10.9814  11.0737  11.0756  11.0805
    11.1275  11.2141  11.2595  11.2981  11.3073  11.3848  11.4063  11.4084
    11.5023  11.5032  11.5445  11.5548  11.5867  11.6065  11.6379  11.6411
    11.6902  11.7167  11.7776  11.8295  11.8829  11.8864  11.8925  11.9745
    12.0170  12.0197  12.0529  12.1099  12.1801  12.1865  12.2076  12.2149
    12.2544  12.2890  12.3999  12.4888  12.5221  12.6064  12.6436  12.6917
    12.7013  12.7322  12.7684  12.7693  12.8213  12.8390  12.8399  12.9541
    13.0053  13.0081  13.0241  13.0357  13.0541  13.0742  13.0864  13.1759
    13.2160  13.3049  13.3094  13.3450  13.3739  13.4414  13.5097  13.5445
    13.5824  13.5830  13.6162  13.6496  13.7686  13.7885  13.7989  13.8126
    13.8431  13.9136  13.9355  14.0387  14.0886  14.1262  14.1423  14.1508
    14.1847  14.2670  14.3704  14.3973  14.4341  14.5695  14.6702  14.7270
    14.7311  14.7378  14.7537  14.8427  14.8486  14.9273  14.9321  14.9439
    15.0445  15.0665  15.0790  15.1177  15.1221  15.1483  15.1644  15.1859
    15.1902  15.2508  15.3725  15.4251  15.4817  15.4997  15.5042  15.5801
    15.5947  15.6083  15.6164  15.6415  15.6815  15.7360  15.7464  15.8679
    15.8748  15.9642  15.9731  16.0075  16.1187  16.1210  16.1611  16.2001
    16.2124  16.2602  16.3223  16.3284  16.3528  16.4199  16.4779  16.5814
    16.6087  16.6551  16.6604  16.6961  16.7228  16.8007  16.8167  16.8912
    16.9548  16.9643  16.9760  17.0062  17.1402  17.1527  17.1646  17.2101
    17.2854  17.2877  17.3602  17.3911  17.4082  17.4209  17.4260  17.4319
    17.5162  17.5462  17.5578  17.5624  17.5665  17.6225  17.6320  17.6713
    17.7505  17.7835  17.8344  17.8574  17.8630  17.9371  17.9831  17.9868
    18.0031  18.0085  18.0559  18.0997  18.1736  18.2076  18.2289  18.2751
    18.3031  18.3186  18.4947  18.5106  18.5547  18.5919  18.6502  18.6574
    18.7016  18.7213  18.7643  18.7979  18.8332  18.8814  18.9041  18.9628
    19.0882  19.1631  19.2259  19.2345

          k = 0.0000 0.0000 0.1127 ( 55648 PWs)   bands (ev):

   -19.3581 -19.2861 -19.1800 -19.1254 -19.0537 -19.0337 -18.9475 -18.8490
   -18.7978 -18.6454 -18.5844 -18.4096 -18.3240 -18.1394 -18.0216 -17.8320
   -17.6798 -17.4871 -17.2946 -17.1021 -16.8788 -16.6902 -16.4392 -16.2587
   -15.9952 -15.8364 -15.6123 -15.5302 -14.3169 -14.2490 -13.9096 -13.7792
   -13.3670 -13.2150 -12.7639 -12.6044 -12.1294 -11.9659 -11.4749 -11.3091
   -10.8248 -10.6571 -10.1953 -10.0209  -9.6242  -9.4354  -9.1792  -9.0177
    -8.9074  -8.8932  -8.8815  -8.8576  -8.5814  -8.4330  -8.3740  -8.3605
    -8.0474  -8.0365  -8.0022  -7.9397  -7.9163  -7.8665  -7.7926  -7.7265
    -7.7089  -7.6729  -7.6642  -7.6631  -7.6509  -7.6311  -7.6236  -7.6116
    -7.6048  -7.5996  -7.4970  -7.3880  -7.2098  -7.2082  -7.1987  -7.1712
    -7.1175  -7.0296  -6.9940  -6.9282  -6.8474  -6.8237  -6.8205  -6.7245
    -6.6794  -6.6081  -6.5542  -6.5459  -6.4276  -6.3644  -6.3613  -6.3227
    -6.2122  -6.0962  -6.0338  -5.7965  -5.7010  -5.4634  -5.3344  -5.1013
    -4.9396  -4.7171  -4.5391  -4.3362  -4.1553  -3.9854  -3.8261  -3.7105
    -3.6062  -3.5650   0.5581   0.6049   0.7541   0.8873   1.1300   1.3295
     1.6297   1.8749   2.1993   2.4782   2.8043   3.1114   3.3950   3.6093
     3.7077   3.7284   3.8253   3.9100   3.9541   3.9818   4.0301   4.0693
     4.1482   4.2467   4.2504   4.3146   4.3658   4.4409   4.4556   4.5633
     4.7256   4.7642   4.8412   4.8862   4.9897   5.0284   5.0686   5.1775
     5.2947   5.3016   5.3296   5.3596   5.3618   5.3794   5.4396   5.4763
     5.5501   5.5823   5.6080   5.6212   5.6480   5.6486   5.6664   5.8028
     5.8424   5.8765   5.9157   5.9585   5.9754   5.9816   6.0281   6.0330
     6.0900   6.1576   6.1999   6.2620   6.2868   6.3318   6.3377   6.3412
     6.4050   6.4220   6.4343   6.4489   6.4519   6.5099   6.5103   6.5650
     6.6114   6.6455   6.6668   6.6842   6.7423   6.7674   6.8005   6.8187
     6.8207   6.8745   6.9392   6.9592   6.9825   7.0044   7.0536   7.1168
     7.1183   7.1221   7.1357   7.1566   7.2079   7.2418   7.3066   7.3186
     7.3633   7.3989   7.4175   7.4525   7.4589   7.4680   7.5247   7.5309
     7.6116   7.6534   7.7286   7.7520   7.7817   7.7829   7.8333   7.8717
     7.9186   7.9776   8.0848   8.1038   8.1229   8.1625   8.2207   8.2326
     8.2492   8.3986   8.4331   8.5000   8.5243   8.5543   8.5556   8.6258
     8.7187   8.7206   8.7260   8.7288   8.8200   8.8681   9.0073   9.0254
     9.0271   9.0306   9.0850   9.1195   9.2274   9.3678   9.4931   9.5447
     9.6398   9.7019   9.7368   9.8132   9.8503   9.8884   9.9409   9.9810
    10.0407  10.0486  10.1329  10.1448  10.2805  10.3064  10.3422  10.4025
    10.4228  10.4540  10.5206  10.7083  10.7132  10.7381  10.7928  10.8949
    10.9163  10.9168  10.9497  11.0543  11.0602  11.1050  11.1363  11.1909
    11.2081  11.2117  11.2276  11.2306  11.2695  11.3688  11.3772  11.3914
    11.4150  11.4265  11.4481  11.4881  11.5211  11.5425  11.6598  11.6603
    11.7088  11.7130  11.7783  11.8192  11.8464  11.9018  11.9051  11.9619
    12.0325  12.0674  12.0849  12.1678  12.1858  12.2331  12.2805  12.3064
    12.3166  12.3303  12.3433  12.3581  12.3880  12.5337  12.5375  12.5539
    12.5647  12.5706  12.6234  12.6409  12.7745  12.8461  12.9272  13.0229
    13.0270  13.0274  13.1111  13.1787  13.1791  13.1792  13.1846  13.2404
    13.2857  13.3222  13.3637  13.3680  13.3980  13.4139  13.4498  13.4684
    13.4858  13.5658  13.6176  13.6318  13.6615  13.7253  13.7558  13.7726
    13.8069  13.8344  13.9359  14.0166  14.0467  14.1175  14.1279  14.1428
    14.2729  14.2967  14.4191  14.4486  14.5169  14.5602  14.6099  14.7391
    14.7525  14.7639  14.7688  14.8197  14.8331  14.8637  14.9182  14.9881
    15.0168  15.1040  15.1089  15.1158  15.1305  15.1538  15.1654  15.2229
    15.2619  15.2670  15.3306  15.3350  15.4771  15.4964  15.5199  15.5213
    15.5701  15.6155  15.6739  15.7053  15.7094  15.7656  15.8425  15.8948
    15.9310  15.9980  16.0196  16.0255  16.0358  16.0720  16.1376  16.1750
    16.1801  16.2810  16.3482  16.3607  16.3985  16.4553  16.5175  16.5387
    16.5627  16.5999  16.6340  16.7307  16.7891  16.8139  16.8649  16.8670
    16.8991  16.9021  16.9223  16.9295  17.0846  17.1386  17.1541  17.1872
    17.2106  17.2457  17.4214  17.4361  17.4518  17.4618  17.4794  17.4849
    17.5226  17.5371  17.5595  17.5679  17.5799  17.6260  17.6918  17.7228
    17.7527  17.7873  17.8088  17.8292  17.8398  17.8497  17.9114  17.9512
    17.9595  18.0259  18.0363  18.1807  18.1827  18.1994  18.2019  18.2777
    18.3685  18.3867  18.4309  18.5370  18.5576  18.5844  18.5933  18.6026
    18.6625  18.6874  18.6893  18.7050  18.7246  18.8748  18.9419  18.9471
    19.0274  19.1126  19.2280  19.2425

          k = 0.0000 0.0000-0.1174 ( 55672 PWs)   bands (ev):

   -19.2440 -19.2440 -19.1722 -19.1722 -19.0664 -19.0664 -18.9202 -18.9202
   -18.7330 -18.7330 -18.5036 -18.5036 -18.2362 -18.2362 -17.9305 -17.9305
   -17.5868 -17.5868 -17.2008 -17.2008 -16.7867 -16.7867 -16.3508 -16.3508
   -15.9164 -15.9164 -15.5678 -15.5678 -14.2887 -14.2887 -13.8482 -13.8481
   -13.2935 -13.2935 -12.6862 -12.6861 -12.0494 -12.0494 -11.3931 -11.3931
   -10.7414 -10.7414 -10.1070 -10.1070  -9.5230  -9.5230  -9.0517  -9.0517
    -8.7796  -8.7796  -8.6645  -8.6645  -8.6251  -8.6251  -8.6188  -8.6188
    -7.8776  -7.8776  -7.8487  -7.8487  -7.8339  -7.8339  -7.7813  -7.7813
    -7.7491  -7.7491  -7.7248  -7.7248  -7.6893  -7.6893  -7.6506  -7.6506
    -7.6334  -7.6334  -7.4719  -7.4719  -7.2245  -7.2244  -7.1071  -7.1070
    -7.0658  -7.0658  -6.9848  -6.9848  -6.8617  -6.8617  -6.7506  -6.7506
    -6.6920  -6.6920  -6.4764  -6.4764  -6.4753  -6.4752  -6.3116  -6.3116
    -6.2174  -6.2174  -5.9194  -5.9194  -5.5854  -5.5854  -5.2207  -5.2206
    -4.8305  -4.8305  -4.4393  -4.4393  -4.0712  -4.0712  -3.7680  -3.7680
    -3.5855  -3.5854   0.5781   0.5781   0.8172   0.8173   1.2278   1.2278
     1.7513   1.7513   2.3384   2.3385   2.9582   2.9582   3.5626   3.5626
     3.7295   3.7295   3.9287   3.9288   3.9853   3.9853   4.0903   4.0903
     4.1359   4.1359   4.2023   4.2023   4.4012   4.4012   4.5985   4.5985
     4.6519   4.6519   4.8825   4.8825   5.0934   5.0934   5.1524   5.1524
     5.1902   5.1902   5.3709   5.3710   5.4976   5.4976   5.5029   5.5029
     5.5267   5.5267   5.6197   5.6197   5.6739   5.6739   5.7644   5.7644
     5.8103   5.8103   5.9163   5.9163   6.0251   6.0251   6.0513   6.0513
     6.1012   6.1012   6.1684   6.1684   6.1824   6.1824   6.3290   6.3290
     6.3337   6.3338   6.4525   6.4525   6.5678   6.5678   6.5824   6.5824
     6.6609   6.6609   6.6634   6.6634   6.6988   6.6988   6.7858   6.7858
     6.8209   6.8209   6.9193   6.9193   7.0270   7.0270   7.0865   7.0866
     7.1390   7.1390   7.2032   7.2032   7.2052   7.2052   7.2648   7.2648
     7.3301   7.3301   7.4314   7.4314   7.4443   7.4443   7.5642   7.5642
     7.6429   7.6429   7.6916   7.6916   7.7676   7.7676   7.9215   7.9215
     7.9304   7.9304   8.0538   8.0538   8.0680   8.0680   8.2768   8.2769
     8.3707   8.3707   8.4354   8.4355   8.4998   8.4998   8.5945   8.5946
     8.7327   8.7327   8.8653   8.8653   8.8819   8.8819   8.8947   8.8947
     8.9321   8.9322   9.1059   9.1059   9.2400   9.2400   9.6466   9.6466
     9.6593   9.6593   9.7597   9.7597   9.8924   9.8924   9.8986   9.8986
    10.0851  10.0851  10.1512  10.1512  10.2517  10.2517  10.3162  10.3162
    10.4505  10.4506  10.5704  10.5704  10.7467  10.7467  10.9174  10.9174
    10.9647  10.9647  11.0544  11.0544  11.0884  11.0884  11.1606  11.1606
    11.1826  11.1826  11.2296  11.2296  11.3103  11.3103  11.3496  11.3496
    11.4029  11.4029  11.5086  11.5086  11.5181  11.5181  11.6378  11.6378
    11.6453  11.6453  11.8057  11.8057  11.8403  11.8403  12.0137  12.0137
    12.1389  12.1390  12.1565  12.1565  12.2090  12.2090  12.2424  12.2424
    12.3534  12.3534  12.3622  12.3622  12.4344  12.4344  12.4759  12.4759
    12.4979  12.4979  12.5249  12.5249  12.8259  12.8259  13.0127  13.0127
    13.0251  13.0251  13.2253  13.2253  13.2438  13.2438  13.2658  13.2658
    13.3177  13.3177  13.3323  13.3323  13.3476  13.3476  13.4711  13.4711
    13.4942  13.4942  13.6017  13.6017  13.6613  13.6613  13.7839  13.7839
    13.8328  13.8328  13.8749  13.8749  14.1321  14.1321  14.1341  14.1341
    14.3027  14.3027  14.4230  14.4230  14.5879  14.5879  14.6753  14.6753
    14.7326  14.7327  14.7801  14.7801  14.8726  14.8726  14.8882  14.8882
    15.1152  15.1152  15.1459  15.1459  15.1517  15.1517  15.2030  15.2030
    15.2453  15.2453  15.3331  15.3331  15.4154  15.4154  15.5369  15.5369
    15.5750  15.5750  15.7782  15.7782  15.7936  15.7936  15.8642  15.8642
    15.8707  15.8707  16.0268  16.0268  16.1133  16.1133  16.1715  16.1715
    16.1886  16.1886  16.3317  16.3317  16.4221  16.4221  16.5730  16.5730
    16.6176  16.6176  16.6490  16.6490  16.8201  16.8201  16.8369  16.8369
    16.8623  16.8623  16.9953  16.9953  17.0206  17.0206  17.1688  17.1688
    17.1899  17.1899  17.4558  17.4558  17.4819  17.4819  17.5503  17.5503
    17.5574  17.5574  17.5906  17.5906  17.6039  17.6039  17.6350  17.6350
    17.7340  17.7340  17.8157  17.8157  17.8619  17.8620  17.8953  17.8953
    17.9716  17.9716  18.1052  18.1052  18.2017  18.2017  18.3030  18.3030
    18.4232  18.4232  18.4440  18.4440  18.5239  18.5239  18.5781  18.5781
    18.6307  18.6307  18.6948  18.6948  18.8045  18.8045  18.9461  18.9461
    19.0473  19.0473  19.2379  19.2379

     the Fermi energy is    -1.3225 ev

     Writing output data file A28.save/

     init_run     :      7.99s CPU      8.14s WALL (       1 calls)
     electrons    :   3533.74s CPU   3558.92s WALL (       1 calls)

     Called by init_run:
     wfcinit      :      0.00s CPU      0.00s WALL (       1 calls)
     potinit      :      0.51s CPU      0.56s WALL (       1 calls)
     hinit0       :      6.33s CPU      6.35s WALL (       1 calls)

     Called by electrons:
     c_bands      :   3533.72s CPU   3558.91s WALL (       1 calls)
     v_of_rho     :      0.38s CPU      0.41s WALL (       1 calls)
     newd         :      0.27s CPU      0.32s WALL (       1 calls)

     Called by c_bands:
     init_us_2    :      0.28s CPU      0.30s WALL (      26 calls)
     cegterg      :   3403.28s CPU   3423.46s WALL (      55 calls)

     Called by sum_band:

     Called by *egterg:
     h_psi        :    758.35s CPU    767.44s WALL (     929 calls)
     s_psi        :     75.14s CPU     75.23s WALL (     929 calls)
     g_psi        :      4.79s CPU      4.80s WALL (     848 calls)
     cdiaghg      :   1684.56s CPU   1686.65s WALL (     874 calls)

     Called by h_psi:
     h_psi:pot    :    755.36s CPU    763.31s WALL (     929 calls)
     h_psi:calbec :     78.51s CPU     79.35s WALL (     929 calls)
     vloc_psi     :    601.79s CPU    608.78s WALL (     929 calls)
     add_vuspsi   :     75.05s CPU     75.16s WALL (     929 calls)

     General routines
     calbec       :     78.50s CPU     79.35s WALL (     929 calls)
     fft          :      0.37s CPU      0.41s WALL (      14 calls)
     ffts         :      0.01s CPU      0.01s WALL (       1 calls)
     fftw         :    544.52s CPU    550.98s WALL (  413442 calls)
     interpolate  :      0.03s CPU      0.04s WALL (       1 calls)
     davcio       :      0.00s CPU      1.43s WALL (      52 calls)

     Parallel routines
     fft_scatt_xy :     80.17s CPU     81.01s WALL (  413457 calls)
     fft_scatt_yz :    213.84s CPU    217.45s WALL (  413457 calls)

     PWSCF        : 59m11.87s CPU       59h 1m WALL

       7h

   This run was terminated on:  19:17:13   8Apr2022            

=------------------------------------------------------------------------------=
   JOB DONE.
=------------------------------------------------------------------------------=
