
     Program PWSCF v.6.3 starts on  8Apr2022 at 18:23:34 

     This program is part of the open-source Quantum ESPRESSO suite
     for quantum simulation of materials; please cite
         "P. Giannozzi et al., J. Phys.:Condens. Matter 21 395502 (2009);
         "P. Giannozzi et al., J. Phys.:Condens. Matter 29 465901 (2017);
          URL http://www.quantum-espresso.org", 
     in publications or presentations arising from this work. More details at
     http://www.quantum-espresso.org/quote

     Parallel version (MPI), running on    16 processors
     R & G space division:  proc/nbgrp/npool/nimage =      16
     Waiting for input...
     Reading input from standard input
     Message from routine read_cards :
     DEPRECATED: no units specified in CELL_PARAMETERS card

     Current dimensions of program PWSCF are:
     Max number of different atomic species (ntypx) = 10
     Max number of k-points (npk) =  40000
     Max angular momentum in pseudopotentials (lmaxx) =  3

     Atomic positions and unit cell read from directory:
     /home/zfwang/scratch/GNRDATASET/AGNR/A29/A29.save/


     Subspace diagonalization in iterative solution of the eigenvalue problem:
     a serial algorithm will be used


     Parallelization info
     --------------------
     sticks:   dense  smooth     PW     G-vecs:    dense   smooth      PW
     Min        3963    1321    372               148441    28570    4279
     Max        3965    1323    374               148442    28571    4280
     Sum       63435   21147   5967              2375059   457135   68479



     bravais-lattice index     =            0
     lattice parameter (alat)  =       1.8897  a.u.
     unit-cell volume          =   13376.4002 (a.u.)^3
     number of atoms/cell      =           62
     number of atomic types    =            2
     number of electrons       =       236.00
     number of Kohn-Sham states=          500
     kinetic-energy cutoff     =      40.0000  Ry
     charge density cutoff     =     480.0000  Ry
     Exchange-correlation      = PBE ( 1  4  3  4 0 0)

     celldm(1)=  18.897261  celldm(2)=   4.653000  celldm(3)=   0.426000
     celldm(4)=   0.000000  celldm(5)=   0.000000  celldm(6)=   0.000000

     crystal axes: (cart. coord. in units of alat)
               a(1) = (  10.000000   0.000000   0.000000 )  
               a(2) = (   0.000000  46.530000   0.000000 )  
               a(3) = (   0.000000   0.000000   4.260000 )  

     reciprocal axes: (cart. coord. in units 2 pi/alat)
               b(1) = (  0.100000  0.000000  0.000000 )  
               b(2) = (  0.000000  0.021492  0.000000 )  
               b(3) = (  0.000000  0.000000  0.234742 )  


     PseudoPot. # 1 for C  read from file:
     /home/zfwang/hp_home/MySoftware/qe-6.3/pseudo/C.pbe-n-rrkjus_psl.0.1.UPF
     MD5 check sum: fff530ed632a789b3b184014e67dd7f1
     Pseudo is Ultrasoft + core correction, Zval =  4.0
     Generated using "atomic" code by A. Dal Corso v.5.0.2 svn rev. 9415
     Using radial grid of 1073 points,  4 beta functions with: 
                l(1) =   0
                l(2) =   0
                l(3) =   1
                l(4) =   1
     Q(r) pseudized with 0 coefficients 


     PseudoPot. # 2 for H  read from file:
     /home/zfwang/hp_home/MySoftware/qe-6.3/pseudo/H.pbe-rrkjus_psl.0.1.UPF
     MD5 check sum: e164a6907b691c6980f16942be34de84
     Pseudo is Ultrasoft, Zval =  1.0
     Generated using "atomic" code by A. Dal Corso v.5.0.2 svn rev. 9415
     Using radial grid of  929 points,  2 beta functions with: 
                l(1) =   0
                l(2) =   0
     Q(r) pseudized with 0 coefficients 


     atomic species   valence    mass     pseudopotential
        C              4.00    12.01070     C ( 1.00)
        H              1.00     1.00794     H ( 1.00)

     No symmetry found



   Cartesian axes

     site n.     atom                  positions (alat units)
         1           C   tau(   1) = (   5.0000000   6.0605697   2.8129966  )
         2           C   tau(   2) = (   4.9999988   7.2671769   3.5447409  )
         3           C   tau(   3) = (   4.9999996   6.0605743   1.4470069  )
         4           C   tau(   4) = (   4.9999984   8.4962729   2.8410525  )
         5           C   tau(   5) = (   4.9999981   9.7324513   3.5525984  )
         6           C   tau(   6) = (   4.9999989   7.2671714   0.7152630  )
         7           C   tau(   7) = (   4.9999980   8.4962777   1.4189510  )
         8           C   tau(   8) = (   4.9999982  10.9621318   2.8414327  )
         9           C   tau(   9) = (   4.9999990  12.1910281   3.5494166  )
        10           C   tau(  10) = (   4.9999976   9.7324489   0.7074046  )
        11           C   tau(  11) = (   4.9999980  10.9621323   1.4185699  )
        12           C   tau(  12) = (   4.9999992  13.4237147   2.8391420  )
        13           C   tau(  13) = (   4.9999998  14.6550623   3.5494804  )
        14           C   tau(  14) = (   4.9999986  12.1910288   0.7105852  )
        15           C   tau(  15) = (   4.9999991  13.4237134   1.4208591  )
        16           C   tau(  16) = (   5.0000005  15.8848577   2.8403054  )
        17           C   tau(  17) = (   5.0000008  17.1157820   3.5506281  )
        18           C   tau(  18) = (   4.9999997  14.6550633   0.7105204  )
        19           C   tau(  19) = (   5.0000004  15.8848572   1.4196951  )
        20           C   tau(  20) = (   5.0000004  18.3461883   2.8399844  )
        21           C   tau(  21) = (   4.9999999  19.5754814   3.5498203  )
        22           C   tau(  22) = (   5.0000008  17.1157819   0.7093721  )
        23           C   tau(  23) = (   5.0000004  18.3461887   1.4200159  )
        24           C   tau(  24) = (   4.9999997  20.8053363   2.8395820  )
        25           C   tau(  25) = (   4.9999996  22.0355060   3.5502316  )
        26           C   tau(  26) = (   5.0000000  19.5754814   0.7101799  )
        27           C   tau(  27) = (   4.9999997  20.8053361   1.4204182  )
        28           C   tau(  28) = (   4.9999998  23.2650080   2.8401706  )
        29           C   tau(  29) = (   5.0000004  24.4945098   3.5502319  )
        30           C   tau(  30) = (   4.9999996  22.0355059   0.7097687  )
        31           C   tau(  31) = (   4.9999999  23.2650086   1.4198297  )
        32           C   tau(  32) = (   5.0000005  25.7246778   2.8395829  )
        33           C   tau(  33) = (   5.0000005  26.9545293   3.5498200  )
        34           C   tau(  34) = (   5.0000003  24.4945092   0.7097684  )
        35           C   tau(  35) = (   5.0000006  25.7246780   1.4204174  )
        36           C   tau(  36) = (   5.0000006  28.1838195   2.8399848  )
        37           C   tau(  37) = (   5.0000007  29.4142191   3.5506263  )
        38           C   tau(  38) = (   5.0000005  26.9545300   0.7101800  )
        39           C   tau(  39) = (   5.0000005  28.1838183   1.4200150  )
        40           C   tau(  40) = (   5.0000007  30.6451427   2.8403077  )
        41           C   tau(  41) = (   5.0000008  31.8749343   3.5494756  )
        42           C   tau(  42) = (   5.0000006  29.4142212   0.7093733  )
        43           C   tau(  43) = (   5.0000007  30.6451399   1.4196916  )
        44           C   tau(  44) = (   5.0000011  33.1062844   2.8391409  )
        45           C   tau(  45) = (   5.0000012  34.3389660   3.5494187  )
        46           C   tau(  46) = (   5.0000005  31.8749377   0.7105233  )
        47           C   tau(  47) = (   5.0000008  33.1062812   1.4208578  )
        48           C   tau(  48) = (   5.0000013  35.5678608   2.8414284  )
        49           C   tau(  49) = (   5.0000015  36.7975391   3.5525984  )
        50           C   tau(  50) = (   5.0000009  34.3389681   0.7105797  )
        51           C   tau(  51) = (   5.0000012  35.5678618   1.4185693  )
        52           C   tau(  52) = (   5.0000012  38.0337100   2.8410406  )
        53           C   tau(  53) = (   5.0000002  39.2628247   3.5447374  )
        54           C   tau(  54) = (   5.0000015  36.7975341   0.7073990  )
        55           C   tau(  55) = (   5.0000010  38.0337194   1.4189563  )
        56           C   tau(  56) = (   4.9999997  40.4694031   2.8129552  )
        57           C   tau(  57) = (   5.0000003  39.2628132   0.7152602  )
        58           C   tau(  58) = (   4.9999998  40.4694119   1.4470429  )
        59           H   tau(  59) = (   5.0000014   5.1050303   3.3300891  )
        60           H   tau(  60) = (   4.9999998   5.1050294   0.9299135  )
        61           H   tau(  61) = (   4.9999983  41.4249714   3.3300951  )
        62           H   tau(  62) = (   4.9999997  41.4249698   0.9299042  )

     number of k points=    26  Marzari-Vanderbilt smearing, width (Ry)=  0.0100
                       cart. coord. in units 2pi/alat
        k(    1) = (   0.0000000   0.0000000   0.0000000), wk =   0.0400000
        k(    2) = (   0.0000000   0.0000000   0.0046948), wk =   0.0800000
        k(    3) = (   0.0000000   0.0000000   0.0093897), wk =   0.0800000
        k(    4) = (   0.0000000   0.0000000   0.0140845), wk =   0.0800000
        k(    5) = (   0.0000000   0.0000000   0.0187793), wk =   0.0800000
        k(    6) = (   0.0000000   0.0000000   0.0234742), wk =   0.0800000
        k(    7) = (   0.0000000   0.0000000   0.0281690), wk =   0.0800000
        k(    8) = (   0.0000000   0.0000000   0.0328638), wk =   0.0800000
        k(    9) = (   0.0000000   0.0000000   0.0375587), wk =   0.0800000
        k(   10) = (   0.0000000   0.0000000   0.0422535), wk =   0.0800000
        k(   11) = (   0.0000000   0.0000000   0.0469484), wk =   0.0800000
        k(   12) = (   0.0000000   0.0000000   0.0516432), wk =   0.0800000
        k(   13) = (   0.0000000   0.0000000   0.0563380), wk =   0.0800000
        k(   14) = (   0.0000000   0.0000000   0.0610329), wk =   0.0800000
        k(   15) = (   0.0000000   0.0000000   0.0657277), wk =   0.0800000
        k(   16) = (   0.0000000   0.0000000   0.0704225), wk =   0.0800000
        k(   17) = (   0.0000000   0.0000000   0.0751174), wk =   0.0800000
        k(   18) = (   0.0000000   0.0000000   0.0798122), wk =   0.0800000
        k(   19) = (   0.0000000   0.0000000   0.0845070), wk =   0.0800000
        k(   20) = (   0.0000000   0.0000000   0.0892019), wk =   0.0800000
        k(   21) = (   0.0000000   0.0000000   0.0938967), wk =   0.0800000
        k(   22) = (   0.0000000   0.0000000   0.0985915), wk =   0.0800000
        k(   23) = (   0.0000000   0.0000000   0.1032864), wk =   0.0800000
        k(   24) = (   0.0000000   0.0000000   0.1079812), wk =   0.0800000
        k(   25) = (   0.0000000   0.0000000   0.1126761), wk =   0.0800000
        k(   26) = (   0.0000000   0.0000000  -0.1173709), wk =   0.0400000

     Dense  grid:  2375059 G-vectors     FFT dimensions: ( 135, 625,  60)

     Smooth grid:   457135 G-vectors     FFT dimensions: (  80, 360,  36)

     Estimated max dynamical RAM per process >     614.34 MB

     Estimated total dynamical RAM >       9.60 GB

     The potential is recalculated from file :
     /home/zfwang/scratch/GNRDATASET/AGNR/A29/A29.save/charge-density.dat


     negative rho (up, down):  8.488E-05 0.000E+00
     Starting wfcs are  236 randomized atomic wfcs +  264 random wfcs

     Band Structure Calculation
     Davidson diagonalization with overlap
     c_bands:  1 eigenvalues not converged

     ethr =  4.24E-09,  avg # of iterations = 48.8

     total cpu time spent up to now is     4052.7 secs

     End of band structure calculation

          k = 0.0000 0.0000 0.0000 ( 56979 PWs)   bands (ev):

   -20.6957 -20.6268 -20.5245 -20.3838 -20.2025 -19.9840 -19.7293 -19.4377
   -19.1088 -18.7375 -18.3320 -17.8952 -17.4282 -16.9336 -16.4156 -15.8797
   -15.4266 -15.3650 -15.3349 -15.2764 -15.1546 -14.9970 -14.8074 -14.7963
   -14.5866 -14.4222 -14.3621 -14.3335 -14.3061 -14.2620 -14.1626 -14.0473
   -14.0168 -13.9012 -13.8267 -13.7174 -13.7164 -13.6080 -13.5944 -13.3563
   -12.9669 -12.5481 -12.1007 -11.7088 -11.6652 -11.6261 -11.5044 -11.3513
   -11.1762 -11.1261 -10.9442 -10.7250 -10.6027 -10.5033 -10.1920 -10.0583
   -10.0357  -9.6357  -9.5464  -9.4950  -9.0936  -9.0407  -8.9118  -8.7867
    -8.7078  -8.5944  -8.5877  -8.5270  -8.4218  -8.3123  -8.2093  -8.1688
    -8.0205  -7.9534  -7.8418  -7.7185  -7.6840  -7.6557  -7.4720  -7.3163
    -7.1286  -6.9688  -6.9358  -6.5512  -6.5114  -6.4776  -6.0512  -6.0095
    -5.9988  -5.5745  -5.5592  -5.4877  -5.1837  -5.0386  -5.0381  -4.8474
    -4.6739  -4.5737  -4.4943  -4.4149  -4.3731  -4.2632  -4.2569  -3.9327
    -3.4892  -3.4087  -3.3616  -3.2846  -3.1127  -2.8923  -2.7908  -2.6266
    -2.3162  -2.2314  -1.9607  -1.6959  -1.5596  -1.1949  -1.0995  -0.7437
    -0.6008  -0.3747  -0.0794  -0.0671   0.1443   0.3038   0.4107   0.4778
     0.5035   0.5157   0.5312   1.1098   1.7491   1.8297   1.9534   1.9821
     2.0952   2.1852   2.3823   2.4184   2.5563   2.8346   3.0818   3.1139
     3.2286   3.3464   3.4244   3.4379   3.5801   3.6919   3.7115   3.8060
     3.8306   3.9744   4.0351   4.1746   4.2662   4.4868   4.5447   4.5628
     4.5858   4.7656   4.7936   4.8456   4.9616   5.0773   5.1133   5.1977
     5.2565   5.2837   5.3053   5.4894   5.5866   5.7705   5.7895   5.9163
     5.9324   6.0483   6.2379   6.2576   6.3976   6.4595   6.4890   6.6111
     6.6138   6.6827   6.7603   6.7721   7.0296   7.0788   7.1904   7.2143
     7.2639   7.2788   7.3206   7.3624   7.4229   7.4716   7.4807   7.4940
     7.6196   7.6616   7.6634   7.6794   7.7886   7.8083   7.8900   7.9419
     8.0799   8.1342   8.1663   8.1665   8.1721   8.2471   8.4235   8.4846
     8.5504   8.5736   8.7452   8.7952   8.7979   8.8210   8.8531   8.9035
     8.9706   8.9743   8.9811   9.2217   9.2861   9.3412   9.3874   9.4963
     9.5092   9.5195   9.5228   9.5630   9.5835   9.6029   9.6295   9.6484
     9.6565   9.6614   9.6737   9.7333   9.7358   9.8571   9.8773   9.9017
     9.9024   9.9111   9.9474   9.9638  10.0229  10.0608  10.0697  10.0710
    10.0876  10.0908  10.1290  10.1373  10.1393  10.1578  10.2332  10.2402
    10.2692  10.2864  10.3289  10.3308  10.3647  10.4203  10.4971  10.5066
    10.5379  10.6467  10.6595  10.6781  10.6796  10.7241  10.7710  10.7876
    10.8113  10.8656  10.8864  10.8975  10.9500  10.9865  11.0332  11.0768
    11.1027  11.1072  11.1101  11.1353  11.1439  11.1572  11.1954  11.2155
    11.3034  11.3298  11.3796  11.3821  11.4034  11.4074  11.4110  11.4131
    11.4909  11.5174  11.5283  11.5517  11.5670  11.5724  11.5760  11.5892
    11.6155  11.6702  11.6743  11.6886  11.7315  11.7367  11.7534  11.7946
    11.8346  11.8383  11.8520  11.8531  11.8618  11.8708  11.8753  11.8770
    11.9505  11.9571  12.0428  12.0538  12.0906  12.0981  12.1054  12.1062
    12.1578  12.1757  12.2229  12.2492  12.2512  12.2898  12.3092  12.3412
    12.3885  12.4263  12.4443  12.4718  12.4734  12.5163  12.5432  12.5899
    12.6089  12.6723  12.7136  12.7231  12.7491  12.8038  12.8236  12.8362
    12.8432  12.9187  12.9441  12.9626  13.0029  13.0880  13.0971  13.1079
    13.1826  13.2113  13.2356  13.2715  13.2748  13.2872  13.2985  13.4184
    13.4463  13.5014  13.5126  13.5228  13.5242  13.5646  13.7226  13.7939
    13.8126  13.8805  13.8999  13.9288  13.9826  13.9991  14.0056  14.0466
    14.0560  14.0867  14.1035  14.1394  14.1838  14.2024  14.2749  14.3094
    14.3197  14.3683  14.4074  14.4346  14.4447  14.4779  14.5469  14.6189
    14.7594  14.7663  14.8094  14.8378  14.8518  14.8813  14.8847  14.9024
    14.9661  14.9774  15.0036  15.0884  15.1240  15.1622  15.1810  15.2036
    15.3029  15.3879  15.4941  15.5122  15.5791  15.5868  15.6137  15.7109
    15.7258  15.8035  15.8072  15.8496  15.8509  15.8710  15.8852  15.8868
    15.9613  16.0249  16.0481  16.0830  16.0843  16.1098  16.1227  16.1790
    16.1871  16.2212  16.2648  16.2810  16.2861  16.2959  16.3070  16.3725
    16.3790  16.4417  16.4961  16.4972  16.5500  16.5827  16.5852  16.6293
    16.7114  16.7629  16.7810  16.8074  16.8128  16.8677  16.9063  16.9324
    16.9740  17.0097  17.0649  17.0966  17.1172  17.1198  17.1303  17.1694
    17.1719  17.1761  17.2087  17.2489  17.3438  17.3517  17.3662  17.3785
    17.4325  17.4427  17.4968  17.5127  17.5179  17.5189  17.6634  17.6653
    17.6828  17.7035  17.7673  17.8130

          k = 0.0000 0.0000 0.0047 ( 56975 PWs)   bands (ev):

   -20.6933 -20.6244 -20.5222 -20.3814 -20.2002 -19.9817 -19.7270 -19.4354
   -19.1065 -18.7352 -18.3297 -17.8929 -17.4259 -16.9315 -16.4136 -15.8780
   -15.4712 -15.4095 -15.3353 -15.3190 -15.1984 -15.0402 -14.8525 -14.7941
   -14.6306 -14.3794 -14.3742 -14.3142 -14.3013 -14.2232 -14.1164 -14.1022
   -13.9715 -13.9334 -13.8128 -13.6707 -13.6647 -13.5585 -13.5486 -13.3674
   -12.9855 -12.5687 -12.1217 -11.6919 -11.6562 -11.6420 -11.4862 -11.3371
   -11.1719 -11.1352 -10.9261 -10.7195 -10.6177 -10.4838 -10.1891 -10.0727
   -10.0168  -9.6333  -9.5288  -9.5087  -9.0908  -9.0249  -8.9256  -8.7838
    -8.7050  -8.5912  -8.5849  -8.5130  -8.4190  -8.3260  -8.2065  -8.1655
    -8.0092  -7.9507  -7.8375  -7.7320  -7.6810  -7.6530  -7.4610  -7.3136
    -7.1415  -6.9590  -6.9331  -6.5640  -6.5088  -6.4691  -6.0487  -6.0197
    -5.9943  -5.5743  -5.5569  -5.4952  -5.1850  -5.0456  -5.0365  -4.8506
    -4.6806  -4.5790  -4.4925  -4.4206  -4.3803  -4.2681  -4.2654  -3.9314
    -3.5051  -3.4247  -3.3613  -3.3010  -3.1295  -2.9099  -2.7921  -2.6455
    -2.3373  -2.2364  -1.9865  -1.7122  -1.5996  -1.3150  -0.9805  -0.7040
    -0.5864  -0.3484  -0.0645  -0.0570   0.1651   0.3239   0.4305   0.4974
     0.5019   0.5353   0.5507   1.1060   1.7441   1.8329   1.9566   1.9854
     2.0984   2.1885   2.3855   2.4125   2.5595   2.8379   3.0850   3.1071
     3.2318   3.3505   3.4277   3.4415   3.5833   3.6950   3.7148   3.8092
     3.8241   3.9776   4.0384   4.1778   4.2694   4.4901   4.5480   4.5546
     4.5902   4.7688   4.7968   4.8488   4.9648   5.0808   5.1164   5.2007
     5.2597   5.2869   5.2974   5.4926   5.5897   5.7738   5.7913   5.9194
     5.9367   6.0429   6.2410   6.2607   6.3990   6.4625   6.4919   6.6129
     6.6178   6.6865   6.7631   6.7650   7.0324   7.0814   7.1922   7.2211
     7.2565   7.2900   7.3245   7.3560   7.4252   7.4640   7.4852   7.4870
     7.6204   7.6636   7.6672   7.6673   7.7915   7.8125   7.8735   7.9434
     8.0832   8.1268   8.1302   8.1733   8.1837   8.2476   8.4126   8.4605
     8.5544   8.5843   8.7372   8.7776   8.8004   8.8252   8.8290   8.9052
     8.9711   8.9783   8.9940   9.1701   9.2773   9.3301   9.4054   9.5006
     9.5134   9.5239   9.5286   9.5620   9.5691   9.5883   9.6075   9.6432
     9.6520   9.6627   9.6744   9.6934   9.7226   9.7328   9.7404   9.8008
     9.8803   9.8867   9.8891   9.9007   9.9481   9.9645  10.0256  10.0612
    10.1116  10.1308  10.1392  10.1395  10.1601  10.1770  10.2776  10.2984
    10.3250  10.3303  10.3312  10.3565  10.3757  10.4464  10.4605  10.5389
    10.6190  10.6299  10.6404  10.6569  10.6999  10.7187  10.7620  10.7850
    10.8484  10.8532  10.8845  10.8893  10.9021  10.9329  10.9626  10.9737
    11.0033  11.0894  11.1314  11.1327  11.1558  11.1988  11.2308  11.2665
    11.3134  11.3329  11.3474  11.3738  11.3826  11.4010  11.4052  11.4246
    11.4711  11.5176  11.5220  11.5258  11.5687  11.6137  11.6388  11.6567
    11.6787  11.6957  11.7083  11.7088  11.7105  11.7372  11.7612  11.7850
    11.8097  11.8143  11.8555  11.8843  11.9038  11.9144  11.9151  11.9730
    11.9746  12.0241  12.0384  12.0584  12.0667  12.0732  12.1071  12.1132
    12.1149  12.1822  12.2181  12.2322  12.2638  12.3082  12.3170  12.3725
    12.3856  12.4061  12.4080  12.4650  12.4772  12.4903  12.5144  12.5215
    12.5312  12.5547  12.5775  12.6292  12.6618  12.7446  12.8075  12.8118
    12.9687  12.9761  12.9812  13.0273  13.0377  13.1134  13.1483  13.1726
    13.1856  13.2313  13.2568  13.2636  13.2970  13.3287  13.3497  13.4297
    13.4476  13.4567  13.4651  13.5353  13.6302  13.6474  13.7098  13.7780
    13.7977  13.7993  13.8589  13.9286  13.9712  13.9798  13.9949  14.0408
    14.0814  14.1544  14.1550  14.1592  14.2406  14.2571  14.2713  14.3191
    14.3564  14.3810  14.4340  14.4349  14.4979  14.5145  14.5588  14.6617
    14.7132  14.7353  14.7933  14.8108  14.8297  14.8665  14.8914  14.9137
    14.9617  14.9834  14.9862  15.0657  15.0670  15.2016  15.2909  15.2993
    15.3319  15.3807  15.4865  15.5072  15.5474  15.5499  15.6016  15.6144
    15.6884  15.7689  15.7742  15.8371  15.8556  15.8577  15.8863  15.9211
    15.9566  15.9711  16.0710  16.0906  16.0917  16.0975  16.1242  16.1458
    16.1820  16.2299  16.2302  16.2586  16.3291  16.3307  16.3357  16.3937
    16.4286  16.4860  16.5196  16.5311  16.5685  16.6341  16.6741  16.6848
    16.6900  16.6912  16.7940  16.8104  16.8350  16.8690  16.8991  16.9641
    16.9646  16.9927  16.9985  17.0113  17.0205  17.1016  17.1314  17.1328
    17.1477  17.2264  17.2291  17.2376  17.3336  17.3646  17.3659  17.4276
    17.4435  17.4920  17.5385  17.5674  17.5827  17.6177  17.6326  17.6557
    17.6680  17.6842  17.7782  17.8093

          k = 0.0000 0.0000 0.0094 ( 56999 PWs)   bands (ev):

   -20.6862 -20.6173 -20.5151 -20.3743 -20.1931 -19.9747 -19.7200 -19.4284
   -19.0996 -18.7283 -18.3229 -17.8862 -17.4193 -16.9250 -16.4075 -15.8727
   -15.5861 -15.5239 -15.4349 -15.3298 -15.3111 -15.1512 -14.9636 -14.7938
   -14.7420 -14.4926 -14.3169 -14.2480 -14.2208 -14.1898 -14.1035 -14.0471
   -13.9883 -13.8527 -13.7037 -13.5804 -13.5558 -13.4503 -13.4378 -13.3974
   -13.0380 -12.6268 -12.1812 -11.7091 -11.6426 -11.6068 -11.4343 -11.3020
   -11.2071 -11.1074 -10.8776 -10.7166 -10.6445 -10.4290 -10.1894 -10.1041
    -9.9630  -9.6334  -9.5413  -9.4787  -9.0858  -8.9796  -8.9620  -8.7753
    -8.6965  -8.5828  -8.5764  -8.4731  -8.4106  -8.3645  -8.1980  -8.1559
    -7.9779  -7.9423  -7.8243  -7.7700  -7.6727  -7.6447  -7.4297  -7.3054
    -7.1778  -6.9320  -6.9251  -6.5991  -6.5010  -6.4474  -6.0499  -6.0412
    -5.9818  -5.5777  -5.5498  -5.5139  -5.1897  -5.0673  -5.0301  -4.8609
    -4.7007  -4.5951  -4.4871  -4.4382  -4.4016  -4.2908  -4.2829  -3.9276
    -3.5516  -3.4718  -3.3602  -3.3489  -3.1788  -2.9615  -2.7961  -2.7005
    -2.3983  -2.2515  -2.0591  -1.7589  -1.7021  -1.4734  -0.8253  -0.6020
    -0.5454  -0.2742  -0.0567   0.0078   0.2260   0.3830   0.4887   0.4971
     0.5553   0.5929   0.6083   1.0947   1.7290   1.8425   1.9661   1.9951
     2.1081   2.1982   2.3949   2.3951   2.5692   2.8475   3.0870   3.0947
     3.2414   3.3626   3.4373   3.4519   3.5930   3.7044   3.7245   3.8050
     3.8189   3.9874   4.0484   4.1875   4.2791   4.4998   4.5321   4.5576
     4.6012   4.7784   4.8065   4.8584   4.9744   5.0910   5.1259   5.2097
     5.2693   5.2740   5.2966   5.5022   5.5990   5.7834   5.7962   5.9285
     5.9495   6.0275   6.2505   6.2700   6.4031   6.4717   6.5004   6.6182
     6.6299   6.6977   6.7438   6.7715   7.0407   7.0888   7.1976   7.2404
     7.2494   7.3074   7.3363   7.3421   7.4304   7.4414   7.4652   7.4997
     7.6127   7.6474   7.6698   7.6784   7.7799   7.8250   7.8463   7.9462
     8.0598   8.0898   8.1083   8.1770   8.2008   8.2503   8.3367   8.4508
     8.5661   8.5982   8.6838   8.7134   8.8077   8.8213   8.8378   8.9080
     8.9697   8.9900   9.0135   9.0539   9.2512   9.2842   9.3669   9.4102
     9.4375   9.4604   9.5127   9.5247   9.5380   9.5441   9.5457   9.5871
     9.6011   9.6163   9.6219   9.6629   9.6768   9.6906   9.6964   9.7384
     9.7483   9.7886   9.8267   9.8893   9.8948   9.9481   9.9497  10.0042
    10.0359  10.0659  10.1092  10.1357  10.1454  10.1663  10.2402  10.2510
    10.2985  10.3108  10.3313  10.3350  10.4284  10.5289  10.5364  10.5732
    10.6132  10.6267  10.6658  10.6771  10.6998  10.7377  10.7462  10.7550
    10.7552  10.7697  10.8221  10.8308  10.8678  10.8874  10.9772  10.9911
    11.0012  11.0355  11.1127  11.1239  11.1735  11.2353  11.2415  11.2471
    11.3194  11.3423  11.3692  11.3827  11.4014  11.4023  11.4269  11.4394
    11.4797  11.4967  11.5203  11.5374  11.5804  11.6156  11.6230  11.6417
    11.6816  11.6887  11.7453  11.7737  11.7751  11.8106  11.8267  11.8323
    11.8479  11.8983  11.9339  11.9609  11.9808  11.9934  12.0030  12.0231
    12.0629  12.0692  12.0715  12.0722  12.1081  12.1094  12.1131  12.1202
    12.1321  12.1483  12.1632  12.1735  12.1981  12.2136  12.2633  12.2796
    12.3386  12.3387  12.3628  12.3636  12.4175  12.4636  12.4727  12.4756
    12.4887  12.5207  12.5236  12.5965  12.6289  12.6435  12.8059  12.8211
    12.8754  12.8803  12.8921  12.9144  13.1306  13.1646  13.1944  13.2860
    13.3009  13.3303  13.3471  13.3584  13.3691  13.4067  13.4314  13.4404
    13.4675  13.5064  13.5281  13.5493  13.6429  13.6491  13.7464  13.7541
    13.7616  13.7897  13.8487  13.8496  14.0003  14.0031  14.0380  14.1199
    14.1623  14.2001  14.2241  14.2505  14.2951  14.3048  14.3360  14.3519
    14.3992  14.4060  14.4307  14.5474  14.5628  14.5674  14.6044  14.6599
    14.6680  14.7491  14.7539  14.7879  14.8464  14.8774  14.8828  14.9394
    14.9534  14.9940  15.0022  15.0428  15.1502  15.1902  15.3043  15.3206
    15.3749  15.3863  15.4063  15.4573  15.5216  15.5440  15.5780  15.6030
    15.6301  15.6691  15.7933  15.8050  15.8334  15.8387  15.8473  15.8753
    15.9049  15.9838  16.0006  16.0463  16.0563  16.0961  16.0998  16.2053
    16.2202  16.2439  16.2485  16.3235  16.3968  16.4041  16.4582  16.4737
    16.4775  16.5044  16.5290  16.5855  16.6100  16.6302  16.6616  16.6845
    16.7008  16.7593  16.7883  16.8120  16.8300  16.8734  16.9081  16.9224
    16.9308  16.9311  17.0080  17.0081  17.0681  17.0712  17.0989  17.1771
    17.1916  17.2089  17.2538  17.2632  17.3724  17.3934  17.4516  17.4559
    17.4592  17.4652  17.4935  17.5727  17.5906  17.5961  17.6092  17.7265
    17.7458  17.7751  17.8178  17.8191

          k = 0.0000 0.0000 0.0141 ( 57019 PWs)   bands (ev):

   -20.6744 -20.6054 -20.5032 -20.3625 -20.1813 -19.9629 -19.7083 -19.4167
   -19.0880 -18.7168 -18.3115 -17.8750 -17.4083 -16.9144 -16.3974 -15.8641
   -15.7396 -15.6768 -15.5867 -15.4618 -15.3336 -15.2910 -15.1115 -14.8889
   -14.7972 -14.6364 -14.3957 -14.3170 -14.1728 -14.0773 -14.0191 -13.9357
   -13.8259 -13.6899 -13.5544 -13.4926 -13.4443 -13.4019 -13.3223 -13.2955
   -13.1161 -12.7141 -12.2705 -11.7972 -11.5648 -11.5436 -11.3514 -11.3091
   -11.2283 -11.0334 -10.8237 -10.7594 -10.6167 -10.3494 -10.2315 -10.1062
    -9.8815  -9.6681  -9.5556  -9.4021  -9.0979  -8.9980  -8.9102  -8.7611
    -8.6823  -8.5741  -8.5622  -8.4192  -8.4124  -8.3965  -8.1840  -8.1412
    -7.9333  -7.9284  -7.8276  -7.8006  -7.6595  -7.6309  -7.3827  -7.2918
    -7.2337  -6.9118  -6.8924  -6.6524  -6.4881  -6.4172  -6.0983  -6.0287
    -5.9637  -5.6007  -5.5381  -5.5287  -5.2022  -5.0998  -5.0194  -4.8798
    -4.7334  -4.6225  -4.4781  -4.4680  -4.4367  -4.3321  -4.3076  -3.9213
    -3.6263  -3.5472  -3.4255  -3.3586  -3.2574  -3.0433  -2.8029  -2.7871
    -2.4928  -2.2767  -2.1678  -1.8437  -1.8261  -1.6347  -0.6693  -0.4834
    -0.4654  -0.1626  -0.0438   0.1087   0.3224   0.4773   0.4894   0.5824
     0.6486   0.6861   0.7015   1.0764   1.7043   1.8585   1.9821   2.0112
     2.1242   2.2143   2.3660   2.4112   2.5854   2.8636   3.0544   3.1109
     3.2574   3.3821   3.4534   3.4690   3.6091   3.7188   3.7407   3.7752
     3.8351   4.0036   4.0650   4.2035   4.2952   4.4965   4.5160   4.5737
     4.6183   4.7945   4.8226   4.8743   4.9903   5.1079   5.1416   5.2244
     5.2363   5.2853   5.3126   5.5183   5.6144   5.7994   5.8015   5.9437
     5.9702   6.0050   6.2662   6.2852   6.4100   6.4866   6.5142   6.6269
     6.6498   6.7089   6.7164   6.7852   7.0543   7.1000   7.2066   7.2478
     7.2670   7.3219   7.3315   7.3558   7.4041   7.4239   7.4584   7.5026
     7.5834   7.6525   7.6792   7.6971   7.7186   7.8455   7.8483   7.9244
     7.9896   8.0620   8.1163   8.1807   8.2098   8.2172   8.2566   8.4604
     8.5470   8.5849   8.5902   8.6746   8.8185   8.8263   8.8586   8.8677
     8.9477   8.9568   9.0091   9.0250   9.0676   9.1376   9.1899   9.2085
     9.2937   9.2988   9.3964   9.4547   9.5296   9.5413   9.5629   9.5735
     9.6078   9.6156   9.6168   9.6196   9.6439   9.6524   9.6533   9.6814
     9.6835   9.7281   9.7598   9.8567   9.8573   9.8942   9.9041   9.9499
     9.9904   9.9941  10.0683  10.1006  10.1211  10.1656  10.1724  10.1811
    10.2054  10.2871  10.2891  10.3228  10.3433  10.3699  10.4236  10.4240
    10.4538  10.4846  10.5012  10.5023  10.7072  10.7305  10.7392  10.7421
    10.8114  10.8201  10.8836  10.8862  10.9144  10.9305  10.9890  11.0271
    11.0523  11.1037  11.1391  11.1942  11.1965  11.2339  11.2574  11.3032
    11.3154  11.3183  11.3575  11.3647  11.3960  11.4120  11.4125  11.4272
    11.4339  11.5477  11.5903  11.5980  11.6014  11.6033  11.6382  11.7021
    11.7172  11.7943  11.8005  11.8024  11.8185  11.8248  11.8324  11.8598
    11.8790  11.8843  11.8960  11.9506  11.9788  11.9965  11.9980  12.0065
    12.0283  12.0494  12.0992  12.1102  12.1313  12.1446  12.1509  12.1654
    12.1705  12.1958  12.2132  12.2351  12.2412  12.2467  12.2474  12.2562
    12.2587  12.3050  12.3407  12.3705  12.3772  12.3907  12.3919  12.4465
    12.4572  12.5028  12.5340  12.5791  12.6071  12.7062  12.7092  12.7709
    12.7756  12.7946  12.8298  12.9475  13.0769  13.1297  13.2089  13.2613
    13.3061  13.3179  13.3219  13.3577  13.4054  13.4119  13.4888  13.5664
    13.5960  13.6493  13.6717  13.6722  13.6924  13.7118  13.7232  13.7685
    13.7868  13.8036  13.9394  14.0120  14.0233  14.1204  14.1664  14.1673
    14.1790  14.1889  14.2115  14.2918  14.3632  14.3840  14.4092  14.4156
    14.4331  14.4751  14.5383  14.5532  14.5740  14.6077  14.6338  14.7156
    14.7263  14.7662  14.7940  14.8194  14.8393  14.9059  14.9557  14.9706
    15.0074  15.0144  15.0172  15.1196  15.1552  15.1721  15.1762  15.2669
    15.2901  15.3457  15.3653  15.4488  15.5129  15.5177  15.5682  15.5827
    15.6321  15.6565  15.6681  15.6979  15.8135  15.8872  15.8945  15.9244
    15.9278  15.9383  15.9703  15.9971  16.0475  16.0887  16.1218  16.2009
    16.2817  16.3109  16.3316  16.4083  16.4088  16.4409  16.4800  16.4815
    16.5080  16.5184  16.5210  16.6031  16.6032  16.6053  16.6349  16.6669
    16.6736  16.7581  16.7651  16.8635  16.8969  16.9264  16.9318  16.9401
    16.9832  17.0326  17.0909  17.1132  17.1273  17.1499  17.1539  17.1770
    17.2091  17.2487  17.2881  17.3160  17.3356  17.3976  17.4235  17.4429
    17.4734  17.4738  17.5017  17.5028  17.5228  17.5889  17.6698  17.6977
    17.7010  17.7053  17.7107  17.7324

          k = 0.0000 0.0000 0.0188 ( 56993 PWs)   bands (ev):

   -20.6578 -20.5889 -20.4867 -20.3460 -20.1648 -19.9465 -19.6919 -19.4004
   -19.0718 -18.7007 -18.2956 -17.8592 -17.3929 -16.8994 -16.3835 -15.9117
   -15.8585 -15.8424 -15.7572 -15.6305 -15.4728 -15.3125 -15.2771 -15.0512
   -14.8355 -14.7616 -14.5471 -14.3675 -14.3114 -13.8808 -13.8237 -13.7422
   -13.6355 -13.5102 -13.4820 -13.4479 -13.3494 -13.2417 -13.2092 -13.1870
   -13.1392 -12.8209 -12.3806 -11.9061 -11.4669 -11.4626 -11.4008 -11.2412
   -11.1760 -10.9265 -10.8792 -10.7331 -10.5360 -10.3262 -10.2503 -10.0652
    -9.7835  -9.7462  -9.5346  -9.3068  -9.1588  -8.9966  -8.8235  -8.7412
    -8.6624  -8.5846  -8.5424  -8.4660  -8.3767  -8.3373  -8.1644  -8.1235
    -7.9089  -7.8982  -7.8851  -7.7625  -7.6417  -7.6116  -7.3247  -7.3054
    -7.2728  -6.8931  -6.8448  -6.7212  -6.4699  -6.3825  -6.1625  -6.0113
    -5.9436  -5.6520  -5.5318  -5.5217  -5.2302  -5.1365  -5.0046  -4.9097
    -4.7776  -4.6617  -4.5115  -4.4847  -4.4656  -4.3872  -4.3422  -3.9126
    -3.7255  -3.6472  -3.5270  -3.3641  -3.3534  -3.1506  -2.8996  -2.8129
    -2.6134  -2.3172  -2.2959  -1.9971  -1.9177  -1.7971  -0.5140  -0.4061
    -0.3117  -0.0266  -0.0240   0.2383   0.4485   0.4792   0.6023   0.7069
     0.7732   0.8108   0.8263   1.0514   1.6705   1.8809   2.0045   2.0339
     2.1467   2.2370   2.3263   2.4337   2.6080   2.8861   3.0102   3.1336
     3.2799   3.4087   3.4759   3.4916   3.6317   3.7199   3.7545   3.7635
     3.8577   4.0264   4.0881   4.2259   4.3178   4.4483   4.5387   4.5961
     4.6416   4.8169   4.8451   4.8966   5.0126   5.1312   5.1637   5.1843
     5.2458   5.3076   5.3350   5.5407   5.6360   5.8006   5.8214   5.9648
     5.9826   5.9980   6.2880   6.3057   6.4196   6.5067   6.5324   6.6386
     6.6603   6.6781   6.7422   6.8036   7.0726   7.1140   7.2190   7.2522
     7.2838   7.3240   7.3395   7.3529   7.3829   7.4077   7.4731   7.4751
     7.5751   7.6327   7.6691   7.6980   7.7229   7.8277   7.8502   7.8737
     7.9841   8.0101   8.0766   8.1412   8.1901   8.1938   8.2670   8.4066
     8.4746   8.5407   8.6005   8.6314   8.7236   8.7764   8.8210   8.8282
     8.8351   8.8873   8.9075   8.9345   8.9806   9.0349   9.0385   9.1305
     9.1496   9.1652   9.1674   9.3723   9.3940   9.4847   9.5076   9.5432
     9.5632   9.5914   9.5984   9.6102   9.6434   9.6518   9.6584   9.7080
     9.7092   9.7203   9.7312   9.7738   9.7886   9.8099   9.8748   9.9224
     9.9389   9.9433  10.0024  10.0032  10.0358  10.1226  10.1312  10.1513
    10.1589  10.1899  10.1921  10.2208  10.2226  10.2318  10.2480  10.2607
    10.2838  10.3571  10.3596  10.4619  10.4674  10.5776  10.7050  10.7505
    10.7601  10.8346  10.8366  10.8728  10.9210  10.9736  11.0100  11.0387
    11.1101  11.1318  11.1706  11.2437  11.2466  11.2853  11.3037  11.3082
    11.3461  11.3696  11.3810  11.4044  11.4362  11.4484  11.4519  11.5149
    11.5268  11.5441  11.5773  11.6005  11.6290  11.6540  11.6603  11.6867
    11.7053  11.7073  11.7385  11.7602  11.8183  11.8217  11.8302  11.8342
    11.8835  11.9113  11.9247  11.9357  11.9454  11.9511  11.9618  11.9816
    12.0037  12.0718  12.0929  12.1144  12.1330  12.1650  12.1713  12.1750
    12.1767  12.2105  12.2654  12.2664  12.2893  12.3186  12.3231  12.3263
    12.3538  12.3670  12.4110  12.4182  12.4298  12.4304  12.4832  12.4861
    12.4956  12.5282  12.5302  12.5352  12.5524  12.5883  12.6222  12.6312
    12.8045  12.8116  12.9103  12.9312  12.9802  13.1211  13.1259  13.1728
    13.2301  13.2481  13.3543  13.3769  13.3778  13.3874  13.5074  13.5380
    13.6480  13.6712  13.7219  13.7556  13.7624  13.8393  13.8685  13.9620
    14.0183  14.0353  14.0488  14.0652  14.0781  14.1289  14.1371  14.2026
    14.2146  14.2604  14.3437  14.3513  14.4050  14.4110  14.4721  14.4985
    14.5244  14.5931  14.6013  14.6022  14.6326  14.6519  14.7078  14.7180
    14.7226  14.8133  14.8173  14.8865  14.9044  14.9572  14.9574  14.9980
    15.0020  15.0076  15.0761  15.0873  15.1706  15.1912  15.1917  15.2690
    15.2987  15.3056  15.3953  15.3967  15.4508  15.5055  15.5118  15.5185
    15.5482  15.6430  15.6781  15.7645  15.8091  15.8183  15.8886  15.9021
    15.9069  15.9174  16.0076  16.0526  16.1077  16.1247  16.1373  16.2045
    16.2590  16.2760  16.3738  16.4066  16.4111  16.4345  16.5140  16.5146
    16.5235  16.5395  16.5695  16.5828  16.6374  16.6681  16.6811  16.6836
    16.7607  16.8013  16.8533  16.8683  16.9290  16.9666  16.9794  17.0211
    17.0499  17.0549  17.0685  17.1308  17.1420  17.1566  17.1895  17.2032
    17.3053  17.3236  17.3546  17.3766  17.3767  17.3901  17.4048  17.4120
    17.4490  17.4581  17.4950  17.5140  17.5220  17.5474  17.5677  17.5729
    17.5936  17.6151  17.6619  17.6979

          k = 0.0000 0.0000 0.0235 ( 57015 PWs)   bands (ev):

   -20.6365 -20.5676 -20.4654 -20.3248 -20.1436 -19.9254 -19.6709 -19.3795
   -19.0510 -18.6801 -18.2751 -17.8390 -17.3731 -16.8803 -16.3658 -16.0921
   -16.0289 -15.9360 -15.8452 -15.7999 -15.6475 -15.4502 -15.3137 -15.2121
   -14.9837 -14.7864 -14.7097 -14.4561 -14.4289 -13.6690 -13.6130 -13.5424
   -13.5247 -13.4345 -13.3953 -13.3000 -13.2970 -13.1568 -13.1071 -13.0246
   -12.9795 -12.9358 -12.5037 -12.0288 -11.5280 -11.3660 -11.3340 -11.1119
   -11.1111 -10.9844 -10.7949 -10.6786 -10.4287 -10.4189 -10.1733  -9.9855
    -9.8491  -9.6776  -9.4902  -9.2512  -9.2015  -8.9685  -8.7267  -8.7157
    -8.6470  -8.6369  -8.5170  -8.4671  -8.3514  -8.2551  -8.1392  -8.1125
    -7.9668  -7.8839  -7.8417  -7.7080  -7.6195  -7.5869  -7.3883  -7.2605
    -7.2484  -6.8692  -6.8027  -6.7936  -6.4466  -6.3468  -6.2401  -5.9890
    -5.9250  -5.7223  -5.5338  -5.5007  -5.2816  -5.1705  -4.9855  -4.9535
    -4.8317  -4.7133  -4.5710  -4.5449  -4.4527  -4.4496  -4.3865  -3.9017
    -3.8451  -3.7676  -3.6488  -3.4857  -3.3536  -3.2781  -3.0320  -2.8271
    -2.7519  -2.4549  -2.3525  -2.1617  -2.0206  -1.9600  -0.3600  -0.3184
    -0.1492  -0.0026   0.1305   0.3894   0.4675   0.5984   0.7524   0.8577
     0.9247   0.9628   0.9788   1.0206   1.6283   1.9097   2.0332   2.0630
     2.1756   2.2661   2.2767   2.4627   2.6372   2.9150   2.9552   3.1628
     3.3086   3.4422   3.5048   3.5163   3.6606   3.6768   3.7779   3.7927
     3.8867   4.0556   4.1176   4.2548   4.3468   4.3883   4.5679   4.6249
     4.6712   4.8457   4.8740   4.9253   5.0412   5.1207   5.1605   5.1921
     5.2724   5.3362   5.3638   5.5694   5.6638   5.7816   5.8492   5.9730
     5.9918   6.0325   6.3160   6.3306   6.4317   6.5309   6.5536   6.6001
     6.6531   6.7130   6.7750   6.8259   7.0940   7.1290   7.2345   7.2621
     7.2875   7.2884   7.3119   7.3464   7.3924   7.4173   7.4444   7.4904
     7.5593   7.5857   7.6859   7.7123   7.7287   7.7558   7.8291   7.9090
     7.9435   7.9518   7.9823   8.1262   8.1735   8.2001   8.2648   8.3126
     8.4364   8.4804   8.5029   8.5448   8.5579   8.5906   8.6516   8.6835
     8.7218   8.8020   8.8448   8.9231   8.9273   8.9719   9.0240   9.0469
     9.0658   9.0754   9.0855   9.1849   9.2213   9.2740   9.4677   9.5141
     9.5260   9.5306   9.5849   9.5907   9.6372   9.6487   9.6630   9.6825
     9.6878   9.7250   9.7449   9.7450   9.7534   9.7536   9.7846   9.8671
     9.9039   9.9126   9.9346   9.9512   9.9621   9.9649   9.9816   9.9884
    10.0408  10.0444  10.0480  10.0587  10.0738  10.1224  10.1894  10.1963
    10.2146  10.2547  10.3257  10.3732  10.4302  10.4438  10.5603  10.7342
    10.7556  10.7569  10.7872  10.8339  10.8448  10.8958  10.9371  10.9386
    11.0664  11.0925  11.1517  11.2201  11.2336  11.2680  11.2892  11.3424
    11.3714  11.4003  11.4015  11.4100  11.4443  11.4669  11.4806  11.5299
    11.5566  11.5881  11.6018  11.6108  11.6425  11.6739  11.6946  11.6958
    11.7229  11.7322  11.7571  11.7900  11.7969  11.7974  11.8103  11.8494
    11.8657  11.8950  11.9090  11.9371  11.9642  11.9926  11.9974  12.0240
    12.0339  12.1081  12.1369  12.1417  12.1747  12.1791  12.1924  12.1996
    12.2136  12.2159  12.2309  12.2847  12.2879  12.3277  12.3473  12.3855
    12.3974  12.4139  12.4348  12.4443  12.4855  12.5095  12.5140  12.5170
    12.5418  12.5674  12.5763  12.6177  12.6188  12.6441  12.6798  12.7053
    12.7548  12.7988  12.8377  12.8747  12.9952  13.0464  13.0512  13.2028
    13.2179  13.2550  13.2979  13.3049  13.3363  13.3392  13.4989  13.5214
    13.6776  13.7892  13.8111  13.8307  13.8876  13.9013  13.9438  13.9704
    13.9832  14.0790  14.0926  14.1862  14.2169  14.2445  14.2779  14.3265
    14.3562  14.3579  14.3833  14.4616  14.4805  14.4898  14.5608  14.5646
    14.5778  14.6232  14.6420  14.6709  14.6786  14.7274  14.7435  14.7913
    14.8156  14.8188  14.8476  14.8647  14.9101  14.9176  15.0000  15.0266
    15.0373  15.0718  15.1116  15.1369  15.1429  15.1550  15.2197  15.3018
    15.3242  15.3436  15.4041  15.4171  15.4655  15.5231  15.5479  15.5515
    15.6405  15.6583  15.6608  15.6826  15.7269  15.8019  15.8178  15.8855
    15.9029  15.9215  15.9962  16.0300  16.0944  16.1441  16.1834  16.1839
    16.3354  16.3443  16.3597  16.3843  16.4704  16.4885  16.5269  16.5622
    16.5992  16.6051  16.6512  16.6784  16.6948  16.7005  16.7488  16.7701
    16.8358  16.8405  16.8585  16.8699  16.8964  16.9556  16.9884  16.9900
    17.0367  17.0517  17.0737  17.1101  17.1601  17.2211  17.2584  17.2603
    17.2807  17.2857  17.3182  17.3204  17.3259  17.3438  17.3751  17.3826
    17.3975  17.4222  17.5020  17.5298  17.5530  17.5663  17.5805  17.6155
    17.6494  17.6725  17.7103  17.7183

          k = 0.0000 0.0000 0.0282 ( 57054 PWs)   bands (ev):

   -20.6104 -20.5415 -20.4394 -20.2988 -20.1178 -19.8996 -19.6452 -19.3539
   -19.0255 -18.6548 -18.2501 -17.8144 -17.3490 -16.8572 -16.3450 -16.2755
   -16.2119 -16.1177 -15.9928 -15.8262 -15.8179 -15.6243 -15.4152 -15.2739
   -15.1524 -14.8745 -14.7993 -14.6027 -14.5074 -13.5672 -13.4523 -13.4469
   -13.3927 -13.3142 -13.3005 -13.2078 -13.0952 -13.0852 -12.9640 -12.9562
   -12.8409 -12.8228 -12.6321 -12.1599 -11.6551 -11.2605 -11.1959 -11.1099
   -11.0363 -10.9513 -10.6506 -10.6247 -10.5389 -10.2794 -10.1131  -9.9597
    -9.8687  -9.5893  -9.4142  -9.3570  -9.0980  -8.9211  -8.7418  -8.6844
    -8.6281  -8.6058  -8.4859  -8.4350  -8.3204  -8.1778  -8.1441  -8.1084
    -7.9868  -7.8533  -7.8044  -7.6457  -7.5930  -7.5566  -7.4741  -7.2186
    -7.1949  -6.8936  -6.8399  -6.7427  -6.4182  -6.3284  -6.3136  -5.9617
    -5.9111  -5.8059  -5.5408  -5.4751  -5.3543  -5.2045  -5.0136  -4.9624
    -4.8943  -4.7778  -4.6496  -4.6161  -4.5242  -4.4400  -4.4303  -3.9810
    -3.9042  -3.8887  -3.7866  -3.6257  -3.4211  -3.3514  -3.1789  -2.9099
    -2.8387  -2.6158  -2.4052  -2.3311  -2.1329  -2.1230  -0.2238  -0.2074
     0.0178   0.0258   0.2975   0.4546   0.5565   0.7668   0.9228   0.9847
     1.0302   1.0987   1.1380   1.1546   1.5785   1.9449   2.0682   2.0985
     2.2110   2.2180   2.3017   2.4981   2.6727   2.8903   2.9503   3.1985
     3.3438   3.4822   3.5272   3.5402   3.6386   3.6960   3.8129   3.8284
     3.9221   4.0912   4.1536   4.2894   4.3180   4.3822   4.6036   4.6600
     4.7071   4.8808   4.9093   4.9604   5.0461   5.0763   5.1954   5.2268
     5.3047   5.3709   5.3990   5.6045   5.6976   5.7372   5.8823   5.9847
     6.0245   6.0730   6.3498   6.3582   6.4468   6.5283   6.5572   6.5761
     6.6703   6.7555   6.8146   6.8510   7.1131   7.1449   7.2114   7.2525
     7.2749   7.2942   7.2985   7.3210   7.3576   7.4148   7.4585   7.4707
     7.5346   7.5832   7.6672   7.7087   7.7251   7.7811   7.7956   7.8636
     7.8741   7.9219   7.9507   8.0678   8.1825   8.2127   8.2155   8.2166
     8.2860   8.3078   8.3088   8.3860   8.4625   8.4910   8.5412   8.5566
     8.5792   8.6901   8.7543   8.8333   8.8817   8.9572   8.9695   8.9700
     8.9945   9.0580   9.0943   9.0980   9.1143   9.1216   9.2919   9.3028
     9.4170   9.4566   9.4788   9.5605   9.6222   9.6303   9.6667   9.6715
     9.6727   9.6954   9.7008   9.7166   9.7266   9.7313   9.7424   9.7745
     9.7784   9.7960   9.8041   9.8448   9.8454   9.8534   9.8535   9.8608
     9.9251   9.9334   9.9835   9.9913  10.0508  10.0536  10.0750  10.0771
    10.2323  10.2513  10.2765  10.2955  10.3568  10.4255  10.4684  10.5257
    10.6275  10.6344  10.6700  10.8229  10.8633  10.8848  10.9192  10.9365
    10.9599  10.9701  10.9867  11.0500  11.1237  11.1780  11.2418  11.2790
    11.2942  11.3189  11.3860  11.3888  11.4447  11.4587  11.4743  11.5037
    11.5143  11.5642  11.5943  11.6155  11.6254  11.6752  11.6912  11.6927
    11.7220  11.7884  11.7896  11.8044  11.8405  11.8781  11.9108  11.9209
    11.9599  11.9604  11.9868  12.0034  12.0168  12.0247  12.0516  12.0749
    12.1224  12.1436  12.1514  12.1912  12.2093  12.2153  12.2182  12.2243
    12.2338  12.2387  12.2441  12.2916  12.3118  12.3140  12.3924  12.4049
    12.4296  12.4396  12.4724  12.4813  12.5219  12.5254  12.5393  12.5816
    12.5902  12.6044  12.6219  12.6592  12.6594  12.6892  12.6983  12.7705
    12.7757  12.8675  12.8685  12.9686  12.9825  13.0451  13.0496  13.1379
    13.1680  13.2253  13.2339  13.2380  13.2944  13.5138  13.5212  13.5230
    13.6946  13.7821  13.8121  13.8607  13.9254  13.9349  13.9422  14.0500
    14.0785  14.1076  14.1199  14.1824  14.2381  14.2665  14.2757  14.3550
    14.4757  14.5051  14.5661  14.5939  14.6173  14.6222  14.6279  14.6564
    14.6696  14.6895  14.7072  14.7333  14.7361  14.8054  14.8090  14.8118
    14.8438  14.8569  14.8720  14.9018  14.9020  14.9088  15.0326  15.0540
    15.0722  15.0964  15.1541  15.1623  15.1915  15.2327  15.2958  15.3434
    15.3767  15.3945  15.4516  15.4943  15.5200  15.5204  15.5408  15.5654
    15.6014  15.6461  15.6874  15.7149  15.7236  15.7387  15.8343  15.8837
    15.9522  15.9754  16.0065  16.0371  16.0857  16.1477  16.2738  16.2787
    16.3275  16.3637  16.3763  16.4911  16.5150  16.5476  16.5913  16.5920
    16.6033  16.6258  16.6377  16.7143  16.7340  16.7587  16.7723  16.7988
    16.8206  16.8337  16.8468  16.9526  16.9567  16.9579  16.9856  17.0187
    17.0260  17.0298  17.0625  17.0673  17.1756  17.1810  17.1926  17.2125
    17.2392  17.2553  17.2606  17.3275  17.3319  17.3322  17.3470  17.3491
    17.3829  17.5099  17.5328  17.5353  17.5928  17.6100  17.6201  17.6563
    17.6714  17.6797  17.6997  17.7631

          k = 0.0000 0.0000 0.0329 ( 57068 PWs)   bands (ev):

   -20.5797 -20.5108 -20.4087 -20.2682 -20.0872 -19.8691 -19.6148 -19.3237
   -18.9955 -18.6250 -18.2206 -17.7854 -17.3206 -16.8301 -16.4601 -16.3954
   -16.3283 -16.2927 -16.1732 -16.0049 -15.8376 -15.7623 -15.5844 -15.3228
   -15.2701 -15.0370 -14.8314 -14.7368 -14.6023 -13.5889 -13.5509 -13.2542
   -13.2178 -13.2082 -13.1630 -13.0888 -12.9883 -12.8961 -12.8492 -12.7850
   -12.7457 -12.6528 -12.6526 -12.2945 -11.7889 -11.2663 -11.1021 -11.0473
   -10.9520 -10.7926 -10.6677 -10.5684 -10.4763 -10.1388 -10.0629 -10.0624
    -9.7312  -9.5259  -9.4679  -9.3032  -9.0124  -8.8480  -8.8458  -8.6476
    -8.5690  -8.5390  -8.4492  -8.3795  -8.2838  -8.2376  -8.1012  -8.0720
    -7.9440  -7.8172  -7.7719  -7.6263  -7.5622  -7.5209  -7.5141  -7.1833
    -7.1356  -6.9869  -6.8054  -6.6963  -6.4245  -6.3846  -6.2862  -5.9295
    -5.9045  -5.8996  -5.5564  -5.4449  -5.4425  -5.2449  -5.0913  -4.9649
    -4.9352  -4.8561  -4.7477  -4.6972  -4.5993  -4.5023  -4.4077  -4.1295
    -4.0534  -3.9377  -3.8728  -3.7777  -3.5755  -3.3579  -3.3278  -3.0709
    -2.8601  -2.7836  -2.5028  -2.4659  -2.2857  -2.2521  -0.1244  -0.0565
     0.0596   0.1869   0.4419   0.4722   0.7351   0.9429   0.9514   1.1096
     1.2203   1.2915   1.3325   1.3502   1.5223   1.9864   2.1096   2.1406
     2.1512   2.2528   2.3438   2.5400   2.7148   2.8166   2.9922   3.2406
     3.3853   3.4872   3.5285   3.5820   3.6477   3.7378   3.8551   3.8707
     3.9638   4.1333   4.1960   4.2366   4.3321   4.4240   4.6457   4.7012
     4.7493   4.9223   4.9509   4.9619   5.0018   5.1177   5.2347   5.2679
     5.3422   5.4119   5.4406   5.6458   5.6726   5.7376   5.9200   6.0143
     6.0627   6.1192   6.3853   6.3892   6.4464   6.4651   6.5818   6.5973
     6.6912   6.8051   6.8607   6.8773   7.1160   7.1227   7.1646   7.2710
     7.2827   7.2828   7.2879   7.3155   7.3165   7.3594   7.4029   7.5059
     7.5112   7.5301   7.6597   7.7313   7.7417   7.7510   7.7718   7.8138
     7.8418   7.8629   7.9369   7.9924   7.9974   8.0669   8.0787   8.1249
     8.1942   8.2578   8.2628   8.2856   8.3363   8.3669   8.3872   8.4250
     8.5388   8.6019   8.6473   8.6924   8.7320   8.8740   8.9569   8.9628
     8.9817   8.9868   9.0218   9.0456   9.0902   9.0934   9.1163   9.1723
     9.3083   9.3143   9.3571   9.4110   9.4150   9.4779   9.4935   9.4939
     9.5858   9.6248   9.6594   9.6651   9.6762   9.6772   9.6925   9.6966
     9.7125   9.7396   9.7480   9.7569   9.7701   9.8005   9.8249   9.8373
     9.8747   9.8882   9.8945   9.8991  10.0191  10.0243  10.0898  10.1137
    10.1790  10.2201  10.2418  10.2760  10.2779  10.3048  10.3511  10.4732
    10.4742  10.5317  10.5695  10.6832  10.6887  10.7559  10.8526  10.8627
    10.8865  10.8966  10.9432  10.9726  10.9879  11.0682  11.0905  11.1751
    11.2336  11.2667  11.3220  11.3620  11.4030  11.4109  11.4863  11.5037
    11.5117  11.5481  11.5554  11.5947  11.6125  11.6349  11.6486  11.6644
    11.6867  11.7386  11.7791  11.8296  11.8859  11.9058  11.9565  11.9572
    11.9606  11.9915  12.0124  12.0170  12.0716  12.0962  12.1226  12.1376
    12.1834  12.2001  12.2177  12.2455  12.2668  12.2761  12.2792  12.2857
    12.2861  12.2927  12.3486  12.3826  12.3861  12.4032  12.4255  12.4441
    12.4730  12.4770  12.5077  12.5223  12.5336  12.5694  12.6118  12.6187
    12.6243  12.6277  12.6310  12.6457  12.6803  12.7380  12.7717  12.8361
    12.8634  12.8752  12.8780  12.9110  12.9824  12.9896  13.0773  13.1876
    13.2556  13.2635  13.2741  13.2815  13.3308  13.4579  13.4795  13.6883
    13.7006  13.7099  13.7779  13.8614  13.8820  13.9669  13.9856  14.0058
    14.0770  14.1511  14.1682  14.2323  14.2445  14.3012  14.3335  14.3505
    14.4343  14.4799  14.5110  14.6472  14.6791  14.7191  14.7273  14.7822
    14.7871  14.8016  14.8024  14.8353  14.8623  14.8690  14.9051  14.9054
    14.9147  14.9175  14.9251  14.9490  14.9564  15.0061  15.0992  15.1111
    15.1152  15.1281  15.2536  15.2925  15.2971  15.3082  15.3482  15.3672
    15.3747  15.4010  15.4225  15.4371  15.4894  15.5490  15.5695  15.6153
    15.6652  15.6834  15.6950  15.7528  15.8242  15.8312  15.8627  15.9242
    15.9914  16.0369  16.0570  16.1256  16.2264  16.2488  16.2620  16.3172
    16.3606  16.4312  16.4346  16.4442  16.4620  16.5897  16.6049  16.6082
    16.6142  16.6282  16.6435  16.7265  16.7463  16.7667  16.7917  16.8030
    16.8214  16.8252  16.8304  16.8417  16.8772  16.9036  16.9793  17.0003
    17.0295  17.0803  17.0843  17.1283  17.1308  17.1643  17.1860  17.1998
    17.2655  17.2989  17.2989  17.3092  17.3205  17.3476  17.4302  17.4380
    17.4635  17.4822  17.4835  17.5615  17.6100  17.6130  17.6260  17.6308
    17.6644  17.6738  17.6936  17.7041

          k = 0.0000 0.0000 0.0376 ( 57088 PWs)   bands (ev):

   -20.5442 -20.4753 -20.3733 -20.2328 -20.0519 -19.8339 -19.5798 -19.2889
   -18.9609 -18.5907 -18.1866 -17.7519 -17.2881 -16.7995 -16.6431 -16.5778
   -16.4847 -16.3532 -16.2958 -16.1778 -15.9928 -15.7627 -15.7570 -15.4905
   -15.2826 -15.1775 -14.9388 -14.8049 -14.7110 -13.6466 -13.6024 -13.3310
   -13.2101 -12.9826 -12.9302 -12.9067 -12.8593 -12.7895 -12.7615 -12.6447
   -12.5465 -12.5035 -12.4746 -12.4171 -11.9251 -11.3923 -10.9662 -10.9177
   -10.8747 -10.7358 -10.6263 -10.5103 -10.3095 -10.1972 -10.0165  -9.9542
    -9.6187  -9.5436  -9.4770  -9.1748  -8.9554  -8.9506  -8.7419  -8.6051
    -8.5265  -8.4685  -8.4069  -8.3406  -8.2990  -8.2417  -8.0439  -8.0301
    -7.8713  -7.7756  -7.7652  -7.6792  -7.5272  -7.4797  -7.4583  -7.1428
    -7.1348  -7.0314  -6.7656  -6.6615  -6.5221  -6.3460  -6.2676  -6.0011
    -5.9077  -5.8924  -5.5826  -5.5425  -5.4101  -5.2953  -5.1863  -5.0445
    -4.9506  -4.9039  -4.8609  -4.7868  -4.6780  -4.5725  -4.3820  -4.2876
    -4.2119  -4.0969  -3.9385  -3.8572  -3.7373  -3.5050  -3.3441  -3.2392
    -2.9552  -2.8847  -2.6749  -2.5350  -2.4467  -2.3763  -0.0218   0.0847
     0.1067   0.3562   0.4309   0.6518   0.9019   0.9220   1.1432   1.3090
     1.4247   1.4606   1.4995   1.5429   1.5622   2.0343   2.0774   2.1574
     2.1891   2.3010   2.3923   2.5883   2.7349   2.7634   3.0404   3.2892
     3.4114   3.4331   3.5806   3.6302   3.6902   3.7859   3.9039   3.9194
     4.0114   4.1489   4.1818   4.2446   4.3800   4.4723   4.6942   4.7475
     4.7975   4.8702   4.9701   4.9988   5.0497   5.1656   5.2755   5.3153
     5.3843   5.4588   5.4886   5.5972   5.6932   5.7835   5.9614   6.0563
     6.1057   6.1700   6.3570   6.4057   6.4336   6.4866   6.5978   6.6151
     6.7177   6.8615   6.9026   6.9127   7.0237   7.0928   7.1803   7.2431
     7.2483   7.2807   7.2889   7.3057   7.3071   7.3416   7.3457   7.4431
     7.4562   7.5557   7.6135   7.6569   7.6662   7.6724   7.7167   7.7386
     7.8118   7.8258   7.8563   7.8941   7.9069   7.9634   7.9934   8.0450
     8.0848   8.1830   8.1892   8.2381   8.2628   8.2936   8.3078   8.4037
     8.4139   8.4635   8.4725   8.6352   8.7532   8.7534   8.7652   8.7667
     8.9000   8.9355   8.9678   9.0522   9.0604   9.0705   9.1276   9.1332
     9.1619   9.1786   9.2166   9.2343   9.2350   9.2417   9.2945   9.3951
     9.4014   9.4224   9.5075   9.5138   9.5160   9.5644   9.5977   9.6312
     9.6706   9.7025   9.7089   9.7673   9.7828   9.7829   9.7953   9.8049
     9.8630   9.8634   9.9534   9.9598   9.9600  10.0162  10.0585  10.0593
    10.0649  10.1353  10.1655  10.2213  10.3130  10.3252  10.3504  10.4064
    10.4134  10.4253  10.4390  10.4551  10.5070  10.5075  10.5955  10.7673
    10.8261  10.8594  10.8883  10.9080  10.9122  10.9415  10.9863  11.1073
    11.1652  11.2270  11.2648  11.2803  11.3436  11.3770  11.4061  11.4427
    11.5021  11.5153  11.5339  11.5964  11.6001  11.6370  11.6577  11.6984
    11.7026  11.7320  11.7885  11.8209  11.8467  11.8564  11.8801  11.9616
    11.9920  12.0034  12.0063  12.0390  12.0726  12.0801  12.0805  12.1569
    12.1635  12.1697  12.2585  12.3006  12.3111  12.3145  12.3150  12.3366
    12.3513  12.3969  12.3999  12.4972  12.5046  12.5201  12.5519  12.5579
    12.5656  12.5837  12.5959  12.6040  12.6205  12.6379  12.6448  12.6580
    12.6645  12.6740  12.6795  12.6854  12.6922  12.7567  12.7584  12.7954
    12.8068  12.9368  12.9581  12.9601  12.9905  13.0274  13.1314  13.1912
    13.2835  13.3403  13.3618  13.3757  13.3783  13.4439  13.5412  13.5547
    13.6986  13.7096  13.7611  13.7969  13.8653  13.9620  13.9916  14.1090
    14.1248  14.1379  14.1509  14.1969  14.2270  14.3158  14.3510  14.3525
    14.3613  14.4967  14.6007  14.6445  14.6760  14.6857  14.7052  14.7710
    14.7888  14.8204  14.9053  14.9144  14.9428  14.9515  15.0100  15.0155
    15.0261  15.0873  15.1326  15.1337  15.1404  15.1520  15.1793  15.1946
    15.2021  15.2103  15.2353  15.2529  15.2989  15.3307  15.3314  15.3843
    15.4199  15.4435  15.5422  15.5707  15.5920  15.6164  15.6257  15.6530
    15.6670  15.6960  15.7338  15.8253  15.9133  15.9648  15.9782  16.0190
    16.0299  16.0961  16.1768  16.1809  16.2353  16.2398  16.2652  16.3511
    16.3829  16.4479  16.4901  16.5210  16.5273  16.5583  16.5939  16.6003
    16.6338  16.6381  16.6481  16.6810  16.6822  16.7173  16.7269  16.7629
    16.7773  16.7811  16.8675  16.8743  16.8874  16.9368  16.9512  17.0111
    17.0185  17.0193  17.1032  17.1033  17.1513  17.1730  17.2233  17.2353
    17.2818  17.3154  17.3325  17.3483  17.3781  17.3875  17.3990  17.4380
    17.4532  17.4802  17.5240  17.5681  17.5861  17.5990  17.6276  17.6934
    17.7103  17.7156  17.7384  17.7713

          k = 0.0000 0.0000 0.0423 ( 57070 PWs)   bands (ev):

   -20.5040 -20.4351 -20.3331 -20.1928 -20.0119 -19.7941 -19.5401 -19.2494
   -18.9217 -18.5518 -18.1482 -17.7142 -17.2515 -16.8242 -16.7734 -16.7512
   -16.6638 -16.5303 -16.3742 -16.2468 -16.1653 -15.9273 -15.7573 -15.6406
   -15.3969 -15.2148 -15.0859 -14.8448 -14.8298 -13.7304 -13.6197 -13.4370
   -13.1900 -13.0137 -12.7435 -12.7293 -12.6916 -12.6203 -12.5460 -12.5312
   -12.4222 -12.3871 -12.3167 -12.2725 -12.0577 -11.5266 -10.9804 -10.8119
   -10.7513 -10.6394 -10.4966 -10.4397 -10.2700 -10.1370  -9.9784  -9.7889
    -9.6966  -9.4368  -9.4134  -9.0979  -9.0002  -8.9029  -8.6281  -8.5570
    -8.4785  -8.4424  -8.4132  -8.3589  -8.2023  -8.1940  -7.9935  -7.9827
    -7.8423  -7.7871  -7.7285  -7.6660  -7.4887  -7.4331  -7.3864  -7.2289
    -7.0968  -6.9903  -6.7206  -6.6791  -6.5811  -6.3022  -6.2626  -6.1059
    -5.9226  -5.8505  -5.6521  -5.6209  -5.3709  -5.3577  -5.2973  -5.1346
    -5.0662  -4.9809  -4.8834  -4.8688  -4.7615  -4.6500  -4.4525  -4.3782
    -4.3525  -4.2628  -4.1053  -3.9108  -3.8338  -3.6746  -3.4112  -3.3440
    -3.1281  -2.9169  -2.8434  -2.6262  -2.5917  -2.5042   0.0831   0.1387
     0.2446   0.4188   0.5289   0.8313   0.8605   1.1148   1.3451   1.3942
     1.5190   1.6406   1.7200   1.7666   1.7878   1.9978   2.0885   2.2114
     2.2441   2.3557   2.4473   2.6431   2.6463   2.8184   3.0952   3.3211
     3.3443   3.4872   3.6373   3.6848   3.7459   3.8402   3.9593   3.9746
     4.0435   4.0773   4.2366   4.2994   4.4345   4.5270   4.7491   4.7577
     4.8134   4.8515   5.0241   5.0529   5.1040   5.2198   5.3071   5.3690
     5.4301   5.5115   5.5258   5.5429   5.7465   5.8351   6.0044   6.1076
     6.1521   6.2127   6.2745   6.4092   6.4805   6.5078   6.5970   6.6324
     6.7507   6.9109   6.9229   6.9244   6.9747   7.0468   7.1637   7.1984
     7.2062   7.2306   7.2628   7.2985   7.3113   7.3533   7.3764   7.3818
     7.4068   7.4091   7.4757   7.4909   7.5361   7.5808   7.6297   7.6372
     7.6973   7.7105   7.8553   7.8636   7.9009   7.9313   7.9503   8.0091
     8.0406   8.0652   8.1435   8.1781   8.1856   8.2233   8.2886   8.3164
     8.3583   8.4094   8.4555   8.4996   8.5460   8.6191   8.6780   8.7376
     8.7571   8.7963   8.9059   8.9106   8.9168   8.9781   9.0123   9.0626
     9.0704   9.1017   9.1346   9.1404   9.1482   9.1652   9.2005   9.2150
     9.2320   9.2891   9.3182   9.3331   9.4230   9.4783   9.4994   9.5093
     9.5442   9.6362   9.6493   9.6750   9.7414   9.7508   9.7746   9.8165
     9.8333   9.8475   9.9107   9.9140   9.9477  10.0083  10.0189  10.0396
    10.1079  10.1608  10.1692  10.2124  10.2157  10.2214  10.2237  10.2595
    10.3120  10.3397  10.3606  10.3921  10.3948  10.4309  10.5382  10.5509
    10.6116  10.6635  10.7107  10.8420  10.9388  10.9582  10.9593  10.9974
    11.0130  11.0753  11.2764  11.2933  11.3234  11.3369  11.3378  11.3384
    11.4683  11.4794  11.5063  11.5805  11.5931  11.6341  11.6506  11.6532
    11.6849  11.7243  11.7255  11.7824  11.8369  11.8728  11.9300  11.9474
    11.9816  12.0122  12.0244  12.0462  12.0785  12.0926  12.1067  12.1708
    12.1765  12.2485  12.2500  12.2693  12.3028  12.3362  12.3576  12.3716
    12.3808  12.3892  12.4158  12.4672  12.4884  12.5032  12.5098  12.5121
    12.5670  12.6354  12.6405  12.6682  12.6720  12.6994  12.7189  12.7225
    12.7521  12.7536  12.7786  12.7889  12.8787  12.8918  12.9008  12.9011
    12.9405  13.0049  13.0417  13.0472  13.1016  13.1301  13.1574  13.1786
    13.1837  13.2973  13.3584  13.4258  13.4363  13.5069  13.5089  13.5357
    13.6809  13.7270  13.7450  13.7622  13.8256  13.9262  14.0360  14.0364
    14.1198  14.1433  14.1949  14.2247  14.2491  14.3078  14.3229  14.3374
    14.4091  14.4674  14.5018  14.6271  14.7240  14.7326  14.7899  14.8015
    14.8424  14.8747  14.8914  14.9657  14.9778  14.9906  15.0459  15.0737
    15.1132  15.1209  15.1461  15.1796  15.1976  15.2668  15.2795  15.2915
    15.3259  15.3391  15.4273  15.4287  15.4462  15.4513  15.4569  15.4887
    15.4949  15.5000  15.5441  15.5655  15.5770  15.6177  15.6536  15.7908
    15.8039  15.8279  15.8567  15.8665  15.9895  16.0263  16.0571  16.0725
    16.0986  16.1341  16.1409  16.2217  16.2275  16.2743  16.3384  16.3813
    16.4252  16.4421  16.4945  16.4983  16.5160  16.5174  16.5829  16.6012
    16.6071  16.6094  16.6151  16.6225  16.6638  16.7332  16.7553  16.7565
    16.7775  16.8019  16.8819  16.9386  16.9556  16.9876  16.9977  17.0385
    17.0483  17.0855  17.1187  17.1261  17.1818  17.1938  17.2073  17.2544
    17.2568  17.3047  17.3116  17.3407  17.3647  17.3744  17.4154  17.4457
    17.4550  17.4673  17.5343  17.6326  17.6422  17.6568  17.6682  17.7496
    17.7542  17.7604  17.7905  17.8415

          k = 0.0000 0.0000 0.0469 ( 57146 PWs)   bands (ev):

   -20.4590 -20.3902 -20.2883 -20.1480 -19.9673 -19.7496 -19.4959 -19.2054
   -18.8779 -18.5085 -18.1054 -17.6722 -17.2114 -17.0026 -16.9376 -16.8405
   -16.7460 -16.6878 -16.5433 -16.3363 -16.2277 -16.0866 -15.8559 -15.6814
   -15.5530 -15.2374 -15.2114 -14.9544 -14.8932 -13.7978 -13.6719 -13.4937
   -13.2504 -13.0389 -12.7709 -12.5612 -12.4989 -12.4497 -12.3808 -12.3140
   -12.2791 -12.1968 -12.1556 -12.1042 -12.0918 -11.6604 -11.1041 -10.6537
   -10.6168 -10.5328 -10.4743 -10.3208 -10.2060  -9.9887  -9.9550  -9.7516
    -9.6203  -9.4157  -9.2572  -9.1692  -8.8748  -8.8672  -8.5826  -8.5032
    -8.4651  -8.4249  -8.3663  -8.3054  -8.1407  -8.1059  -7.9450  -7.9390
    -7.9297  -7.7018  -7.6760  -7.6258  -7.4505  -7.3811  -7.3335  -7.3171
    -7.0455  -6.9436  -6.7775  -6.6703  -6.5732  -6.2896  -6.2534  -6.1963
    -5.9519  -5.8038  -5.7688  -5.6726  -5.4332  -5.4229  -5.3274  -5.2358
    -5.2068  -5.1008  -4.9856  -4.8502  -4.8300  -4.7339  -4.6221  -4.5473
    -4.4331  -4.3252  -4.2729  -4.0808  -3.8474  -3.8168  -3.5844  -3.3524
    -3.2937  -3.0277  -2.9367  -2.7765  -2.6826  -2.6345   0.1873   0.1897
     0.3915   0.4124   0.6984   0.8109   1.0205   1.3064   1.3305   1.5530
     1.7364   1.8649   1.9141   1.9508   2.0012   2.0247   2.1491   2.2718
     2.3055   2.4167   2.5089   2.5518   2.7044   2.8799   3.1564   3.2220
     3.4060   3.5475   3.6938   3.7458   3.8097   3.8986   3.9590   4.0209
     4.0364   4.1305   4.2978   4.3596   4.4953   4.5880   4.6576   4.8103
     4.8676   4.9105   5.0844   5.1132   5.1646   5.2805   5.2942   5.4290
     5.4772   5.4964   5.5697   5.6036   5.8051   5.8917   6.0454   6.1460
     6.1668   6.1964   6.3033   6.3837   6.5139   6.5231   6.5867   6.6601
     6.7856   6.7938   6.9295   6.9926   6.9935   7.0382   7.1075   7.1433
     7.1556   7.1768   7.1872   7.2053   7.2475   7.2810   7.2938   7.3246
     7.3720   7.3944   7.4156   7.4176   7.4399   7.4498   7.4680   7.4766
     7.6780   7.6956   7.7076   7.7486   7.8250   7.9085   7.9326   7.9556
     8.0207   8.0306   8.0429   8.1420   8.1877   8.2336   8.2530   8.2924
     8.3087   8.3358   8.3760   8.4350   8.5021   8.5055   8.5672   8.5981
     8.6094   8.6657   8.6923   8.7500   8.8015   8.8317   8.8641   8.8835
     8.9666   8.9708   9.0017   9.0358   9.0381   9.1132   9.1342   9.1611
     9.2191   9.2499   9.2666   9.3007   9.3176   9.3355   9.3852   9.3859
     9.4397   9.4625   9.4888   9.6085   9.6373   9.6392   9.7052   9.8120
     9.8213   9.8225   9.8899   9.9079   9.9245   9.9473   9.9741   9.9753
    10.0154  10.0862  10.0918  10.1197  10.1671  10.1732  10.2075  10.2434
    10.2649  10.2742  10.3068  10.3116  10.3663  10.4240  10.4398  10.4554
    10.4703  10.6000  10.6103  10.6473  10.7464  10.8519  10.9098  10.9644
    11.0123  11.0273  11.1517  11.2193  11.2586  11.2927  11.3035  11.3610
    11.3811  11.3887  11.4841  11.4930  11.5193  11.5912  11.6484  11.7099
    11.7119  11.7331  11.7519  11.7595  11.8099  11.8468  11.9840  11.9861
    11.9890  12.0073  12.0419  12.0821  12.0829  12.0935  12.1258  12.1816
    12.2111  12.2267  12.2709  12.2737  12.2865  12.3204  12.3658  12.3675
    12.3762  12.4106  12.4178  12.4295  12.4399  12.4710  12.4875  12.5060
    12.5397  12.5724  12.6304  12.7010  12.7145  12.7563  12.7753  12.7788
    12.8247  12.8330  12.8592  12.8964  12.9338  13.0084  13.0603  13.0741
    13.0973  13.1080  13.1150  13.1473  13.1882  13.1887  13.2012  13.2319
    13.3023  13.3033  13.3099  13.3842  13.4807  13.5134  13.5190  13.5415
    13.6292  13.6296  13.6983  13.7861  13.8125  13.9360  13.9682  14.0422
    14.0493  14.1035  14.1989  14.2860  14.3011  14.3020  14.3436  14.3692
    14.4280  14.4674  14.4832  14.6919  14.7167  14.7388  14.7403  14.7964
    14.8265  14.9040  14.9203  14.9993  15.0340  15.0407  15.0813  15.1414
    15.1566  15.1900  15.2060  15.3481  15.3541  15.3612  15.3620  15.3808
    15.3926  15.4150  15.4194  15.4578  15.4896  15.4981  15.5686  15.5820
    15.5856  15.6052  15.6429  15.6694  15.6894  15.7697  15.8367  15.8594
    15.8704  15.8901  15.9244  15.9817  15.9941  16.0435  16.0666  16.0830
    16.0895  16.1249  16.1721  16.2011  16.2298  16.2843  16.3357  16.4077
    16.4239  16.4479  16.4481  16.4978  16.5247  16.5321  16.5515  16.5793
    16.5817  16.6333  16.6391  16.6394  16.7347  16.7572  16.7824  16.7941
    16.7955  16.8508  16.9259  16.9277  16.9845  17.0508  17.0964  17.1070
    17.1139  17.1349  17.1368  17.1969  17.2024  17.2321  17.2394  17.2577
    17.2994  17.3178  17.3687  17.3722  17.3844  17.3920  17.4291  17.4499
    17.4843  17.5354  17.5846  17.5992  17.6692  17.6777  17.7028  17.7494
    17.7617  17.7847  17.7999  17.8118

          k = 0.0000 0.0000 0.0516 ( 57158 PWs)   bands (ev):

   -20.4094 -20.3406 -20.2388 -20.0986 -19.9180 -19.7005 -19.4470 -19.1567
   -18.8296 -18.4606 -18.0582 -17.6262 -17.1805 -17.1668 -17.1123 -17.0128
   -16.8874 -16.7134 -16.6829 -16.5006 -16.2934 -16.1518 -16.0124 -15.7109
   -15.6617 -15.3863 -15.2139 -15.0760 -14.9558 -13.8465 -13.7628 -13.4966
   -13.3657 -13.0058 -12.8900 -12.5010 -12.3739 -12.2518 -12.2044 -12.1391
   -12.0957 -12.0526 -11.9747 -11.9247 -11.8962 -11.7789 -11.2339 -10.6657
   -10.4750 -10.4551 -10.2949 -10.2247 -10.0496 -10.0408  -9.8121  -9.7069
    -9.4531  -9.4471  -9.1982  -9.0998  -8.8617  -8.7342  -8.6389  -8.4439
    -8.3657  -8.3561  -8.3300  -8.2464  -8.0819  -8.0805  -7.9606  -7.8972
    -7.8712  -7.6250  -7.6179  -7.5787  -7.4667  -7.3765  -7.3237  -7.2550
    -6.9889  -6.9043  -6.8930  -6.6149  -6.5621  -6.3810  -6.2400  -6.1997
    -6.0012  -5.8873  -5.7524  -5.7390  -5.5617  -5.5225  -5.3679  -5.3478
    -5.2795  -5.2218  -5.0925  -4.9440  -4.8235  -4.7957  -4.7870  -4.7200
    -4.6056  -4.4522  -4.2858  -4.2544  -4.0213  -3.8062  -3.7490  -3.4837
    -3.3376  -3.1954  -2.9765  -2.9348  -2.7694  -2.7664   0.2402   0.2966
     0.4104   0.5374   0.7667   0.8676   1.2061   1.2527   1.5128   1.7638
     1.8264   1.9598   2.0985   2.1897   2.2159   2.2447   2.2709   2.3384
     2.3735   2.4527   2.4842   2.5768   2.7721   2.9480   3.1165   3.2240
     3.4741   3.6141   3.7244   3.8132   3.8800   3.8851   3.9719   4.0884
     4.1046   4.1975   4.3652   4.4211   4.5523   4.5624   4.6555   4.8780
     4.9336   4.9717   5.1507   5.1794   5.2208   5.2316   5.3475   5.4950
     5.5204   5.5292   5.6328   5.6707   5.8671   5.9509   6.0491   6.0766
     6.2077   6.2332   6.3508   6.3706   6.4843   6.5296   6.6200   6.6677
     6.7035   6.7944   6.9013   6.9256   6.9380   7.0170   7.0390   7.0680
     7.0900   7.1076   7.1088   7.1253   7.1507   7.2215   7.2372   7.2450
     7.2847   7.3006   7.3493   7.4027   7.4316   7.4446   7.4490   7.4598
     7.4910   7.5321   7.6636   7.6967   7.7616   7.8032   7.8234   7.8893
     7.9468   7.9944   8.0420   8.0861   8.0960   8.1832   8.1995   8.2562
     8.3122   8.3656   8.3763   8.3894   8.4106   8.4331   8.4506   8.4735
     8.5074   8.5091   8.5966   8.6039   8.6273   8.6371   8.7488   8.7919
     8.8101   8.8365   8.8628   8.8639   8.9088   9.0392   9.0955   9.1467
     9.1761   9.1803   9.2098   9.2206   9.2320   9.2617   9.2962   9.3170
     9.3287   9.3643   9.4547   9.4871   9.5068   9.5816   9.6301   9.6495
     9.6807   9.6947   9.7310   9.8477   9.8833   9.9014   9.9085   9.9176
     9.9525   9.9960  10.0665  10.0684  10.1004  10.1293  10.1782  10.2051
    10.2339  10.2628  10.3039  10.3221  10.3259  10.3469  10.3879  10.4346
    10.5036  10.5226  10.5305  10.5887  10.6496  10.6541  10.7418  10.9686
    10.9884  10.9923  11.0680  11.1477  11.1890  11.2042  11.2054  11.2142
    11.2692  11.4265  11.4328  11.4695  11.5065  11.5269  11.6677  11.7099
    11.7203  11.7737  11.7783  11.7981  11.8494  11.9028  11.9093  11.9699
    11.9785  11.9806  12.0289  12.0591  12.1045  12.1201  12.1699  12.1981
    12.2113  12.2161  12.2472  12.2632  12.3019  12.3156  12.3208  12.3295
    12.3385  12.3531  12.4162  12.4477  12.4899  12.4956  12.5104  12.5194
    12.5274  12.5507  12.7070  12.7321  12.7614  12.7928  12.7993  12.8350
    12.8450  12.8453  12.9089  12.9383  12.9750  12.9776  13.0561  13.0932
    13.1117  13.1304  13.1514  13.2011  13.2073  13.2870  13.3538  13.3602
    13.4458  13.4502  13.4818  13.4828  13.4902  13.5099  13.5285  13.5581
    13.5860  13.5933  13.6252  13.6866  13.8443  13.8672  13.9751  13.9873
    14.0636  14.0794  14.1623  14.3085  14.3142  14.3237  14.3282  14.3885
    14.4594  14.5101  14.5552  14.5609  14.6405  14.7565  14.7584  14.8211
    14.8705  14.9230  15.0165  15.0947  15.1024  15.1069  15.1589  15.1800
    15.2079  15.2173  15.2816  15.3435  15.3463  15.3533  15.4436  15.4471
    15.4750  15.4860  15.5183  15.5451  15.5599  15.5758  15.6158  15.6368
    15.6702  15.7115  15.7407  15.7544  15.7667  15.8485  15.8942  15.8972
    15.9170  15.9374  16.0093  16.0138  16.0486  16.0571  16.0651  16.0983
    16.1402  16.1480  16.1652  16.2103  16.2258  16.2444  16.2594  16.3450
    16.4551  16.4582  16.4735  16.4885  16.5583  16.5688  16.5691  16.5994
    16.6376  16.6722  16.6763  16.7099  16.7492  16.7705  16.8142  16.8502
    16.8730  16.9018  16.9487  17.0151  17.0229  17.0465  17.0935  17.1520
    17.1654  17.2009  17.2336  17.2366  17.2723  17.2740  17.2747  17.3437
    17.3566  17.3813  17.3865  17.4286  17.4296  17.4611  17.4919  17.4960
    17.5808  17.6033  17.6066  17.6243  17.6370  17.7195  17.7208  17.7480
    17.7568  17.7849  17.8414  17.8504

          k = 0.0000 0.0000 0.0563 ( 57166 PWs)   bands (ev):

   -20.3551 -20.2864 -20.1846 -20.0445 -19.8641 -19.6467 -19.3934 -19.1035
   -18.7768 -18.4083 -18.0068 -17.5766 -17.3505 -17.2836 -17.1945 -17.1124
   -17.0551 -16.8790 -16.7042 -16.6028 -16.4469 -16.1713 -16.1255 -15.8640
   -15.6505 -15.5179 -15.2660 -15.1551 -15.0331 -13.8776 -13.8603 -13.4876
   -13.4779 -13.0176 -12.9619 -12.4971 -12.4340 -12.0015 -11.9900 -11.9543
   -11.9534 -11.8923 -11.8172 -11.7369 -11.7204 -11.6894 -11.3606 -10.7856
   -10.3354 -10.2753 -10.1718 -10.1214 -10.0776  -9.8584  -9.7176  -9.5639
    -9.5339  -9.2916  -9.1614  -8.9466  -8.9154  -8.6434  -8.5947  -8.3791
    -8.3293  -8.3009  -8.2373  -8.1818  -8.1297  -8.0175  -7.8757  -7.8539
    -7.8072  -7.6085  -7.5545  -7.5278  -7.5059  -7.3332  -7.2609  -7.2046
    -7.0098  -6.9271  -6.8755  -6.5608  -6.5543  -6.5017  -6.2720  -6.1409
    -6.0869  -5.9912  -5.8228  -5.7103  -5.6964  -5.6272  -5.5425  -5.4700
    -5.3465  -5.2276  -5.2031  -5.0423  -4.9689  -4.9179  -4.8941  -4.7850
    -4.7372  -4.6260  -4.4286  -4.2568  -4.1889  -3.9402  -3.7679  -3.6549
    -3.3636  -3.3428  -3.0920  -3.0195  -2.8982  -2.8599   0.2978   0.3897
     0.4281   0.6774   0.7290   1.0352   1.1814   1.3920   1.7143   1.7327
     1.9824   2.1874   2.2891   2.3366   2.3490   2.4112   2.4365   2.4478
     2.4956   2.5250   2.5580   2.6513   2.8462   3.0058   3.0225   3.2981
     3.5486   3.6666   3.6868   3.8871   3.9076   3.9548   4.0445   4.1602
     4.1793   4.2714   4.4122   4.4388   4.5220   4.6359   4.7293   4.9518
     5.0063   5.0152   5.1408   5.2228   5.2513   5.3050   5.4208   5.5468
     5.5667   5.5908   5.6988   5.7440   5.9231   5.9661   5.9969   6.0926
     6.1354   6.3063   6.3785   6.4393   6.4458   6.4992   6.5350   6.6637
     6.6770   6.7268   6.7564   6.8146   6.8621   6.9206   6.9390   6.9894
     7.0115   7.0677   7.0971   7.1079   7.1230   7.1676   7.1852   7.1955
     7.2354   7.2384   7.2719   7.3533   7.3630   7.4175   7.4595   7.4779
     7.4816   7.5051   7.5281   7.5607   7.6687   7.6808   7.7450   7.8165
     7.8412   7.9102   8.0284   8.0581   8.0643   8.0759   8.0964   8.1780
     8.1818   8.1984   8.2391   8.2694   8.3697   8.3708   8.3819   8.4428
     8.4448   8.4520   8.5366   8.5656   8.5738   8.6111   8.6231   8.6408
     8.6559   8.7155   8.7706   8.8321   8.8782   8.9144   8.9212   8.9810
     9.0053   9.0316   9.0771   9.1569   9.1807   9.2527   9.2760   9.3609
     9.3750   9.3801   9.3826   9.3980   9.4016   9.4224   9.4302   9.4739
     9.5224   9.5841   9.6167   9.7092   9.7681   9.8487   9.8633   9.8661
     9.8983   9.9118   9.9198   9.9528  10.0208  10.1039  10.1338  10.2291
    10.2668  10.2931  10.2947  10.3102  10.3289  10.3481  10.3703  10.3730
    10.4187  10.4747  10.5548  10.5697  10.5828  10.6149  10.7131  10.7793
    10.8212  10.9356  11.0115  11.0205  11.1151  11.1626  11.1793  11.1997
    11.2483  11.2895  11.3244  11.4325  11.5237  11.5683  11.6471  11.6883
    11.7105  11.7858  11.8222  11.8411  11.8505  11.8988  11.9050  11.9771
    11.9788  11.9792  12.0390  12.0501  12.0949  12.1051  12.1308  12.1604
    12.1635  12.2325  12.2388  12.2637  12.2693  12.2717  12.2808  12.3372
    12.3593  12.3956  12.4177  12.4390  12.5009  12.5233  12.5450  12.5529
    12.5876  12.6143  12.6725  12.6912  12.7506  12.8091  12.8510  12.8772
    12.8903  12.9004  12.9125  12.9168  12.9669  12.9951  13.0415  13.0732
    13.0951  13.1742  13.1901  13.2219  13.2300  13.2373  13.3785  13.4173
    13.4304  13.4353  13.4976  13.5360  13.5535  13.5589  13.6203  13.6282
    13.6669  13.6958  13.7309  13.7798  13.8865  13.9071  13.9096  13.9167
    14.0285  14.1351  14.2235  14.2472  14.2774  14.3466  14.3619  14.3631
    14.4088  14.4370  14.5295  14.5523  14.6108  14.8060  14.8151  14.8898
    14.9277  14.9394  15.0576  15.1364  15.1402  15.1708  15.2012  15.2611
    15.2657  15.2906  15.3035  15.3146  15.3167  15.3741  15.4154  15.4903
    15.5438  15.5545  15.6169  15.6241  15.6435  15.6573  15.6794  15.7017
    15.7064  15.7236  15.7393  15.7513  15.8100  15.8312  15.8822  15.9093
    15.9440  15.9572  15.9732  16.0066  16.0233  16.0457  16.1169  16.1192
    16.1465  16.2062  16.2562  16.2787  16.3060  16.3227  16.3334  16.3948
    16.4208  16.4533  16.5104  16.5505  16.5598  16.5842  16.6177  16.6232
    16.6612  16.7318  16.7418  16.7418  16.7579  16.7791  16.8549  16.8712
    16.9049  16.9562  17.0194  17.0260  17.0915  17.1367  17.1813  17.1904
    17.1920  17.2129  17.2441  17.2902  17.3164  17.3183  17.3941  17.4252
    17.4602  17.4787  17.4868  17.4933  17.5016  17.5474  17.5675  17.6008
    17.6036  17.6230  17.6522  17.6581  17.7006  17.7079  17.7616  17.8289
    17.8396  17.8931  17.9056  17.9470

          k = 0.0000 0.0000 0.0610 ( 57168 PWs)   bands (ev):

   -20.2960 -20.2274 -20.1257 -19.9857 -19.8055 -19.5884 -19.3353 -19.0458
   -18.7195 -18.3517 -17.9513 -17.5265 -17.5189 -17.4488 -17.3567 -17.2199
   -17.0936 -17.0164 -16.8500 -16.6051 -16.5757 -16.3249 -16.1117 -15.9905
   -15.7264 -15.5588 -15.3841 -15.1772 -15.1231 -13.9491 -13.8960 -13.6018
   -13.4557 -13.1371 -12.9232 -12.6138 -12.3768 -12.0613 -11.8905 -11.7485
   -11.7042 -11.6476 -11.5813 -11.5695 -11.5224 -11.5066 -11.4389 -10.9093
   -10.3274 -10.1186 -10.0875 -10.0119  -9.9000  -9.6913  -9.6369  -9.6147
    -9.3919  -9.1644  -9.0674  -9.0139  -8.7920  -8.6033  -8.4620  -8.3924
    -8.3087  -8.2306  -8.1221  -8.1215  -8.1117  -7.9477  -7.8379  -7.7847
    -7.7378  -7.6696  -7.4856  -7.4752  -7.4530  -7.2784  -7.1928  -7.1900
    -7.1014  -6.8600  -6.8597  -6.6304  -6.5719  -6.4886  -6.3129  -6.2144
    -6.0773  -6.0754  -5.9351  -5.8567  -5.7616  -5.7129  -5.6358  -5.6010
    -5.4754  -5.3167  -5.1724  -5.1445  -5.1434  -5.0678  -5.0164  -4.9562
    -4.8002  -4.6948  -4.5993  -4.3761  -4.2051  -4.1119  -3.8255  -3.7485
    -3.5290  -3.3519  -3.2444  -3.0738  -3.0232  -2.9540   0.3598   0.4105
     0.5246   0.6793   0.8315   1.1044   1.2077   1.5751   1.6432   1.9167
     2.2002   2.2417   2.3684   2.4209   2.4903   2.5287   2.5791   2.6382
     2.6870   2.7322   2.7521   2.7854   2.8917   2.9268   3.1035   3.3787
     3.5594   3.6297   3.7656   3.9673   3.9803   4.0280   4.1244   4.2239
     4.2605   4.3258   4.3516   4.5184   4.5936   4.7157   4.8094   4.9539
     5.0319   5.0852   5.1587   5.2997   5.3284   5.3848   5.5005   5.5315
     5.6421   5.6642   5.7598   5.8228   5.9086   5.9247   5.9736   6.0875
     6.1356   6.3466   6.3823   6.4011   6.4294   6.4450   6.4528   6.5272
     6.5799   6.6640   6.7311   6.7586   6.8032   6.8205   6.8763   6.9434
     6.9545   6.9614   6.9724   6.9862   7.1135   7.1255   7.1970   7.2123
     7.2377   7.2394   7.2663   7.2921   7.2979   7.3188   7.3652   7.4787
     7.4985   7.5034   7.5095   7.5263   7.5428   7.5995   7.6226   7.6763
     7.7831   7.8231   7.8825   7.9494   7.9561   7.9951   8.0087   8.0210
     8.1162   8.1219   8.1494   8.1661   8.1860   8.1903   8.2652   8.3648
     8.3681   8.4131   8.4283   8.5164   8.5248   8.5326   8.5599   8.6540
     8.6848   8.6991   8.7428   8.7846   8.7851   8.8100   8.8245   8.8273
     8.9249   8.9527   8.9738   8.9739   9.1653   9.1724   9.1935   9.2235
     9.2317   9.2403   9.3092   9.3177   9.3442   9.3643   9.4073   9.4669
     9.4680   9.5091   9.5531   9.6032   9.6556   9.6635   9.7238   9.7636
     9.7848   9.7871   9.8715   9.9439  10.0274  10.0556  10.0950  10.0957
    10.2047  10.2103  10.3067  10.3380  10.3416  10.3926  10.3983  10.4055
    10.4225  10.4534  10.4845  10.5182  10.6150  10.6332  10.6505  10.6947
    10.7578  10.7784  10.8399  11.0091  11.0344  11.0933  11.1302  11.1593
    11.2354  11.2428  11.2977  11.3888  11.4614  11.5739  11.6130  11.6138
    11.6841  11.7714  11.8297  11.8654  11.8941  11.9105  11.9369  11.9945
    11.9950  11.9975  12.0004  12.0382  12.0531  12.0730  12.0936  12.1752
    12.1784  12.1860  12.1936  12.2145  12.2431  12.3030  12.3320  12.3333
    12.3381  12.4398  12.4663  12.4664  12.4907  12.5045  12.5173  12.5779
    12.6411  12.6547  12.6782  12.7054  12.7640  12.7913  12.7939  12.8407
    12.8582  12.9195  12.9773  12.9871  12.9965  13.0113  13.0573  13.0780
    13.0892  13.1218  13.1509  13.2055  13.2467  13.2546  13.2621  13.2953
    13.3497  13.4792  13.4939  13.5771  13.6150  13.6398  13.7095  13.7443
    13.7731  13.7934  13.8331  13.8723  13.8990  13.9638  13.9822  14.0035
    14.0820  14.1126  14.1892  14.1938  14.3072  14.3368  14.3499  14.3828
    14.3972  14.4177  14.5196  14.5506  14.6781  14.7663  14.8028  14.8199
    14.9622  15.0443  15.0490  15.1032  15.1232  15.1866  15.2096  15.2533
    15.2792  15.2840  15.3258  15.4036  15.4286  15.4669  15.4771  15.4924
    15.5383  15.5446  15.5608  15.6027  15.6217  15.6560  15.6999  15.7114
    15.7284  15.7326  15.7373  15.7643  15.8088  15.8646  15.9016  15.9244
    15.9375  15.9489  15.9955  16.0682  16.0922  16.1094  16.1308  16.1430
    16.1764  16.2037  16.2757  16.3222  16.3552  16.3855  16.4458  16.4470
    16.4676  16.4902  16.4922  16.5375  16.5477  16.6200  16.6703  16.6979
    16.7242  16.7801  16.8222  16.8235  16.8331  16.8693  16.9057  16.9579
    16.9840  16.9852  17.0342  17.0990  17.1061  17.1112  17.2290  17.2491
    17.2605  17.3066  17.3297  17.3304  17.3486  17.3598  17.4155  17.4311
    17.4712  17.5443  17.5752  17.5968  17.6162  17.6274  17.6367  17.6855
    17.6962  17.7326  17.7821  17.8223  17.8332  17.8357  17.8389  17.9368
    17.9428  17.9682  17.9842  18.0173

          k = 0.0000 0.0000 0.0657 ( 57162 PWs)   bands (ev):

   -20.2324 -20.1637 -20.0622 -19.9223 -19.7423 -19.5254 -19.2727 -18.9835
   -18.6578 -18.2908 -17.8924 -17.6835 -17.6192 -17.5192 -17.4716 -17.3739
   -17.2195 -17.0066 -17.0006 -16.7582 -16.5589 -16.4468 -16.2063 -16.0021
   -15.8622 -15.5381 -15.5156 -15.2223 -15.1965 -14.0228 -13.9145 -13.6945
   -13.4522 -13.2276 -12.9179 -12.6924 -12.3606 -12.1334 -11.8244 -11.5904
   -11.4934 -11.4507 -11.4305 -11.3931 -11.3336 -11.2812 -11.2691 -11.0250
   -10.4365  -9.9552  -9.9275  -9.8973  -9.7132  -9.7066  -9.5556  -9.4715
    -9.2238  -9.1081  -9.0826  -8.9221  -8.6493  -8.5427  -8.4978  -8.3252
    -8.2328  -8.1549  -8.0761  -8.0362  -8.0153  -7.8959  -7.8725  -7.7001
    -7.6659  -7.6630  -7.4295  -7.4114  -7.3955  -7.2685  -7.2189  -7.1193
    -7.1019  -6.8634  -6.7877  -6.7574  -6.5971  -6.4179  -6.3666  -6.3620
    -6.1609  -6.0917  -6.0088  -5.9839  -5.9494  -5.8526  -5.7398  -5.6080
    -5.5709  -5.4328  -5.3173  -5.2499  -5.2438  -5.1297  -5.1182  -5.1119
    -4.9720  -4.7818  -4.6336  -4.5471  -4.2825  -4.1680  -3.9923  -3.7419
    -3.6780  -3.4184  -3.3399  -3.1780  -3.1026  -3.0511   0.4238   0.4260
     0.6354   0.6442   0.9746   1.0352   1.3727   1.5444   1.7659   2.1097
     2.1440   2.4192   2.4540   2.5755   2.6160   2.6542   2.7249   2.7693
     2.8196   2.8291   2.9422   3.0138   3.0147   3.0508   3.1910   3.4394
     3.4658   3.7173   3.8504   4.0539   4.0595   4.0681   4.2108   4.2177
     4.3483   4.3521   4.4381   4.6040   4.6789   4.7997   4.8371   4.8957
     5.1178   5.1696   5.2320   5.3777   5.4100   5.4601   5.4707   5.5860
     5.6999   5.7431   5.7793   5.7835   5.9111   5.9402   5.9408   6.1362
     6.1440   6.2096   6.2264   6.2579   6.3502   6.4661   6.4727   6.5186
[...]
     4.4405   4.5120   4.5170   4.6057   4.6510   4.7159   4.7810   4.8049
     4.8208   4.9017   4.9818   4.9914   5.0924   5.1000   5.1092   5.1631
     5.1772   5.2375   5.2847   5.2898   5.3585   5.3658   5.3760   5.5372
     5.6194   5.6206   5.6908   5.7042   5.7965   5.8354   5.9412   6.0483
     6.0504   6.1012   6.1130   6.1533   6.1892   6.2143   6.2543   6.3014
     6.3233   6.3367   6.3632   6.3776   6.3818   6.3848   6.4753   6.4817
     6.4950   6.5052   6.5844   6.6086   6.6403   6.6554   6.6768   6.7073
     6.7113   6.7580   6.7685   6.7931   6.8170   6.8455   6.8892   6.9304
     6.9336   6.9741   6.9861   7.0380   7.0608   7.0876   7.1146   7.1614
     7.1692   7.2312   7.2546   7.3019   7.3593   7.3658   7.3865   7.3894
     7.4286   7.4764   7.5158   7.5244   7.6288   7.6383   7.6547   7.6586
     7.6669   7.7594   7.7807   7.8302   7.8473   7.8603   7.9229   8.0257
     8.0368   8.0584   8.0867   8.1128   8.2459   8.2733   8.3038   8.3046
     8.3121   8.3423   8.3810   8.4239   8.4292   8.5101   8.6057   8.6316
     8.7777   8.7882   8.8167   8.8768   8.9321   9.0169   9.0589   9.1631
     9.1713   9.2262   9.2289   9.2535   9.2631   9.2888   9.3229   9.4840
     9.5570   9.6039   9.7061   9.7148   9.7371   9.9323   9.9619  10.0000
    10.1295  10.1336  10.1827  10.2470  10.3264  10.3423  10.3598  10.3771
    10.4852  10.4931  10.5035  10.5308  10.5313  10.5632  10.6739  10.7142
    10.7320  10.7701  10.9425  10.9572  11.0022  11.0170  11.0373  11.0901
    11.1141  11.2018  11.2181  11.2403  11.2570  11.2807  11.3169  11.3628
    11.4394  11.4652  11.4865  11.4996  11.5053  11.5951  11.6261  11.6532
    11.6553  11.7330  11.7460  11.7580  11.8098  11.8379  11.8437  11.9281
    11.9700  12.0236  12.0392  12.0687  12.0919  12.1719  12.2568  12.3572
    12.3876  12.4191  12.4621  12.4648  12.5113  12.5303  12.5473  12.5986
    12.6171  12.6473  12.6507  12.6522  12.6844  12.7187  12.7503  12.7571
    12.8393  12.9053  12.9101  12.9213  12.9300  12.9705  12.9948  13.0712
    13.1459  13.1744  13.2053  13.3206  13.3707  13.3745  13.3821  13.4242
    13.4296  13.5471  13.5600  13.6418  13.6433  13.6880  13.7146  13.7496
    13.7569  13.7651  13.8305  13.9162  13.9467  13.9684  13.9753  14.0569
    14.0863  14.1326  14.2336  14.3042  14.3242  14.3334  14.4503  14.5030
    14.5133  14.5311  14.6527  14.7265  14.7699  14.7780  14.8485  14.8769
    14.8979  14.9022  14.9189  14.9215  14.9418  14.9435  15.0462  15.1126
    15.1167  15.1193  15.2314  15.2511  15.2721  15.2931  15.3126  15.3155
    15.3725  15.3911  15.4834  15.5056  15.5857  15.6170  15.6229  15.6245
    15.6990  15.7026  15.7968  15.8062  15.8739  15.9641  15.9834  15.9997
    16.0124  16.0432  16.1469  16.1528  16.1557  16.2435  16.2441  16.2834
    16.3196  16.4176  16.4341  16.5580  16.6061  16.6386  16.6433  16.6686
    16.7777  16.8275  16.8290  16.8620  16.9352  16.9411  16.9606  16.9728
    16.9974  17.0053  17.2137  17.2600  17.2788  17.2832  17.3048  17.3139
    17.3212  17.3800  17.4121  17.4136  17.4369  17.4776  17.5161  17.5176
    17.5682  17.5914  17.6086  17.6163  17.6406  17.6999  17.7059  17.7446
    17.7858  17.8010  17.8155  17.9152  17.9221  17.9432  17.9736  18.0871
    18.1027  18.1238  18.2379  18.3370  18.3386  18.3526  18.3811  18.4021
    18.5034  18.5234  18.5579  18.5887

          k = 0.0000 0.0000 0.1080 ( 57204 PWs)   bands (ev):

   -19.4508 -19.3830 -19.2829 -19.1454 -18.9856 -18.9686 -18.9182 -18.8189
   -18.7595 -18.6789 -18.5373 -18.4749 -18.3086 -18.2030 -18.0544 -17.8852
   -17.7667 -17.5252 -17.4449 -17.1333 -17.0851 -16.7149 -16.6963 -16.2876
   -16.2787 -15.8793 -15.8507 -15.5450 -15.5225 -14.2848 -14.2464 -13.8881
   -13.8039 -13.3701 -13.2599 -12.7948 -12.6692 -12.1874 -12.0518 -11.5594
   -11.4226 -10.9187 -10.8038 -10.2875 -10.2119  -9.6934  -9.6835  -9.3278
    -9.2123  -9.1380  -9.1277  -9.1235  -9.0711  -8.6560  -8.3552  -8.2340
    -8.1997  -8.1735  -8.1623  -8.1147  -8.0953  -8.0858  -8.0262  -7.9882
    -7.9299  -7.8365  -7.7436  -7.7023  -7.6578  -7.5954  -7.5430  -7.5123
    -7.4975  -7.4900  -7.4880  -7.4817  -7.4289  -7.3891  -7.3097  -7.2333
    -7.2285  -7.1564  -7.1443  -7.1260  -7.1171  -6.9572  -6.9008  -6.8136
    -6.7688  -6.7532  -6.6932  -6.6319  -6.5784  -6.5146  -6.5106  -6.4518
    -6.4193  -6.2445  -6.2359  -6.2018  -6.0839  -5.9866  -5.9003  -5.7066
    -5.5525  -5.3951  -5.1733  -5.0563  -4.7793  -4.6953  -4.3874  -4.3326
    -4.0228  -3.9929  -3.7266  -3.7142  -3.5501  -3.5472   0.5855   0.5993
     0.7979   0.8355   1.1786   1.2283   1.6765   1.7226   2.2463   2.2727
     2.8422   2.8559   3.3934   3.4782   3.4903   3.6034   3.6910   3.7880
     3.8944   3.9066   4.0768   4.0808   4.1180   4.2417   4.2717   4.3354
     4.3636   4.4302   4.5399   4.5476   4.6468   4.7268   4.7401   4.7963
     4.9041   4.9186   5.0360   5.1331   5.1585   5.1753   5.1836   5.2543
     5.2800   5.3554   5.3908   5.4260   5.4481   5.4642   5.4804   5.5105
     5.5339   5.5811   5.6727   5.7604   5.7745   5.8651   5.8719   5.9259
     5.9769   6.0141   6.0440   6.0785   6.1602   6.1661   6.1768   6.2453
     6.3127   6.3241   6.3612   6.3630   6.3774   6.4052   6.4346   6.4516
     6.4782   6.4801   6.4920   6.5231   6.5738   6.5980   6.6476   6.6519
     6.6754   6.6963   6.7736   6.8157   6.8424   6.8677   6.8759   6.8848
     6.8947   6.9309   6.9467   6.9774   7.0100   7.0550   7.0794   7.1860
     7.1925   7.2197   7.2230   7.2650   7.2719   7.3187   7.3597   7.3917
     7.4651   7.4789   7.4961   7.5307   7.5446   7.5570   7.5593   7.5677
     7.6350   7.6627   7.7442   7.8051   7.8582   7.9150   7.9536   7.9767
     8.0020   8.0311   8.0856   8.1252   8.1360   8.2160   8.2521   8.2638
     8.3533   8.4169   8.4343   8.4468   8.4625   8.4823   8.6235   8.6411
     8.6775   8.7034   8.7773   8.8425   8.9283   9.0142   9.0237   9.0622
     9.0708   9.1128   9.1954   9.2063   9.2643   9.3791   9.4029   9.4283
     9.4964   9.6950   9.7409   9.7492   9.7828   9.8223   9.8918   9.9830
     9.9998  10.0287  10.1703  10.2882  10.3138  10.3582  10.3928  10.4908
    10.5026  10.5096  10.5231  10.5452  10.6347  10.6526  10.6659  10.6906
    10.8302  10.8702  10.8814  10.9776  11.0229  11.0305  11.0689  11.0956
    11.1155  11.1438  11.2068  11.2118  11.2582  11.2654  11.3116  11.3789
    11.3915  11.4820  11.5415  11.5786  11.5825  11.6085  11.6383  11.6553
    11.6577  11.6969  11.7568  11.7969  11.7975  11.8150  11.8162  11.8270
    11.8711  12.0324  12.0855  12.1091  12.1368  12.1446  12.1951  12.2470
    12.2494  12.2540  12.3278  12.3619  12.3865  12.4698  12.4723  12.4760
    12.5023  12.5566  12.7212  12.7326  12.7367  12.8200  12.8450  12.8667
    12.9084  12.9172  12.9775  12.9793  13.0050  13.0433  13.0559  13.0670
    13.1312  13.1761  13.3102  13.3239  13.3424  13.3506  13.3509  13.4384
    13.4584  13.4791  13.5634  13.5785  13.5895  13.6015  13.6070  13.6632
    13.6679  13.7515  13.7840  13.9004  13.9242  14.0008  14.0211  14.0768
    14.1132  14.1606  14.2206  14.2842  14.3164  14.3313  14.4529  14.5057
    14.5382  14.5667  14.6777  14.7059  14.7159  14.7731  14.7750  14.8420
    14.8464  14.9218  14.9464  14.9727  14.9946  15.0271  15.0360  15.0558
    15.1204  15.1458  15.1925  15.2147  15.3351  15.3380  15.3550  15.3809
    15.3947  15.4607  15.5357  15.5385  15.5765  15.5939  15.6648  15.6964
    15.6996  15.7349  15.7855  15.8435  15.8960  15.9373  15.9615  15.9792
    16.0049  16.0293  16.1638  16.1649  16.2340  16.2345  16.2664  16.2902
    16.3138  16.4228  16.4980  16.5538  16.5543  16.5555  16.5831  16.7236
    16.7496  16.7630  16.7832  16.8292  16.8749  16.9558  16.9827  16.9978
    17.0216  17.0825  17.0975  17.1744  17.2278  17.2471  17.2895  17.3763
    17.3975  17.4171  17.4193  17.4533  17.4801  17.4877  17.5107  17.5190
    17.5460  17.6172  17.6385  17.6569  17.6762  17.7075  17.7309  17.7742
    17.7891  17.7896  17.7971  17.8739  17.9017  17.9463  17.9578  17.9995
    18.0995  18.1307  18.2189  18.2908  18.2924  18.3203  18.3361  18.4322
    18.4335  18.4428  18.4996  18.5268

          k = 0.0000 0.0000 0.1127 ( 57180 PWs)   bands (ev):

   -19.3412 -19.2735 -19.1737 -19.1083 -19.0436 -19.0340 -18.9426 -18.8599
   -18.8065 -18.6481 -18.6306 -18.4147 -18.3988 -18.1630 -18.1141 -17.8754
   -17.7936 -17.5527 -17.4335 -17.1908 -17.0433 -16.7988 -16.6284 -16.3850
   -16.1980 -15.9664 -15.7843 -15.6004 -15.5016 -14.3152 -14.2194 -13.9480
   -13.7511 -13.4414 -13.1990 -12.8691 -12.6055 -12.2625 -11.9861 -11.6348
   -11.3547 -10.9942 -10.7313 -10.3640 -10.1275  -9.7623  -9.5806  -9.2260
    -9.1651  -8.9531  -8.8936  -8.8674  -8.8627  -8.7927  -8.5359  -8.4072
    -8.3556  -8.3442  -8.0323  -8.0125  -7.9897  -7.9431  -7.8742  -7.8631
    -7.8024  -7.7346  -7.6746  -7.6691  -7.6575  -7.6524  -7.6293  -7.6235
    -7.6017  -7.5962  -7.5854  -7.5850  -7.5239  -7.5125  -7.2454  -7.1952
    -7.1884  -7.1815  -7.1786  -7.1053  -6.9895  -6.9109  -6.9010  -6.8361
    -6.8297  -6.8293  -6.7203  -6.6269  -6.5798  -6.5622  -6.5529  -6.3871
    -6.3843  -6.3606  -6.3360  -6.1871  -6.1180  -6.1033  -5.8387  -5.7874
    -5.5256  -5.4402  -5.1834  -5.0647  -4.8167  -4.6778  -4.4445  -4.2976
    -4.0893  -3.9521  -3.7857  -3.6854  -3.5832  -3.5462   0.5730   0.6309
     0.7443   0.9091   1.0895   1.3331   1.5630   1.8495   2.1154   2.4166
     2.7115   3.0010   3.3219   3.5667   3.6254   3.7347   3.8420   3.9131
     3.9332   3.9671   4.0508   4.0860   4.0951   4.1650   4.2394   4.2677
     4.3695   4.4219   4.4680   4.5580   4.5678   4.6951   4.7440   4.9491
     4.9557   4.9690   5.0143   5.0371   5.2552   5.2726   5.2825   5.3421
     5.3747   5.3853   5.4078   5.4353   5.5566   5.5645   5.5798   5.5834
     5.5999   5.6315   5.6566   5.7023   5.7574   5.8230   5.8915   5.9072
     5.9223   5.9973   6.0026   6.0108   6.0159   6.1275   6.1386   6.1432
     6.2252   6.3250   6.3281   6.3360   6.3505   6.3602   6.3949   6.4210
     6.4454   6.4594   6.4634   6.4736   6.5791   6.5969   6.6321   6.6444
     6.6540   6.6798   6.7039   6.7822   6.7839   6.8324   6.8764   6.8945
     6.9475   6.9779   6.9811   6.9892   7.0369   7.0632   7.0972   7.1285
     7.1554   7.1704   7.2162   7.2761   7.2875   7.3065   7.3381   7.3512
     7.3532   7.3627   7.4451   7.4499   7.4661   7.5745   7.6142   7.6586
     7.6713   7.6842   7.7114   7.7731   7.8059   7.8795   7.9450   7.9779
     7.9862   8.0172   8.0445   8.1071   8.1113   8.1512   8.1540   8.3172
     8.4018   8.4337   8.4675   8.4753   8.5285   8.5597   8.5935   8.5980
     8.6445   8.7204   8.8213   8.8595   8.8823   8.8860   8.9041   8.9505
     8.9869   9.0191   9.2135   9.2706   9.3038   9.3561   9.4431   9.5421
     9.5723   9.6256   9.6699   9.6722   9.8172   9.8622   9.9033   9.9084
     9.9607  10.0235  10.1705  10.2220  10.2476  10.3255  10.3551  10.4641
    10.4935  10.6139  10.6238  10.6434  10.7130  10.7516  10.7830  10.7942
    10.8093  10.8509  10.8975  10.9411  10.9752  11.0062  11.0216  11.0491
    11.0841  11.0890  11.1335  11.2234  11.2379  11.2765  11.3874  11.4043
    11.4318  11.4703  11.4994  11.5079  11.5537  11.6419  11.6449  11.7090
    11.7298  11.7460  11.7897  11.8532  11.8611  11.9067  11.9185  11.9219
    11.9502  11.9553  12.0205  12.0411  12.0540  12.0986  12.1142  12.1756
    12.2357  12.2375  12.2381  12.2485  12.3156  12.3244  12.3308  12.4079
    12.4529  12.4974  12.6206  12.7791  12.7947  12.8112  12.9053  12.9101
    12.9274  12.9515  12.9992  13.0458  13.1221  13.1606  13.1748  13.1788
    13.1965  13.2035  13.2354  13.2628  13.2903  13.3126  13.4266  13.4394
    13.4423  13.4423  13.4605  13.5006  13.5180  13.5462  13.5835  13.6286
    13.6671  13.7048  13.7462  13.8231  13.9361  13.9600  14.0161  14.1286
    14.1963  14.2151  14.2632  14.2936  14.3141  14.4469  14.4690  14.5236
    14.5390  14.5496  14.5556  14.5777  14.5988  14.7686  14.8076  14.8925
    14.9230  14.9368  14.9413  14.9666  15.0038  15.0104  15.0336  15.0846
    15.1505  15.1677  15.1871  15.2136  15.3143  15.3638  15.3746  15.3836
    15.4515  15.5127  15.5516  15.5764  15.5973  15.6293  15.6694  15.6730
    15.7550  15.7798  15.8168  15.8299  15.8451  15.8916  15.9248  15.9524
    15.9878  16.0715  16.1163  16.1872  16.1977  16.2950  16.3316  16.3375
    16.3488  16.4050  16.4793  16.5259  16.5825  16.5893  16.6620  16.6772
    16.6962  16.7459  16.7658  16.7968  16.8393  16.8467  16.9547  16.9578
    16.9960  17.0220  17.1841  17.1900  17.2360  17.2940  17.3101  17.3527
    17.3893  17.4430  17.4673  17.4686  17.4813  17.4995  17.5241  17.5271
    17.5641  17.5919  17.5922  17.6350  17.6377  17.7067  17.7224  17.7765
    17.8012  17.8067  17.8488  17.9045  17.9266  17.9846  17.9893  18.0735
    18.1198  18.1457  18.1628  18.1869  18.2509  18.2651  18.2960  18.3014
    18.3184  18.4326  18.4386  18.4462

          k = 0.0000 0.0000-0.1174 ( 57208 PWs)   bands (ev):

   -19.2274 -19.2266 -19.1614 -19.1576 -19.0649 -19.0550 -18.9329 -18.9135
   -18.7655 -18.7285 -18.5654 -18.5013 -18.3234 -18.2430 -18.0436 -17.9505
   -17.7268 -17.6241 -17.3702 -17.2584 -16.9843 -16.8618 -16.5740 -16.4428
   -16.1493 -16.0170 -15.7472 -15.6339 -15.4942 -14.3258 -14.2057 -13.9725
   -13.7260 -13.4725 -13.1706 -12.9019 -12.5762 -12.2955 -11.9561 -11.6680
   -11.3239 -11.0276 -10.6983 -10.3985 -10.0879  -9.8011  -9.5223  -9.2777
    -9.0551  -8.9082  -8.7722  -8.7134  -8.6520  -8.6336  -8.6106  -8.6052
    -8.6032  -8.6017  -7.8615  -7.8543  -7.8381  -7.8302  -7.8255  -7.7849
    -7.7819  -7.7796  -7.7463  -7.7352  -7.7278  -7.6977  -7.6778  -7.6570
    -7.6390  -7.6300  -7.6186  -7.6133  -7.5981  -7.5022  -7.3025  -7.2074
    -7.2048  -7.1420  -7.0488  -7.0484  -6.9736  -6.9716  -6.9493  -6.8597
    -6.8545  -6.7832  -6.7038  -6.6929  -6.6309  -6.5074  -6.4914  -6.4843
    -6.4025  -6.3025  -6.2758  -6.2748  -6.2319  -6.0001  -5.9466  -5.6894
    -5.6282  -5.3472  -5.2808  -4.9778  -4.9077  -4.5993  -4.5263  -4.2313
    -4.1578  -3.9033  -3.8347  -3.6609  -3.6058  -3.5448   0.5688   0.6527
     0.7150   0.9658   1.0278   1.4184   1.4749   1.9560   2.0076   2.5396
     2.5883   3.1384   3.1853   3.7144   3.7186   3.7630   3.8171   3.8746
     3.9845   4.0003   4.0021   4.0904   4.1182   4.2052   4.2065   4.2632
     4.3027   4.3903   4.4020   4.5732   4.5863   4.7538   4.7869   4.8496
     4.8529   5.0959   5.1152   5.1259   5.1549   5.1806   5.2947   5.4238
     5.4362   5.4408   5.4738   5.5000   5.5065   5.5396   5.5836   5.5893
     5.6108   5.6975   5.7345   5.7410   5.7497   5.7702   5.7915   5.9274
     5.9390   5.9795   6.0193   6.0221   6.0483   6.0893   6.1624   6.1678
     6.1686   6.1794   6.1802   6.2820   6.2851   6.3473   6.3490   6.4254
     6.4633   6.5028   6.5057   6.5282   6.5619   6.6121   6.6254   6.6367
     6.6517   6.6931   6.7047   6.7473   6.7615   6.7968   6.8251   6.9050
     6.9273   6.9691   7.0072   7.0452   7.1135   7.1238   7.1329   7.1545
     7.1767   7.1772   7.1808   7.1891   7.2008   7.2427   7.2761   7.2991
     7.3519   7.3876   7.4265   7.4879   7.5202   7.5534   7.5644   7.5983
     7.6292   7.8020   7.8056   7.8133   7.8393   7.8423   7.8652   7.9474
     7.9542   7.9612   7.9939   8.0187   8.0968   8.2763   8.3094   8.3098
     8.3128   8.3585   8.4432   8.4524   8.5125   8.6891   8.6979   8.7050
     8.7064   8.7172   8.7259   8.7620   8.7677   8.7837   8.9376   8.9486
     8.9597   9.0439   9.1698   9.1791   9.3976   9.4662   9.5018   9.5208
     9.5265   9.6076   9.6580   9.7144   9.7260   9.7567   9.9418  10.0017
    10.0155  10.0238  10.1233  10.1421  10.2408  10.2515  10.3909  10.4426
    10.5451  10.5816  10.7319  10.7374  10.7662  10.7673  10.7745  10.8190
    10.8643  10.8800  10.9015  10.9120  10.9256  10.9433  10.9801  10.9878
    11.0557  11.0775  11.0903  11.2261  11.3261  11.3633  11.3648  11.3664
    11.4101  11.4159  11.4994  11.5043  11.5388  11.6191  11.6266  11.7705
    11.8213  11.8294  11.8664  11.8749  11.8845  11.8907  11.9427  11.9437
    11.9462  11.9815  12.0008  12.0477  12.0760  12.0789  12.0866  12.1109
    12.1350  12.1525  12.2062  12.2886  12.3014  12.3123  12.3537  12.3577
    12.3813  12.4343  12.4786  12.7888  12.8189  12.8498  12.8651  12.9249
    13.0053  13.0409  13.0802  13.0882  13.0979  13.1255  13.1805  13.2043
    13.2236  13.2714  13.2720  13.3040  13.3085  13.3133  13.3270  13.3458
    13.3485  13.4083  13.4685  13.5103  13.5322  13.5806  13.5833  13.5972
    13.6121  13.6696  13.7787  13.8418  13.8558  13.9637  14.0095  14.1009
    14.2483  14.3137  14.3267  14.3571  14.3628  14.3800  14.3959  14.4287
    14.5023  14.5549  14.5771  14.6068  14.6493  14.6822  14.7637  14.8200
    14.9608  14.9769  14.9810  14.9956  15.0153  15.0483  15.0651  15.0768
    15.0861  15.1626  15.1906  15.2789  15.3232  15.3330  15.3494  15.3914
    15.3962  15.5751  15.5955  15.6170  15.6177  15.6733  15.6743  15.7035
    15.7127  15.7439  15.7591  15.7611  15.8766  15.8919  15.9704  15.9777
    16.0413  16.0686  16.0750  16.1720  16.1775  16.2008  16.2923  16.3431
    16.4574  16.5004  16.5266  16.5436  16.5709  16.6078  16.6318  16.6577
    16.7043  16.7394  16.7468  16.7581  16.7975  16.8639  16.8736  16.9102
    16.9834  17.0230  17.1976  17.2405  17.2694  17.3420  17.3559  17.3574
    17.3756  17.4175  17.4180  17.4667  17.4881  17.4901  17.5084  17.5268
    17.5729  17.5864  17.6086  17.6201  17.6482  17.6967  17.7100  17.7105
    17.7977  17.8116  17.8811  17.9920  18.0154  18.0290  18.0773  18.0914
    18.0939  18.1096  18.1338  18.1347  18.1445  18.1986  18.2751  18.3143
    18.3191  18.3826  18.3936  18.4346

     the Fermi energy is    -1.1530 ev

     Writing output data file A29.save/

     init_run     :      8.33s CPU      8.60s WALL (       1 calls)
     electrons    :   4005.99s CPU   4043.51s WALL (       1 calls)

     Called by init_run:
     wfcinit      :      0.00s CPU      0.00s WALL (       1 calls)
     potinit      :      0.48s CPU      0.54s WALL (       1 calls)
     hinit0       :      6.74s CPU      6.79s WALL (       1 calls)

     Called by electrons:
     c_bands      :   4005.98s CPU   4043.49s WALL (       1 calls)
     v_of_rho     :      0.36s CPU      0.38s WALL (       1 calls)
     newd         :      0.25s CPU      0.37s WALL (       1 calls)

     Called by c_bands:
     init_us_2    :      0.27s CPU      0.29s WALL (      26 calls)
     cegterg      :   3914.21s CPU   3948.17s WALL (      76 calls)

     Called by sum_band:

     Called by *egterg:
     h_psi        :    832.96s CPU    843.80s WALL (    1370 calls)
     s_psi        :     88.18s CPU     88.32s WALL (    1370 calls)
     g_psi        :      5.22s CPU      5.23s WALL (    1268 calls)
     cdiaghg      :   2001.17s CPU   2005.23s WALL (    1294 calls)

     Called by h_psi:
     h_psi:pot    :    830.31s CPU    838.45s WALL (    1370 calls)
     h_psi:calbec :     93.08s CPU     94.28s WALL (    1370 calls)
     vloc_psi     :    649.10s CPU    655.87s WALL (    1370 calls)
     add_vuspsi   :     88.11s CPU     88.29s WALL (    1370 calls)

     General routines
     calbec       :     93.08s CPU     94.28s WALL (    1370 calls)
     fft          :      0.40s CPU      0.44s WALL (      14 calls)
     ffts         :      0.00s CPU      0.00s WALL (       1 calls)
     fftw         :    594.54s CPU    600.86s WALL (  458756 calls)
     interpolate  :      0.03s CPU      0.03s WALL (       1 calls)
     davcio       :      0.00s CPU      1.69s WALL (      52 calls)

     Parallel routines
     fft_scatt_xy :     81.22s CPU     81.99s WALL (  458771 calls)
     fft_scatt_yz :    247.51s CPU    251.09s WALL (  458771 calls)

     PWSCF        :     1h 7m CPU        7h 1m WALL

      16h

   This run was terminated on:  19:40:16   8Apr2022            

=------------------------------------------------------------------------------=
   JOB DONE.
=------------------------------------------------------------------------------=
