
     Program PWSCF v.6.3 starts on  8Apr2022 at 18:27:54 

     This program is part of the open-source Quantum ESPRESSO suite
     for quantum simulation of materials; please cite
         "P. Giannozzi et al., J. Phys.:Condens. Matter 21 395502 (2009);
         "P. Giannozzi et al., J. Phys.:Condens. Matter 29 465901 (2017);
          URL http://www.quantum-espresso.org", 
     in publications or presentations arising from this work. More details at
     http://www.quantum-espresso.org/quote

     Parallel version (MPI), running on    16 processors
     R & G space division:  proc/nbgrp/npool/nimage =      16
     Waiting for input...
     Reading input from standard input
     Message from routine read_cards :
     DEPRECATED: no units specified in CELL_PARAMETERS card

     Current dimensions of program PWSCF are:
     Max number of different atomic species (ntypx) = 10
     Max number of k-points (npk) =  40000
     Max angular momentum in pseudopotentials (lmaxx) =  3

     Atomic positions and unit cell read from directory:
     /home/zfwang/scratch/GNRDATASET/AGNR/A30/A30.save/


     Subspace diagonalization in iterative solution of the eigenvalue problem:
     a serial algorithm will be used


     Parallelization info
     --------------------
     sticks:   dense  smooth     PW     G-vecs:    dense   smooth      PW
     Min        4070    1356    382               152359    29327    4390
     Max        4072    1358    384               152360    29328    4391
     Sum       65127   21707   6125              2437759   469247   70241



     bravais-lattice index     =            0
     lattice parameter (alat)  =       1.8897  a.u.
     unit-cell volume          =   13729.9994 (a.u.)^3
     number of atoms/cell      =           64
     number of atomic types    =            2
     number of electrons       =       244.00
     number of Kohn-Sham states=          500
     kinetic-energy cutoff     =      40.0000  Ry
     charge density cutoff     =     480.0000  Ry
     Exchange-correlation      = PBE ( 1  4  3  4 0 0)

     celldm(1)=  18.897261  celldm(2)=   4.776000  celldm(3)=   0.426000
     celldm(4)=   0.000000  celldm(5)=   0.000000  celldm(6)=   0.000000

     crystal axes: (cart. coord. in units of alat)
               a(1) = (  10.000000   0.000000   0.000000 )  
               a(2) = (   0.000000  47.760000   0.000000 )  
               a(3) = (   0.000000   0.000000   4.260000 )  

     reciprocal axes: (cart. coord. in units 2 pi/alat)
               b(1) = (  0.100000  0.000000  0.000000 )  
               b(2) = (  0.000000  0.020938  0.000000 )  
               b(3) = (  0.000000  0.000000  0.234742 )  


     PseudoPot. # 1 for C  read from file:
     /home/zfwang/hp_home/MySoftware/qe-6.3/pseudo/C.pbe-n-rrkjus_psl.0.1.UPF
     MD5 check sum: fff530ed632a789b3b184014e67dd7f1
     Pseudo is Ultrasoft + core correction, Zval =  4.0
     Generated using "atomic" code by A. Dal Corso v.5.0.2 svn rev. 9415
     Using radial grid of 1073 points,  4 beta functions with: 
                l(1) =   0
                l(2) =   0
                l(3) =   1
                l(4) =   1
     Q(r) pseudized with 0 coefficients 


     PseudoPot. # 2 for H  read from file:
     /home/zfwang/hp_home/MySoftware/qe-6.3/pseudo/H.pbe-rrkjus_psl.0.1.UPF
     MD5 check sum: e164a6907b691c6980f16942be34de84
     Pseudo is Ultrasoft, Zval =  1.0
     Generated using "atomic" code by A. Dal Corso v.5.0.2 svn rev. 9415
     Using radial grid of  929 points,  2 beta functions with: 
                l(1) =   0
                l(2) =   0
     Q(r) pseudized with 0 coefficients 


     atomic species   valence    mass     pseudopotential
        C              4.00    12.01070     C ( 1.00)
        H              1.00     1.00794     H ( 1.00)

     No symmetry found



   Cartesian axes

     site n.     atom                  positions (alat units)
         1           C   tau(   1) = (   5.0000004   6.0617360   2.8133855  )
         2           C   tau(   2) = (   5.0000012   7.2675355   3.5441321  )
         3           C   tau(   3) = (   5.0000000   6.0617361   1.4466137  )
         4           C   tau(   4) = (   5.0000013   8.4965845   2.8408819  )
         5           C   tau(   5) = (   5.0000008   9.7332117   3.5522857  )
         6           C   tau(   6) = (   5.0000008   7.2675348   0.7158673  )
         7           C   tau(   7) = (   5.0000009   8.4965854   1.4191169  )
         8           C   tau(   8) = (   4.9999999  10.9620979   2.8420907  )
         9           C   tau(   9) = (   4.9999999  12.1910111   3.5495505  )
        10           C   tau(  10) = (   5.0000005   9.7332109   0.7077131  )
        11           C   tau(  11) = (   5.0000001  10.9620985   1.4179082  )
        12           C   tau(  12) = (   5.0000000  13.4244381   2.8394945  )
        13           C   tau(  13) = (   4.9999997  14.6550197   3.5486530  )
        14           C   tau(  14) = (   5.0000000  12.1910111   0.7104479  )
        15           C   tau(  15) = (   5.0000003  13.4244376   1.4205037  )
        16           C   tau(  16) = (   4.9999993  15.8847332   2.8402114  )
        17           C   tau(  17) = (   4.9999990  17.1164787   3.5502939  )
        18           C   tau(  18) = (   4.9999999  14.6550206   0.7113456  )
        19           C   tau(  19) = (   4.9999991  15.8847320   1.4197877  )
        20           C   tau(  20) = (   4.9999994  18.3460754   2.8409136  )
        21           C   tau(  21) = (   4.9999993  19.5751868   3.5499501  )
        22           C   tau(  22) = (   4.9999989  17.1164793   0.7097051  )
        23           C   tau(  23) = (   4.9999992  18.3460748   1.4190857  )
        24           C   tau(  24) = (   4.9999994  20.8060805   2.8398641  )
        25           C   tau(  25) = (   4.9999996  22.0353915   3.5491750  )
        26           C   tau(  26) = (   4.9999993  19.5751869   0.7100492  )
        27           C   tau(  27) = (   4.9999994  20.8060803   1.4201355  )
        28           C   tau(  28) = (   4.9999999  23.2646032   2.8399753  )
        29           C   tau(  29) = (   5.0000002  24.4953961   3.5500239  )
        30           C   tau(  30) = (   4.9999997  22.0353915   0.7108245  )
        31           C   tau(  31) = (   4.9999997  23.2646035   1.4200243  )
        32           C   tau(  32) = (   5.0000005  25.7246070   2.8408243  )
        33           C   tau(  33) = (   5.0000003  26.9539166   3.5501365  )
        34           C   tau(  34) = (   5.0000002  24.4953958   0.7099759  )
        35           C   tau(  35) = (   5.0000003  25.7246082   1.4191758  )
        36           C   tau(  36) = (   4.9999998  28.1848036   2.8400493  )
        37           C   tau(  37) = (   4.9999994  29.4139132   3.5490874  )
        38           C   tau(  38) = (   5.0000002  26.9539158   0.7098635  )
        39           C   tau(  39) = (   4.9999999  28.1848047   1.4199507  )
        40           C   tau(  40) = (   4.9999997  30.6435060   2.8397062  )
        41           C   tau(  41) = (   5.0000004  31.8752525   3.5497868  )
        42           C   tau(  42) = (   4.9999997  29.4139124   0.7109125  )
        43           C   tau(  43) = (   4.9999998  30.6435066   1.4202939  )
        44           C   tau(  44) = (   5.0000008  33.1049646   2.8413460  )
        45           C   tau(  45) = (   5.0000010  34.3355503   3.5505060  )
        46           C   tau(  46) = (   5.0000003  31.8752521   0.7102132  )
        47           C   tau(  47) = (   5.0000009  33.1049646   1.4186543  )
        48           C   tau(  48) = (   5.0000010  35.5689805   2.8404510  )
        49           C   tau(  49) = (   5.0000003  36.7978966   3.5479081  )
        50           C   tau(  50) = (   5.0000011  34.3355506   0.7094949  )
        51           C   tau(  51) = (   5.0000007  35.5689791   1.4195506  )
        52           C   tau(  52) = (   4.9999997  38.0267940   2.8377173  )
        53           C   tau(  53) = (   4.9999998  39.2634231   3.5491118  )
        54           C   tau(  54) = (   5.0000003  36.7978989   0.7120940  )
        55           C   tau(  55) = (   4.9999998  38.0267917   1.4222856  )
        56           C   tau(  56) = (   5.0000001  40.4924809   2.8458715  )
        57           C   tau(  57) = (   5.0000000  41.6982859   3.5765939  )
        58           C   tau(  58) = (   4.9999998  39.2634267   0.7108914  )
        59           C   tau(  59) = (   5.0000001  40.4924772   1.4141323  )
        60           C   tau(  60) = (   5.0000001  41.6982890   0.6834095  )
        61           H   tau(  61) = (   4.9999996   5.1061459   3.3304977  )
        62           H   tau(  62) = (   4.9999986   5.1061447   0.9295023  )
        63           H   tau(  63) = (   5.0000006  42.6538744   3.0595094  )
        64           H   tau(  64) = (   4.9999995  42.6538741   1.2004937  )

     number of k points=    26  Marzari-Vanderbilt smearing, width (Ry)=  0.0100
                       cart. coord. in units 2pi/alat
        k(    1) = (   0.0000000   0.0000000   0.0000000), wk =   0.0400000
        k(    2) = (   0.0000000   0.0000000   0.0046948), wk =   0.0800000
        k(    3) = (   0.0000000   0.0000000   0.0093897), wk =   0.0800000
        k(    4) = (   0.0000000   0.0000000   0.0140845), wk =   0.0800000
        k(    5) = (   0.0000000   0.0000000   0.0187793), wk =   0.0800000
        k(    6) = (   0.0000000   0.0000000   0.0234742), wk =   0.0800000
        k(    7) = (   0.0000000   0.0000000   0.0281690), wk =   0.0800000
        k(    8) = (   0.0000000   0.0000000   0.0328638), wk =   0.0800000
        k(    9) = (   0.0000000   0.0000000   0.0375587), wk =   0.0800000
        k(   10) = (   0.0000000   0.0000000   0.0422535), wk =   0.0800000
        k(   11) = (   0.0000000   0.0000000   0.0469484), wk =   0.0800000
        k(   12) = (   0.0000000   0.0000000   0.0516432), wk =   0.0800000
        k(   13) = (   0.0000000   0.0000000   0.0563380), wk =   0.0800000
        k(   14) = (   0.0000000   0.0000000   0.0610329), wk =   0.0800000
        k(   15) = (   0.0000000   0.0000000   0.0657277), wk =   0.0800000
        k(   16) = (   0.0000000   0.0000000   0.0704225), wk =   0.0800000
        k(   17) = (   0.0000000   0.0000000   0.0751174), wk =   0.0800000
        k(   18) = (   0.0000000   0.0000000   0.0798122), wk =   0.0800000
        k(   19) = (   0.0000000   0.0000000   0.0845070), wk =   0.0800000
        k(   20) = (   0.0000000   0.0000000   0.0892019), wk =   0.0800000
        k(   21) = (   0.0000000   0.0000000   0.0938967), wk =   0.0800000
        k(   22) = (   0.0000000   0.0000000   0.0985915), wk =   0.0800000
        k(   23) = (   0.0000000   0.0000000   0.1032864), wk =   0.0800000
        k(   24) = (   0.0000000   0.0000000   0.1079812), wk =   0.0800000
        k(   25) = (   0.0000000   0.0000000   0.1126761), wk =   0.0800000
        k(   26) = (   0.0000000   0.0000000  -0.1173709), wk =   0.0400000

     Dense  grid:  2437759 G-vectors     FFT dimensions: ( 135, 640,  60)

     Smooth grid:   469247 G-vectors     FFT dimensions: (  80, 375,  36)

     Estimated max dynamical RAM per process >     626.67 MB

     Estimated total dynamical RAM >       9.79 GB

     The potential is recalculated from file :
     /home/zfwang/scratch/GNRDATASET/AGNR/A30/A30.save/charge-density.dat


     negative rho (up, down):  8.502E-05 0.000E+00
     Starting wfcs are  244 randomized atomic wfcs +  256 random wfcs

     Band Structure Calculation
     Davidson diagonalization with overlap
     c_bands:  1 eigenvalues not converged
     c_bands:  1 eigenvalues not converged

     ethr =  4.10E-09,  avg # of iterations = 56.5

     total cpu time spent up to now is     4388.1 secs

     End of band structure calculation

          k = 0.0000 0.0000 0.0000 ( 58523 PWs)   bands (ev):

   -20.6782 -20.6137 -20.5177 -20.3863 -20.2166 -20.0114 -19.7723 -19.4987
   -19.1903 -18.8464 -18.4614 -18.0501 -17.6096 -17.1420 -16.6503 -16.1389
   -15.6140 -15.4109 -15.3532 -15.2699 -15.1564 -15.0858 -15.0091 -14.8311
   -14.6239 -14.5726 -14.3993 -14.3867 -14.3431 -14.2648 -14.1547 -14.1186
   -14.1112 -14.0104 -13.8777 -13.8180 -13.7302 -13.7193 -13.5859 -13.5634
   -13.4733 -13.1075 -12.7141 -12.2933 -11.8464 -11.6987 -11.6457 -11.4924
   -11.3806 -11.3747 -11.1242 -11.0395 -10.8802 -10.6448 -10.6397 -10.3646
   -10.2093 -10.1070  -9.8302  -9.7437  -9.5691  -9.2789  -9.2568  -9.0493
    -8.7693  -8.7608  -8.7013  -8.6954  -8.5827  -8.5659  -8.4276  -8.2692
    -8.2282  -8.1502  -8.1265  -7.9878  -7.8399  -7.7883  -7.7079  -7.6505
    -7.5521  -7.3889  -7.2867  -7.0312  -6.9827  -6.8018  -6.6354  -6.4272
    -6.3309  -6.1979  -5.8980  -5.8839  -5.7330  -5.4701  -5.4106  -5.2394
    -5.0998  -4.9834  -4.7820  -4.7215  -4.6385  -4.5239  -4.3937  -4.3352
    -4.2511  -4.2251  -4.1844  -3.6346  -3.4769  -3.4012  -3.2846  -3.1239
    -3.0801  -2.9175  -2.6680  -2.5303  -2.3766  -2.0431  -1.9962  -1.6671
    -1.4892  -1.2468  -1.0099  -0.7678  -0.6038  -0.2657  -0.2649   0.0033
     0.2062   0.2730   0.3506   0.4476   0.5089   0.5439   0.5588   0.8450
     1.4492   1.8481   1.9711   1.9994   2.0831   2.1064   2.1908   2.3775
     2.5410   2.7435   2.8049   3.0398   3.2482   3.3651   3.3686   3.4265
     3.4561   3.5971   3.6476   3.7016   3.8098   3.9296   4.0249   4.1272
     4.1618   4.2101   4.4033   4.5065   4.5630   4.7114   4.7952   4.8400
     4.8595   4.9599   5.0246   5.0963   5.1268   5.1558   5.2350   5.4140
     5.5412   5.5653   5.6893   5.7178   5.8380   5.8516   6.1205   6.1768
     6.2770   6.3000   6.4041   6.4426   6.5184   6.5337   6.5941   6.7968
     6.8061   6.9449   6.9727   7.1897   7.1938   7.2454   7.2730   7.2804
     7.2920   7.3780   7.4032   7.4721   7.4876   7.5080   7.5943   7.6430
     7.6966   7.7649   7.7656   7.8115   7.8133   7.8795   7.9416   8.1248
     8.1272   8.2272   8.2759   8.3964   8.4163   8.4356   8.4894   8.5204
     8.6543   8.6923   8.7553   8.7688   8.8223   8.8573   8.8797   8.9133
     8.9402   9.1236   9.2858   9.3694   9.4044   9.4428   9.5071   9.5252
     9.5367   9.5537   9.5845   9.5864   9.6089   9.6371   9.6501   9.6549
     9.6801   9.6891   9.7159   9.7670   9.7909   9.8500   9.8626   9.8705
     9.9113   9.9231   9.9581   9.9836   9.9967  10.0266  10.0673  10.0992
    10.1075  10.1082  10.1402  10.1791  10.1863  10.2022  10.2384  10.2874
    10.2880  10.3111  10.3149  10.3660  10.3795  10.4787  10.5054  10.5709
    10.5766  10.5829  10.6287  10.6540  10.7241  10.7490  10.7552  10.7638
    10.7858  10.8033  10.8810  10.9163  10.9679  10.9898  11.0226  11.0266
    11.0497  11.0673  11.1123  11.1134  11.1290  11.1353  11.1700  11.2128
    11.2997  11.3414  11.3467  11.3548  11.3677  11.3815  11.4134  11.4264
    11.4884  11.5133  11.5192  11.5467  11.5564  11.5841  11.5930  11.6256
    11.6305  11.6321  11.6687  11.6841  11.7499  11.7608  11.7617  11.7733
    11.7749  11.7906  11.8020  11.8117  11.8169  11.8634  11.8919  11.8980
    11.9107  11.9573  11.9581  11.9986  12.0688  12.0737  12.0861  12.0913
    12.1321  12.1641  12.1871  12.2138  12.2319  12.2409  12.2443  12.2623
    12.2640  12.3048  12.3179  12.3211  12.4225  12.4558  12.4745  12.4888
    12.5686  12.6154  12.6791  12.6823  12.6888  12.6906  12.7418  12.7693
    12.8228  12.8510  12.8695  12.8998  12.9343  13.0186  13.0573  13.0908
    13.1045  13.1082  13.1121  13.1192  13.1593  13.1806  13.1994  13.2532
    13.2903  13.3994  13.4103  13.4376  13.5001  13.5504  13.5841  13.5963
    13.6134  13.6610  13.7989  13.8172  13.8206  13.8258  13.9003  13.9289
    13.9470  13.9480  13.9869  14.0385  14.1651  14.1762  14.1872  14.1948
    14.1968  14.2760  14.3004  14.3500  14.3518  14.3700  14.3961  14.4571
    14.4975  14.5382  14.5517  14.5690  14.6531  14.7205  14.7346  14.7691
    14.7951  14.8809  14.8857  14.9465  14.9511  14.9863  15.0231  15.0983
    15.2087  15.3108  15.3215  15.3640  15.3917  15.4156  15.4525  15.4719
    15.4863  15.4900  15.5197  15.6042  15.6342  15.6528  15.6900  15.7449
    15.7679  15.8275  15.8279  15.8746  15.9021  15.9433  16.0329  16.0500
    16.0906  16.1596  16.1734  16.1779  16.1868  16.2220  16.2898  16.3005
    16.3212  16.3313  16.3554  16.4235  16.4542  16.4738  16.4836  16.5399
    16.5760  16.6168  16.6212  16.6232  16.6883  16.7158  16.7226  16.7414
    16.7598  16.7613  16.7722  16.8391  16.8811  16.9081  16.9466  16.9695
    16.9741  17.0606  17.1010  17.1164  17.1505  17.1525  17.1851  17.2468
    17.2691  17.2797  17.2881  17.3225

          k = 0.0000 0.0000 0.0047 ( 58521 PWs)   bands (ev):

   -20.6758 -20.6113 -20.5153 -20.3839 -20.2142 -20.0091 -19.7699 -19.4964
   -19.1880 -18.8441 -18.4591 -18.0479 -17.6074 -17.1398 -16.6482 -16.1369
   -15.6125 -15.4553 -15.3974 -15.3139 -15.1999 -15.0865 -15.0505 -14.8743
   -14.6671 -14.5735 -14.4304 -14.3514 -14.2956 -14.2189 -14.1724 -14.1112
   -14.1085 -13.9694 -13.9178 -13.8265 -13.6754 -13.6462 -13.5405 -13.5172
   -13.4764 -13.1244 -12.7340 -12.3142 -11.8675 -11.6834 -11.6281 -11.4800
   -11.3958 -11.3601 -11.1153 -11.0188 -10.8999 -10.6323 -10.6245 -10.3832
   -10.1904 -10.1000  -9.8476  -9.7267  -9.5621  -9.2953  -9.2419  -9.0425
    -8.7665  -8.7476  -8.7171  -8.6926  -8.5799  -8.5599  -8.4247  -8.2570
    -8.2254  -8.1546  -8.1322  -7.9850  -7.8372  -7.7772  -7.7052  -7.6474
    -7.5649  -7.3862  -7.2761  -7.0286  -6.9951  -6.7927  -6.6327  -6.4395
    -6.3234  -6.1954  -5.9127  -5.8754  -5.7306  -5.4713  -5.4170  -5.2372
    -5.1017  -4.9905  -4.7858  -4.7195  -4.6449  -4.5296  -4.3992  -4.3426
    -4.2559  -4.2338  -4.1828  -3.6337  -3.4927  -3.4171  -3.3009  -3.1406
    -3.0804  -2.9349  -2.6865  -2.5329  -2.3970  -2.0672  -2.0039  -1.7004
    -1.5168  -1.3350  -0.9225  -0.7417  -0.5706  -0.2593  -0.2409   0.0251
     0.2267   0.2727   0.3706   0.4673   0.5285   0.5634   0.5783   0.8420
     1.4447   1.8513   1.9743   2.0027   2.0776   2.1096   2.1940   2.3807
     2.5443   2.7373   2.8082   3.0430   3.2514   3.3671   3.3718   3.4216
     3.4598   3.6004   3.6508   3.7049   3.8131   3.9329   4.0280   4.1206
     4.1650   4.2134   4.4066   4.5097   4.5662   4.7147   4.7983   4.8326
     4.8627   4.9631   5.0283   5.0994   5.1299   5.1590   5.2382   5.4171
     5.5442   5.5562   5.6922   5.7210   5.8433   5.8547   6.1237   6.1800
     6.2705   6.3031   6.4054   6.4455   6.5225   6.5375   6.5963   6.7992
     6.8083   6.9478   6.9655   7.1937   7.1968   7.2522   7.2716   7.2753
     7.3049   7.3712   7.4054   7.4800   7.4913   7.4985   7.5925   7.6353
     7.6857   7.7650   7.7711   7.8139   7.8176   7.8635   7.9454   8.0911
     8.1426   8.2295   8.2681   8.3711   8.4204   8.4274   8.4920   8.5316
     8.6584   8.6772   8.7436   8.7572   8.8238   8.8487   8.8840   8.9176
     8.9464   9.0753   9.2979   9.3602   9.4101   9.4463   9.4481   9.5303
     9.5399   9.5589   9.5887   9.5928   9.6117   9.6425   9.6551   9.6567
     9.6778   9.6814   9.6855   9.7183   9.7330   9.7683   9.7826   9.8182
     9.8402   9.8645   9.8735   9.9058   9.9546   9.9848  10.0123  10.0522
    10.0991  10.1094  10.1640  10.1892  10.2361  10.2670  10.2714  10.2898
    10.3026  10.3207  10.3767  10.4085  10.4624  10.4810  10.4882  10.5559
    10.5592  10.6246  10.6510  10.6552  10.6789  10.7635  10.7775  10.7797
    10.7947  10.7967  10.8226  10.9224  10.9244  10.9732  10.9824  10.9969
    11.0216  11.0218  11.0352  11.1122  11.1196  11.1694  11.2022  11.2591
    11.2773  11.2834  11.3028  11.3396  11.3487  11.3760  11.4095  11.4176
    11.4944  11.5336  11.5406  11.5787  11.5913  11.6454  11.6475  11.6543
    11.6616  11.6717  11.6783  11.7217  11.7241  11.7524  11.7606  11.7611
    11.7653  11.8299  11.8541  11.8554  11.8617  11.8757  11.8984  11.9202
    11.9217  11.9519  11.9966  12.0232  12.0480  12.0796  12.0874  12.1094
    12.1139  12.1250  12.1397  12.1798  12.2398  12.2515  12.2535  12.2620
    12.3145  12.3279  12.3315  12.3323  12.4246  12.4247  12.4546  12.4611
    12.4691  12.5468  12.5573  12.5876  12.5949  12.6907  12.7186  12.7646
    12.7794  12.7834  12.9183  13.0231  13.0532  13.0533  13.0702  13.0821
    13.0935  13.1116  13.1172  13.1337  13.1358  13.2042  13.2431  13.2628
    13.2971  13.3890  13.4226  13.4721  13.5616  13.5725  13.5788  13.6139
    13.6231  13.6934  13.7735  13.8022  13.8301  13.8373  13.8685  13.8829
    13.9457  13.9791  14.0402  14.0616  14.1600  14.1983  14.2018  14.2195
    14.2719  14.2787  14.3114  14.3331  14.3857  14.4228  14.4237  14.4596
    14.4939  14.5758  14.5781  14.6005  14.6033  14.6971  14.7073  14.7844
    14.7963  14.8346  14.8402  14.9613  14.9895  15.0432  15.0990  15.1272
    15.2018  15.3103  15.3181  15.3253  15.3554  15.3935  15.4121  15.4714
    15.4852  15.5187  15.5549  15.5567  15.5959  15.5987  15.6520  15.7096
    15.7886  15.8195  15.8398  15.8649  15.9423  15.9638  15.9983  16.0564
    16.0667  16.0747  16.1790  16.1890  16.2546  16.2888  16.3149  16.3247
    16.3357  16.3599  16.4023  16.4777  16.4793  16.5026  16.5143  16.5265
    16.5636  16.5850  16.6133  16.6176  16.6297  16.6731  16.6794  16.7375
    16.7690  16.7882  16.8166  16.8246  16.8566  16.8576  16.9590  16.9711
    16.9810  17.0381  17.0621  17.0676  17.1068  17.1756  17.1927  17.2698
    17.2925  17.3362  17.4083  17.4249

          k = 0.0000 0.0000 0.0094 ( 58525 PWs)   bands (ev):

   -20.6687 -20.6042 -20.5082 -20.3768 -20.2071 -20.0020 -19.7629 -19.4894
   -19.1810 -18.8372 -18.4523 -18.0411 -17.6007 -17.1332 -16.6419 -16.1311
   -15.6080 -15.5697 -15.5112 -15.4272 -15.3120 -15.1659 -15.0797 -14.9851
   -14.7770 -14.5852 -14.5324 -14.2926 -14.2266 -14.1716 -14.1455 -14.0878
   -14.0550 -13.9853 -13.8536 -13.7107 -13.5632 -13.5347 -13.4834 -13.4301
   -13.4089 -13.1717 -12.7905 -12.3731 -11.9270 -11.6392 -11.5782 -11.4533
   -11.4435 -11.3031 -11.0902 -10.9658 -10.9484 -10.6126 -10.5665 -10.4353
   -10.1359 -10.0816  -9.8969  -9.6773  -9.5435  -9.3418  -9.1983  -9.0244
    -8.7614  -8.7579  -8.7091  -8.6841  -8.5714  -8.5440  -8.4163  -8.2216
    -8.2170  -8.1892  -8.1268  -7.9766  -7.8295  -7.7460  -7.6969  -7.6379
    -7.6014  -7.3780  -7.2461  -7.0306  -7.0205  -6.7678  -6.6249  -6.4736
    -6.3039  -6.1878  -5.9453  -5.8615  -5.7233  -5.4809  -5.4305  -5.2305
    -5.1087  -5.0108  -4.7975  -4.7136  -4.6641  -4.5469  -4.4161  -4.3648
    -4.2705  -4.2597  -4.1782  -3.6311  -3.5390  -3.4639  -3.3485  -3.1896
    -3.0812  -2.9858  -2.7405  -2.5406  -2.4559  -2.1357  -2.0269  -1.7901
    -1.5903  -1.4876  -0.7723  -0.6727  -0.4810  -0.2427  -0.1705   0.0884
     0.2721   0.2869   0.4293   0.5254   0.5862   0.6209   0.6357   0.8333
     1.4313   1.8609   1.9839   2.0124   2.0613   2.1193   2.2037   2.3904
     2.5540   2.7188   2.8178   3.0527   3.2610   3.3685   3.3815   3.4117
     3.4709   3.6101   3.6606   3.7147   3.8228   3.9426   4.0371   4.1011
     4.1746   4.2231   4.4163   4.5194   4.5757   4.7243   4.8079   4.8106
     4.8723   4.9726   5.0391   5.1089   5.1391   5.1687   5.2479   5.4267
     5.5301   5.5534   5.7006   5.7307   5.8585   5.8639   6.1332   6.1895
     6.2514   6.3124   6.4093   6.4542   6.5345   6.5489   6.6030   6.8062
     6.8147   6.9439   6.9563   7.2057   7.2060   7.2637   7.2711   7.2822
     7.3234   7.3580   7.4119   7.4753   7.4955   7.5025   7.5853   7.6124
     7.6619   7.7553   7.7803   7.8209   7.8302   7.8345   7.9565   8.0204
     8.1609   8.2330   8.2449   8.2908   8.4272   8.4325   8.4997   8.5503
     8.5939   8.6704   8.7262   8.7620   8.8242   8.8286   8.8957   8.9106
     8.9595   8.9650   9.3064   9.3221   9.3335   9.3834   9.4266   9.4447
     9.4637   9.5238   9.5447   9.5492   9.5739   9.5949   9.5952   9.6202
     9.6355   9.6555   9.6565   9.6586   9.6764   9.6989   9.7241   9.7590
     9.7846   9.7880   9.8699   9.8715   9.8825   9.8851   9.9436  10.0499
    10.0577  10.0742  10.1116  10.1143  10.1550  10.1996  10.2295  10.2768
    10.2962  10.3845  10.3910  10.4335  10.4494  10.4867  10.4934  10.6191
    10.6308  10.6383  10.6521  10.6863  10.6983  10.7161  10.7493  10.7718
    10.7741  10.7860  10.8029  10.8146  10.8929  10.9204  10.9338  10.9692
    10.9877  10.9944  11.0213  11.1034  11.1077  11.1873  11.2078  11.2406
    11.3075  11.3128  11.3134  11.3553  11.3784  11.4238  11.4384  11.4611
    11.4840  11.5150  11.5505  11.5557  11.5824  11.6016  11.6397  11.6651
    11.6748  11.6818  11.6944  11.7305  11.7718  11.7905  11.8443  11.8487
    11.8514  11.8735  11.8813  11.8958  11.9151  11.9811  11.9949  11.9978
    11.9979  12.0214  12.0338  12.0421  12.0644  12.0841  12.1005  12.1050
    12.1282  12.1297  12.1340  12.1650  12.1836  12.1970  12.2184  12.2609
    12.2699  12.3060  12.3230  12.3264  12.3492  12.3536  12.3929  12.4007
    12.4277  12.4281  12.4372  12.4941  12.5413  12.6740  12.6898  12.7496
    12.7889  12.8134  12.8295  12.9129  12.9635  13.0199  13.0628  13.0814
    13.1018  13.1059  13.1251  13.2064  13.2511  13.3174  13.3514  13.3646
    13.3709  13.4403  13.4420  13.4828  13.5220  13.5820  13.6427  13.6461
    13.6987  13.7332  13.8067  13.8296  13.8410  13.8671  13.8982  13.9007
    13.9681  14.0599  14.1047  14.1080  14.1094  14.2115  14.2152  14.3222
    14.3232  14.3436  14.3606  14.3802  14.3915  14.4225  14.5325  14.5355
    14.5574  14.5665  14.5751  14.6495  14.6778  14.6927  14.7204  14.7825
    14.7962  14.8023  14.8777  14.9711  15.0236  15.0830  15.0844  15.1662
    15.1763  15.2519  15.2583  15.3312  15.3384  15.3730  15.4000  15.4293
    15.4698  15.4714  15.4956  15.4957  15.6359  15.6412  15.6813  15.6873
    15.7014  15.7938  15.8331  15.8746  15.8815  15.9265  15.9375  15.9921
    16.1320  16.1624  16.1909  16.2931  16.2942  16.3153  16.3419  16.3698
    16.4113  16.4188  16.4387  16.4444  16.4741  16.4816  16.5043  16.5450
    16.5659  16.5915  16.6246  16.6329  16.6671  16.6683  16.6956  16.7081
    16.7185  16.7270  16.8014  16.8232  16.8359  16.9371  16.9633  17.0141
    17.0469  17.0572  17.0735  17.0811  17.1301  17.1370  17.2523  17.3109
    17.3247  17.3391  17.4158  17.4536

          k = 0.0000 0.0000 0.0141 ( 58517 PWs)   bands (ev):

   -20.6569 -20.5923 -20.4964 -20.3650 -20.1954 -19.9903 -19.7512 -19.4777
   -19.1694 -18.8257 -18.4409 -18.0298 -17.5895 -17.1224 -16.6315 -16.1215
   -15.7228 -15.6647 -15.6001 -15.5790 -15.4618 -15.3143 -15.1329 -15.0781
   -14.9215 -14.6977 -14.5721 -14.4405 -14.2002 -14.1967 -14.0557 -14.0015
   -13.9231 -13.8201 -13.6918 -13.5524 -13.4983 -13.4295 -13.4030 -13.2872
   -13.2783 -13.2403 -12.8753 -12.4618 -12.0161 -11.5791 -11.5284 -11.5041
   -11.3823 -11.2176 -11.0497 -11.0387 -10.8660 -10.5839 -10.5197 -10.4706
   -10.0561 -10.0535  -9.9690  -9.6007  -9.5182  -9.4114  -9.1297  -8.9996
    -8.8281  -8.7437  -8.6699  -8.6482  -8.5572  -8.5218  -8.4022  -8.2500
    -8.2030  -8.1665  -8.1109  -7.9627  -7.8183  -7.7008  -7.6831  -7.6568
    -7.6202  -7.3644  -7.2012  -7.0857  -7.0071  -6.7311  -6.6118  -6.5260
    -6.2766  -6.1752  -5.9942  -5.8448  -5.7113  -5.5136  -5.4371  -5.2194
    -5.1254  -5.0403  -4.8188  -4.7038  -4.6954  -4.5759  -4.4447  -4.4011
    -4.3019  -4.2950  -4.1704  -3.6267  -3.6134  -3.5391  -3.4248  -3.2677
    -3.0826  -3.0667  -2.8256  -2.5570  -2.5442  -2.2396  -2.0645  -1.9168
    -1.6928  -1.6514  -0.6125  -0.5778  -0.3547  -0.2158  -0.0631   0.1876
     0.2713   0.3825   0.5233   0.6187   0.6792   0.7138   0.7286   0.8190
     1.4093   1.8769   1.9998   2.0285   2.0344   2.1354   2.2199   2.4065
     2.5701   2.6883   2.8339   3.0689   3.2770   3.3509   3.3975   3.4155
     3.4891   3.6262   3.6768   3.7309   3.8389   3.9588   4.0478   4.0738
     4.1906   4.2392   4.4326   4.5356   4.5913   4.7405   4.7752   4.8238
     4.8882   4.9886   5.0567   5.1247   5.1543   5.1847   5.2641   5.4426
     5.4893   5.5688   5.7143   5.7466   5.8793   5.8815   6.1489   6.2053
     6.2201   6.3278   6.4157   6.4679   6.5543   6.5677   6.6137   6.8171
     6.8252   6.9083   6.9702   7.2211   7.2255   7.2613   7.2929   7.2947
     7.3385   7.3517   7.4224   7.4497   7.5014   7.5208   7.5724   7.5751
     7.6460   7.7019   7.7890   7.8294   7.8347   7.8506   7.9261   7.9748
     8.1601   8.1733   8.2067   8.2570   8.4321   8.4526   8.4596   8.5149
     8.5546   8.6903   8.7252   8.7510   8.7842   8.8265   8.8445   8.8737
     8.9142   8.9798   9.0863   9.1459   9.1810   9.2558   9.2798   9.2901
     9.4167   9.4532   9.4893   9.4930   9.5048   9.5642   9.5648   9.5974
     9.6060   9.6343   9.6394   9.6479   9.6821   9.6848   9.7082   9.7087
     9.7396   9.7451   9.8007   9.8070   9.8769   9.8964   9.9235   9.9405
     9.9932  10.0103  10.0334  10.1090  10.1110  10.1194  10.2196  10.2334
    10.2615  10.2683  10.2963  10.3370  10.3459  10.3891  10.4592  10.4710
    10.4998  10.5178  10.5244  10.5530  10.5947  10.6832  10.6897  10.7638
    10.8070  10.8214  10.8569  10.8648  10.9146  10.9498  10.9734  11.0171
    11.0408  11.0780  11.0922  11.1838  11.1981  11.2112  11.2218  11.2232
    11.2763  11.3296  11.3684  11.3716  11.3930  11.4029  11.4397  11.4637
    11.4899  11.5039  11.5657  11.6032  11.6129  11.6238  11.6301  11.6435
    11.6985  11.7143  11.7393  11.7728  11.7756  11.8013  11.8354  11.8536
    11.8636  11.8893  11.9052  11.9136  11.9389  11.9569  11.9714  11.9889
    12.0008  12.0130  12.0385  12.0690  12.1151  12.1230  12.1293  12.1398
    12.1669  12.1819  12.2272  12.2294  12.2369  12.2455  12.2474  12.2489
    12.2713  12.2756  12.2829  12.3313  12.3348  12.3399  12.3678  12.3758
    12.4008  12.4155  12.4177  12.4525  12.5199  12.5852  12.5936  12.6763
    12.6838  12.7230  12.8282  12.9239  12.9364  12.9984  13.0656  13.0749
    13.1142  13.1220  13.1289  13.2173  13.2477  13.2580  13.2804  13.3243
    13.3482  13.4799  13.5692  13.6198  13.6510  13.6658  13.7313  13.7581
    13.7907  13.7973  13.8238  13.8538  13.8870  13.9260  13.9398  14.0118
    14.0380  14.0601  14.1509  14.2014  14.2045  14.2078  14.2753  14.3315
    14.3567  14.4256  14.4413  14.4439  14.4817  14.4946  14.5277  14.5865
    14.6487  14.6490  14.6694  14.6743  14.7132  14.7684  14.7832  14.7853
    14.8436  14.9000  14.9227  15.0038  15.0218  15.0312  15.0478  15.0602
    15.0919  15.1151  15.2091  15.3364  15.3552  15.3826  15.3866  15.3901
    15.4224  15.4942  15.5056  15.5163  15.5604  15.5789  15.6864  15.6987
    15.7451  15.8319  15.8512  15.8592  15.9027  15.9052  15.9093  16.0377
    16.0561  16.0646  16.2557  16.2821  16.3055  16.3324  16.3658  16.3915
    16.4006  16.4044  16.4445  16.4521  16.4581  16.5115  16.5381  16.5655
    16.5675  16.5782  16.5974  16.6512  16.6727  16.7372  16.7766  16.7834
    16.8115  16.8239  16.8332  16.9252  16.9507  16.9518  17.0083  17.0348
    17.0714  17.0854  17.1198  17.1690  17.1702  17.1782  17.2021  17.2305
    17.2957  17.2977  17.3572  17.4365

          k = 0.0000 0.0000 0.0188 ( 58515 PWs)   bands (ev):

   -20.6403 -20.5758 -20.4798 -20.3485 -20.1789 -19.9738 -19.7348 -19.4614
   -19.1532 -18.8096 -18.4249 -18.0140 -17.5740 -17.1072 -16.6169 -16.1083
   -15.8945 -15.8356 -15.7492 -15.6375 -15.5835 -15.4817 -15.2981 -15.1100
   -15.0483 -14.8577 -14.6005 -14.5861 -14.3507 -14.2742 -13.8595 -13.8062
   -13.7299 -13.6291 -13.5201 -13.4865 -13.3821 -13.3526 -13.2962 -13.2310
   -13.1431 -13.1259 -12.9780 -12.5711 -12.1259 -11.6545 -11.4647 -11.4170
   -11.2970 -11.1347 -11.1196 -10.9877 -10.7527 -10.6129 -10.5467 -10.3599
   -10.0690 -10.0262  -9.9377  -9.5246  -9.4897  -9.4758  -9.0433  -8.9716
    -8.9089  -8.7238  -8.6501  -8.5699  -8.5374  -8.4959  -8.3824  -8.3272
    -8.1833  -8.0962  -8.0896  -7.9432  -7.8103  -7.7201  -7.6638  -7.6527
    -7.5880  -7.3453  -7.1565  -7.1463  -6.9883  -6.6874  -6.5938  -6.5935
    -6.2455  -6.1575  -6.0580  -5.8277  -5.6945  -5.5687  -5.4387  -5.2038
    -5.1599  -5.0723  -4.8519  -4.7376  -4.6901  -4.6172  -4.4864  -4.4506
    -4.3586  -4.3294  -4.1596  -3.7124  -3.6387  -3.6207  -3.5257  -3.3708
    -3.1729  -3.0850  -2.9364  -2.6669  -2.5703  -2.3692  -2.1155  -2.0649
    -1.8185  -1.8120  -0.4689  -0.4508  -0.2070  -0.1796   0.0714   0.2707
     0.3157   0.5078   0.6478   0.7429   0.7998   0.8035   0.8383   0.8532
     1.3793   1.8993   1.9975   2.0222   2.0512   2.1579   2.2425   2.4290
     2.5928   2.6466   2.8564   3.0916   3.2995   3.3112   3.4200   3.4367
     3.5142   3.6487   3.6995   3.7534   3.8616   3.9815   4.0184   4.0812
     4.2131   4.2618   4.4553   4.5582   4.6119   4.7284   4.7630   4.8461
     4.9105   5.0109   5.0807   5.1468   5.1757   5.2072   5.2867   5.4356
     5.4648   5.5902   5.7323   5.7687   5.9008   5.9108   6.1706   6.1783
     6.2273   6.3489   6.4244   6.4859   6.5819   6.5937   6.6282   6.8307
     6.8398   6.8593   6.9891   7.2420   7.2530   7.2646   7.3029   7.3107
     7.3415   7.3639   7.4240   7.4451   7.4805   7.5215   7.5486   7.5738
     7.6249   7.6450   7.7966   7.8013   7.8413   7.8660   7.8785   7.9997
     8.0329   8.1543   8.1565   8.2688   8.3247   8.4331   8.4802   8.5217
     8.5315   8.6390   8.7124   8.7178   8.7292   8.7803   8.8109   8.8131
     8.8471   8.8730   8.9390   8.9764   8.9803   9.0521   9.0986   9.2305
     9.2428   9.3001   9.3509   9.4890   9.5166   9.5242   9.5409   9.5551
     9.5743   9.5867   9.6265   9.6267   9.6501   9.6543   9.7211   9.7228
     9.7490   9.7596   9.7794   9.7966   9.8077   9.8371   9.8823   9.8868
     9.9204   9.9708   9.9781  10.0305  10.0547  10.0830  10.1005  10.1633
    10.1827  10.2080  10.2278  10.2342  10.2361  10.2574  10.2799  10.2835
    10.3068  10.3334  10.3389  10.4367  10.5590  10.5932  10.6053  10.7095
    10.7154  10.8018  10.8620  10.8751  10.8918  10.9587  11.0351  11.0535
    11.0746  11.0829  11.1478  11.1968  11.2641  11.2937  11.3345  11.3540
    11.3553  11.3583  11.3851  11.3915  11.4077  11.4448  11.4530  11.4670
    11.4993  11.5374  11.5454  11.5557  11.5856  11.6194  11.6516  11.6740
    11.6762  11.7040  11.7216  11.7488  11.7503  11.7800  11.7885  11.8188
    11.8353  11.8498  11.9139  11.9224  11.9458  11.9473  11.9836  12.0088
    12.0140  12.0654  12.0700  12.1033  12.1183  12.1484  12.1525  12.1570
    12.1576  12.2040  12.2447  12.2456  12.2531  12.2708  12.2829  12.2929
    12.3127  12.3384  12.3532  12.3806  12.3895  12.3985  12.4274  12.4369
    12.4488  12.4752  12.4883  12.4998  12.5153  12.5494  12.5633  12.5804
    12.5957  12.6736  12.7321  12.8625  12.9109  12.9361  13.0191  13.0790
    13.1088  13.1378  13.1400  13.1594  13.1614  13.2672  13.2862  13.3668
    13.3928  13.4691  13.5711  13.6631  13.6673  13.7225  13.7350  13.7873
    13.8255  13.8926  13.9511  13.9830  13.9876  14.0355  14.0580  14.0614
    14.0975  14.2046  14.2530  14.2723  14.3100  14.3529  14.3649  14.3891
    14.4111  14.4150  14.4895  14.5154  14.6156  14.6169  14.6173  14.6257
    14.6521  14.6936  14.7475  14.7563  14.7876  14.8110  14.8298  14.8349
    14.8669  14.8798  14.9630  14.9852  14.9926  14.9963  15.0178  15.0409
    15.1313  15.1571  15.1888  15.2575  15.2853  15.3103  15.3349  15.3713
    15.4189  15.5046  15.5270  15.5368  15.5723  15.6769  15.7153  15.7402
    15.7602  15.7756  15.8100  15.8352  15.8428  15.8773  15.8942  16.0945
    16.1139  16.1332  16.2176  16.2211  16.2655  16.2787  16.2895  16.3395
    16.3727  16.3907  16.5076  16.5549  16.5687  16.5762  16.5794  16.5820
    16.6032  16.6052  16.6592  16.7208  16.7651  16.8035  16.8405  16.8413
    16.8744  16.9259  16.9321  16.9421  16.9582  16.9800  17.0137  17.0582
    17.0641  17.1076  17.1266  17.1460  17.2082  17.2339  17.2778  17.2861
    17.3196  17.3592  17.3720  17.3722

          k = 0.0000 0.0000 0.0235 ( 58535 PWs)   bands (ev):

   -20.6190 -20.5545 -20.4586 -20.3273 -20.1577 -19.9527 -19.7138 -19.4404
   -19.1323 -18.7888 -18.4043 -17.9936 -17.5540 -17.0877 -16.5983 -16.0928
   -16.0740 -16.0153 -15.9275 -15.8114 -15.6574 -15.5782 -15.4676 -15.2674
   -15.0575 -15.0262 -14.7646 -14.6114 -14.4984 -14.3718 -13.6479 -13.5956
   -13.5261 -13.5010 -13.4306 -13.4218 -13.2991 -13.2551 -13.1572 -13.1043
   -13.0500 -12.9947 -12.9592 -12.6926 -12.2492 -11.7748 -11.3494 -11.3374
   -11.2626 -11.1489 -11.0337 -10.8930 -10.7139 -10.6333 -10.4953 -10.2309
   -10.1696  -9.9931  -9.8145  -9.6049  -9.4599  -9.3784  -9.0212  -8.9422
    -8.9214  -8.6983  -8.6245  -8.5120  -8.4886  -8.4676  -8.4063  -8.3571
    -8.1581  -8.0641  -8.0170  -7.9181  -7.8449  -7.7467  -7.6389  -7.6145
    -7.5344  -7.3208  -7.2388  -7.0862  -6.9642  -6.6743  -6.6409  -6.5699
    -6.2143  -6.1347  -6.1347  -5.8130  -5.6729  -5.6395  -5.4428  -5.2164
    -5.1838  -5.1033  -4.8993  -4.7894  -4.6726  -4.6709  -4.5437  -4.5122
    -4.4263  -4.3736  -4.1459  -3.8316  -3.7587  -3.6476  -3.6126  -3.4943
    -3.2994  -3.0908  -3.0648  -2.8042  -2.5937  -2.5163  -2.2251  -2.1785
    -1.9867  -1.9411  -0.3526  -0.2893  -0.1350  -0.0470   0.2248   0.2711
     0.4659   0.6573   0.7762   0.7976   0.8935   0.9548   0.9900   1.0053
     1.3420   1.9281   1.9515   2.0509   2.0803   2.1868   2.2717   2.4580
     2.5945   2.6219   2.8853   3.1207   3.2573   3.3282   3.4490   3.4678
     3.5455   3.6777   3.7287   3.7819   3.8907   3.9643   4.0107   4.1092
     4.2420   4.2909   4.4845   4.5871   4.6271   4.6814   4.7919   4.8748
     4.9392   5.0395   5.1108   5.1752   5.2030   5.2360   5.3158   5.3705
     5.4934   5.6177   5.7526   5.7966   5.9284   5.9459   6.1286   6.1980
     6.2555   6.3754   6.4352   6.5064   6.6169   6.6268   6.6458   6.7977
     6.8452   6.8578   7.0123   7.2679   7.2733   7.2878   7.3062   7.3288
     7.3318   7.3648   7.4082   7.4566   7.4576   7.4635   7.5512   7.5806
     7.5923   7.6465   7.7093   7.8144   7.8168   7.8689   7.9134   7.9298
     8.0276   8.0827   8.0919   8.2293   8.2660   8.4034   8.4414   8.5073
     8.5145   8.5451   8.5529   8.5882   8.6290   8.6602   8.6621   8.7525
     8.7775   8.8093   8.8493   8.8993   8.9190   8.9686   9.0045   9.0587
     9.0747   9.1546   9.1799   9.3476   9.4284   9.4303   9.5243   9.5550
     9.5601   9.5661   9.5734   9.6152   9.6586   9.6596   9.6804   9.6864
     9.7610   9.7818   9.7820   9.7896   9.7912   9.7985   9.8502   9.8560
     9.8593   9.8794   9.9068   9.9463   9.9555   9.9639  10.0120  10.0152
    10.0333  10.0580  10.0631  10.0959  10.0997  10.1080  10.1666  10.1999
    10.2317  10.2519  10.2715  10.3329  10.4260  10.4753  10.5358  10.6453
    10.7369  10.7534  10.8119  10.8225  10.8782  10.8875  10.9116  11.0399
    11.0460  11.0890  11.1745  11.2161  11.2202  11.2515  11.2648  11.2678
    11.3196  11.3735  11.3848  11.4080  11.4129  11.4367  11.4428  11.4633
    11.4920  11.5228  11.5616  11.6083  11.6126  11.6446  11.6671  11.6770
    11.7115  11.7312  11.7408  11.7477  11.7723  11.8042  11.8077  11.8568
    11.8696  11.8699  11.9374  11.9767  11.9795  12.0176  12.0201  12.0428
    12.0554  12.0966  12.1015  12.1352  12.1365  12.1555  12.1865  12.1953
    12.2017  12.2064  12.2174  12.2269  12.2474  12.2518  12.2896  12.3009
    12.3144  12.3509  12.3835  12.3912  12.3927  12.4615  12.4687  12.4790
    12.4977  12.5048  12.5312  12.5599  12.5780  12.6001  12.6482  12.6907
    12.7193  12.7509  12.7516  12.7749  12.8245  12.8252  12.8620  13.0463
    13.0876  13.1346  13.1472  13.1787  13.2276  13.2526  13.2854  13.3270
    13.4071  13.5687  13.5831  13.6113  13.6276  13.7162  13.7850  13.8082
    13.8494  13.9249  13.9266  14.0381  14.0842  14.1156  14.1925  14.2049
    14.2964  14.3412  14.3583  14.3836  14.3858  14.4297  14.4704  14.4989
    14.5090  14.5683  14.5720  14.5810  14.6345  14.6717  14.6898  14.7197
    14.7278  14.7352  14.7670  14.7884  14.7992  14.8213  14.8481  14.8757
    14.8791  14.8994  14.9414  14.9626  14.9908  15.0249  15.0761  15.0804
    15.1184  15.1705  15.2003  15.3010  15.3171  15.3328  15.3836  15.4330
    15.4352  15.5069  15.5319  15.5525  15.5993  15.6287  15.6535  15.6838
    15.7045  15.7485  15.8358  15.8388  15.8391  15.9007  15.9672  16.0648
    16.1449  16.1933  16.2008  16.2023  16.2194  16.3126  16.3671  16.3752
    16.3850  16.4025  16.5398  16.5934  16.6083  16.6087  16.6478  16.6576
    16.6858  16.7288  16.7306  16.7531  16.7821  16.8026  16.8183  16.8257
    16.8497  16.8629  16.9001  16.9683  17.0147  17.0203  17.0980  17.1383
    17.1700  17.1792  17.1803  17.2064  17.2252  17.2614  17.2658  17.2758
    17.2897  17.3051  17.3293  17.3439

          k = 0.0000 0.0000 0.0282 ( 58548 PWs)   bands (ev):

   -20.5929 -20.5284 -20.4325 -20.3013 -20.1318 -19.9269 -19.6880 -19.4148
   -19.1068 -18.7635 -18.3792 -17.9688 -17.5296 -17.0639 -16.5759 -16.2584
   -16.1982 -16.1151 -16.0673 -15.9919 -15.8357 -15.6607 -15.5475 -15.4409
   -15.1970 -15.0606 -14.9238 -14.6946 -14.5992 -14.4849 -13.5165 -13.5030
   -13.4259 -13.3748 -13.3014 -13.2185 -13.2149 -13.1717 -13.0886 -12.9575
   -12.8990 -12.8330 -12.8307 -12.7804 -12.3801 -11.9050 -11.4097 -11.2156
   -11.1998 -11.0166 -10.9792 -10.8439 -10.7218 -10.5431 -10.4138 -10.2623
   -10.0983  -9.9562  -9.7032  -9.6800  -9.4308  -9.2530  -9.1148  -8.9128
    -8.8129  -8.6671  -8.5934  -8.5291  -8.4809  -8.4374  -8.3623  -8.3261
    -8.1273  -8.0347  -7.9604  -7.9011  -7.8875  -7.7269  -7.6086  -7.5825
    -7.4724  -7.3246  -7.2908  -7.0257  -6.9348  -6.7640  -6.5955  -6.5412
    -6.2220  -6.1863  -6.1070  -5.8037  -5.7228  -5.6465  -5.4534  -5.2913
    -5.1595  -5.1378  -4.9630  -4.8501  -4.7374  -4.6513  -4.6200  -4.5849
    -4.5002  -4.4270  -4.1293  -3.9672  -3.8949  -3.7848  -3.6337  -3.6044
    -3.4414  -3.2146  -3.0916  -2.9556  -2.6749  -2.6227  -2.3919  -2.2524
    -2.1547  -2.0764  -0.2325  -0.1291  -0.0826   0.1199   0.2729   0.3912
     0.6327   0.7493   0.8257   0.9681   1.0659   1.1286   1.1649   1.1809
     1.2982   1.8970   1.9632   2.0859   2.1158   2.2222   2.3072   2.4934
     2.5328   2.6574   2.9207   3.1563   3.1921   3.3634   3.4843   3.5067
     3.5818   3.7131   3.7644   3.8141   3.9030   3.9262   4.0463   4.1447
     4.2772   4.3264   4.5202   4.5817   4.6224   4.6903   4.8272   4.9098
     4.9743   5.0746   5.1468   5.2099   5.2361   5.2712   5.2949   5.3512
     5.5282   5.6512   5.7706   5.8300   5.9619   5.9863   6.0764   6.2307
     6.2896   6.4065   6.4478   6.5270   6.6590   6.6662   6.6665   6.7242
     6.8575   6.8784   7.0386   7.2839   7.2984   7.3133   7.3214   7.3298
     7.3345   7.3496   7.3729   7.3800   7.4245   7.4760   7.4965   7.5777
     7.6203   7.6412   7.7011   7.7240   7.8315   7.8387   7.8975   7.9546
     7.9971   8.0062   8.0812   8.1730   8.1737   8.2291   8.2846   8.3616
     8.4013   8.4119   8.4375   8.5326   8.5460   8.5868   8.5917   8.5973
     8.6650   8.7939   8.8044   8.8562   8.8905   8.9001   8.9231   8.9669
     9.0000   9.0158   9.0625   9.1262   9.2433   9.3665   9.3954   9.4587
     9.4763   9.4975   9.5956   9.6067   9.6161   9.6487   9.6876   9.6899
     9.6998   9.7109   9.7116   9.7658   9.7658   9.7929   9.7987   9.8000
     9.8108   9.8231   9.8258   9.8446   9.8477   9.8517   9.8619   9.8688
     9.8887   9.9027   9.9525   9.9792  10.0157  10.0671  10.1177  10.1261
    10.1542  10.2107  10.2680  10.2867  10.2968  10.4026  10.4374  10.4538
    10.6667  10.6760  10.7595  10.7703  10.8248  10.9174  10.9199  10.9776
    10.9994  11.0371  11.0401  11.0988  11.1132  11.1240  11.1343  11.1852
    11.1969  11.2465  11.2985  11.3039  11.3825  11.4212  11.4220  11.4597
    11.4915  11.4921  11.5277  11.5777  11.5945  11.6470  11.7082  11.7224
    11.7441  11.7808  11.8020  11.8338  11.8425  11.8722  11.9257  11.9302
    11.9591  11.9728  12.0089  12.0241  12.0417  12.0478  12.0605  12.0852
    12.1082  12.1244  12.1437  12.1488  12.1559  12.1673  12.2200  12.2222
    12.2276  12.2277  12.2363  12.2365  12.2618  12.2792  12.2969  12.3307
    12.3332  12.3515  12.3750  12.3831  12.4361  12.5062  12.5288  12.5402
    12.5690  12.5693  12.5706  12.5760  12.6054  12.6414  12.6733  12.6917
    12.7004  12.7152  12.8049  12.8940  12.9284  12.9435  12.9761  12.9852
    12.9903  13.0164  13.0788  13.1951  13.2666  13.2987  13.3306  13.3907
    13.4255  13.5053  13.5198  13.6198  13.6901  13.6938  13.7628  13.7754
    13.9556  13.9838  14.0626  14.0692  14.0873  14.1250  14.1926  14.2464
    14.2997  14.3237  14.3982  14.5111  14.5524  14.5760  14.5953  14.6143
    14.6431  14.6600  14.6779  14.6950  14.7054  14.7073  14.7149  14.7466
    14.7829  14.7860  14.8289  14.8332  14.8355  14.8385  14.8532  14.8817
    14.9578  14.9764  14.9868  15.0260  15.0366  15.0815  15.0879  15.1431
    15.1725  15.2222  15.2504  15.2529  15.3833  15.4075  15.4259  15.4727
    15.4786  15.4808  15.5336  15.5457  15.5892  15.6099  15.6474  15.6736
    15.7311  15.7713  15.8978  15.9252  15.9332  15.9743  15.9828  15.9941
    16.1513  16.1759  16.1842  16.2371  16.2653  16.3720  16.3902  16.3916
    16.4339  16.4556  16.5016  16.5951  16.6345  16.6470  16.6702  16.6942
    16.7233  16.7331  16.7462  16.7724  16.7854  16.8294  16.8651  16.8930
    16.9349  16.9666  16.9999  17.0365  17.0394  17.0430  17.0624  17.0786
    17.1400  17.1445  17.1614  17.1800  17.2134  17.2145  17.2156  17.2277
    17.2344  17.2549  17.2850  17.2974

          k = 0.0000 0.0000 0.0329 ( 58586 PWs)   bands (ev):

   -20.5622 -20.4977 -20.4018 -20.2706 -20.1012 -19.8964 -19.6577 -19.3846
   -19.0768 -18.7336 -18.3496 -17.9396 -17.5008 -17.0361 -16.5501 -16.4424
   -16.3816 -16.2944 -16.1731 -16.0602 -16.0031 -15.8342 -15.6155 -15.5391
   -15.3637 -15.1317 -15.0151 -14.8423 -14.6482 -14.6092 -13.5967 -13.5024
   -13.3291 -13.1966 -13.1486 -13.1249 -13.0754 -12.9823 -12.9426 -12.8733
   -12.7791 -12.7492 -12.6440 -12.6217 -12.5108 -12.0401 -11.5380 -11.0835
   -11.0752 -11.0200 -10.8596 -10.8287 -10.5764 -10.5234 -10.3777 -10.2288
   -10.0047  -9.9095  -9.7667  -9.5438  -9.4108  -9.2023  -9.1215  -8.8877
    -8.6936  -8.6302  -8.6225  -8.5566  -8.4442  -8.4067  -8.2895  -8.2600
    -8.0909  -8.0395  -8.0016  -7.8514  -7.8333  -7.6928  -7.5728  -7.5512
    -7.4660  -7.3559  -7.2555  -6.9745  -6.9001  -6.8544  -6.5554  -6.5073
    -6.3170  -6.1647  -6.0742  -5.8159  -5.8023  -5.6154  -5.4732  -5.3800
    -5.1805  -5.1308  -5.0434  -4.9201  -4.8176  -4.7167  -4.6673  -4.6263
    -4.5769  -4.4892  -4.1154  -4.1103  -4.0436  -3.9347  -3.7852  -3.6044
    -3.5853  -3.3712  -3.1166  -3.0981  -2.8407  -2.6586  -2.5612  -2.3432
    -2.3147  -2.2155  -0.1105  -0.0270   0.0330   0.2740   0.2938   0.5665
     0.7201   0.8119   1.0089   1.1551   1.2490   1.2561   1.3213   1.3592
     1.3762   1.8352   2.0047   2.1274   2.1579   2.2640   2.3493   2.4626
     2.5353   2.6995   2.9625   3.1172   3.1984   3.4049   3.5261   3.5527
     3.6191   3.7549   3.8066   3.8144   3.8757   3.9680   4.0883   4.1869
     4.3189   4.3683   4.5032   4.5623   4.6641   4.7288   4.8688   4.9512
     5.0157   5.1161   5.1884   5.2098   5.2509   5.2750   5.3128   5.3931
     5.5694   5.6906   5.7750   5.8684   6.0013   6.0321   6.0342   6.2676
     6.3294   6.4406   6.4619   6.5441   6.6398   6.6892   6.7083   6.7127
     6.8630   6.9001   7.0655   7.2905   7.2933   7.3039   7.3084   7.3250
     7.3264   7.3379   7.3396   7.3786   7.3956   7.4147   7.4940   7.5079
     7.6188   7.6478   7.6669   7.7264   7.7980   7.8370   7.9026   7.9072
     7.9531   8.0005   8.0012   8.0208   8.0329   8.1168   8.1234   8.1678
     8.2429   8.2480   8.3937   8.4448   8.4669   8.4736   8.4746   8.6103
     8.6353   8.6620   8.7305   8.7372   8.8392   8.8440   8.9012   8.9387
     8.9555   8.9603   8.9853   9.0237   9.0723   9.2095   9.2519   9.3105
     9.3154   9.3629   9.4391   9.4711   9.5247   9.5583   9.5724   9.5735
     9.6548   9.6551   9.6668   9.6770   9.6837   9.6960   9.7079   9.7105
     9.7227   9.7337   9.7529   9.7711   9.7960   9.8491   9.8700   9.8797
     9.8962   9.8982   9.9208   9.9397   9.9415  10.0071  10.0522  10.0938
    10.0941  10.1067  10.1978  10.2472  10.2987  10.3050  10.3183  10.4315
    10.4330  10.6232  10.6762  10.7063  10.7790  10.8085  10.8198  10.8343
    10.8628  10.9518  10.9534  10.9734  10.9872  11.0206  11.0257  11.0616
    11.1812  11.2043  11.2399  11.2429  11.2771  11.3383  11.3928  11.4637
    11.4842  11.5044  11.5455  11.5692  11.5701  11.5942  11.6705  11.6894
    11.7350  11.8034  11.8200  11.8310  11.8725  11.8774  11.9309  11.9368
    11.9610  12.0309  12.0508  12.0542  12.0634  12.0767  12.0805  12.1249
    12.1529  12.1594  12.1910  12.2001  12.2034  12.2183  12.2364  12.2574
    12.2738  12.3011  12.3100  12.3463  12.3485  12.3556  12.3683  12.3977
    12.3986  12.4360  12.4397  12.4803  12.4928  12.4938  12.5014  12.5698
    12.5822  12.5992  12.6142  12.6220  12.6483  12.6505  12.7633  12.7821
    12.7890  12.7945  12.8011  12.8448  12.8485  12.8671  12.8959  13.0852
    13.0950  13.1309  13.2241  13.2813  13.2856  13.2989  13.3022  13.3630
    13.4105  13.4494  13.5844  13.6027  13.6629  13.7324  13.7881  13.8644
    13.9415  13.9751  14.0262  14.0528  14.1515  14.1519  14.1913  14.2859
    14.3521  14.3804  14.4066  14.4375  14.4377  14.4697  14.5970  14.6790
    14.7105  14.7362  14.7461  14.8004  14.8157  14.8307  14.8656  14.8684
    14.8857  14.9080  14.9218  14.9304  14.9343  14.9380  14.9501  14.9533
    14.9880  15.0432  15.0588  15.0628  15.0821  15.1816  15.1833  15.2061
    15.2307  15.2749  15.3287  15.3373  15.3402  15.3484  15.4323  15.4458
    15.4708  15.4832  15.5533  15.6181  15.6222  15.7441  15.7815  15.8073
    15.8481  15.8548  15.8637  15.9533  15.9646  15.9661  16.0568  16.1145
    16.1187  16.1343  16.2245  16.2990  16.3292  16.3321  16.3600  16.4541
    16.4552  16.4632  16.4985  16.5687  16.6482  16.6773  16.6870  16.6978
    16.7445  16.7758  16.8003  16.8116  16.8377  16.8405  16.8603  16.8890
    16.9281  16.9594  16.9826  17.0271  17.0288  17.0936  17.0983  17.1016
    17.1060  17.1244  17.1482  17.1543  17.1551  17.1885  17.1966  17.2085
    17.2236  17.2350  17.3315  17.3953

          k = 0.0000 0.0000 0.0376 ( 58588 PWs)   bands (ev):

   -20.5267 -20.4622 -20.3664 -20.2353 -20.0659 -19.8612 -19.6226 -19.3497
   -19.0421 -18.6992 -18.3154 -17.9059 -17.4678 -17.0042 -16.6254 -16.5667
   -16.5192 -16.4759 -16.3523 -16.2019 -16.0171 -16.0103 -15.7870 -15.5785
   -15.4762 -15.2869 -15.0241 -14.9993 -14.7404 -14.7024 -13.6634 -13.5383
   -13.3955 -13.1472 -12.9951 -12.9616 -12.9119 -12.8443 -12.7533 -12.7259
   -12.6470 -12.5977 -12.5387 -12.4619 -12.4481 -12.1749 -11.6729 -11.1514
   -10.9528 -10.9026 -10.7490 -10.6947 -10.5965 -10.4092 -10.3496 -10.0792
   -10.0393  -9.8579  -9.7003  -9.4642  -9.3905  -9.2305  -8.9905  -8.8855
    -8.6933  -8.5877  -8.5725  -8.5142  -8.4018  -8.3809  -8.2473  -8.1549
    -8.1336  -8.0489  -7.9653  -7.8097  -7.7535  -7.6476  -7.5664  -7.5315
    -7.5045  -7.2976  -7.2147  -6.9973  -6.8814  -6.8600  -6.5294  -6.4682
    -6.4117  -6.1525  -6.0365  -5.9165  -5.8110  -5.5797  -5.5040  -5.4800
    -5.2341  -5.1400  -5.0979  -5.0003  -4.9138  -4.8293  -4.7578  -4.6565
    -4.5977  -4.5594  -4.2731  -4.2022  -4.0937  -4.0884  -3.9453  -3.7586
    -3.5827  -3.5357  -3.2837  -3.1081  -3.0091  -2.7437  -2.6887  -2.4964
    -2.4192  -2.3571   0.0126   0.0367   0.1912   0.2831   0.4648   0.6882
     0.7490   1.0000   1.1955   1.2035   1.3552   1.4607   1.5293   1.5695
     1.5878   1.7671   2.0526   2.1751   2.2064   2.3122   2.3849   2.3979
     2.5836   2.7481   3.0108   3.0337   3.2470   3.4527   3.5743   3.6054
     3.6371   3.7699   3.8031   3.8553   3.9167   4.0163   4.1367   4.2356
     4.3668   4.4137   4.4167   4.6108   4.7119   4.7761   4.9166   4.9990
     5.0636   5.1161   5.1639   5.2346   5.2982   5.3192   5.3606   5.4413
     5.6168   5.7357   5.7486   5.9108   6.0209   6.0464   6.0833   6.3066
     6.3742   6.4709   6.4810   6.5460   6.5528   6.7145   6.7641   6.7652
     6.8550   6.9202   7.0870   7.1900   7.2657   7.2666   7.2910   7.2952
     7.3234   7.3461   7.3489   7.3566   7.3871   7.4336   7.4379   7.5007
     7.5473   7.5535   7.6808   7.7135   7.7200   7.7478   7.7742   7.8030
     7.8834   7.8975   7.9105   7.9804   7.9824   8.0502   8.0544   8.0863
     8.1202   8.1736   8.2452   8.2850   8.3673   8.3794   8.4354   8.5248
     8.5758   8.6425   8.6598   8.6687   8.6815   8.7475   8.8120   8.9073
     8.9296   8.9608   8.9909   9.0024   9.0070   9.0333   9.0810   9.1249
     9.1863   9.2254   9.2464   9.2615   9.3246   9.3255   9.3762   9.4312
     9.4414   9.5027   9.5095   9.6076   9.6103   9.6413   9.6918   9.6922
     9.7150   9.7231   9.7663   9.7665   9.7693   9.7969   9.7973   9.8788
     9.8940   9.9005   9.9116   9.9207   9.9315   9.9539   9.9810  10.0519
    10.1034  10.1137  10.1302  10.1736  10.1927  10.2263  10.3369  10.3408
    10.4398  10.4671  10.5012  10.5280  10.6007  10.6099  10.6487  10.7515
    10.7678  10.8473  10.8632  10.8907  10.9395  10.9478  10.9699  11.0102
    11.0103  11.0618  11.1815  11.2683  11.2833  11.3110  11.3638  11.3978
    11.4708  11.4751  11.5120  11.5404  11.5642  11.6013  11.6231  11.7102
    11.7321  11.7531  11.7840  11.8628  11.8687  11.8749  11.8919  11.9374
    11.9380  11.9929  12.0046  12.0234  12.0401  12.0586  12.1130  12.1430
    12.1723  12.1892  12.2106  12.2135  12.2217  12.2529  12.2722  12.2841
    12.3252  12.3268  12.3631  12.3764  12.4085  12.4300  12.4410  12.4723
    12.4833  12.5184  12.5649  12.5801  12.6111  12.6138  12.6352  12.6593
    12.6683  12.6785  12.6786  12.6833  12.6933  12.7048  12.7217  12.7254
    12.7331  12.8259  12.8653  12.8744  12.9037  12.9832  12.9851  13.1331
    13.1583  13.1776  13.1884  13.2474  13.2935  13.3191  13.3662  13.4215
    13.4235  13.4811  13.5296  13.5936  13.7406  13.7877  13.8168  13.8373
    13.9423  13.9982  14.0004  14.0546  14.1054  14.1496  14.2000  14.2476
    14.2754  14.2867  14.3973  14.4517  14.4772  14.5967  14.6025  14.6826
    14.7198  14.7384  14.7799  14.8046  14.8255  14.8367  14.8498  14.9316
    14.9581  14.9899  14.9997  15.0337  15.0509  15.0738  15.0842  15.1191
    15.1273  15.1394  15.1799  15.1910  15.2226  15.2260  15.2478  15.2532
    15.2629  15.2825  15.3121  15.3543  15.4167  15.4779  15.5283  15.5895
    15.5907  15.5989  15.6439  15.6490  15.6837  15.7585  15.8031  15.8243
    15.8539  15.9231  15.9906  15.9922  16.0044  16.0466  16.0976  16.1456
    16.1522  16.1751  16.2290  16.3219  16.3805  16.4192  16.4352  16.4748
    16.4874  16.5087  16.5113  16.6186  16.6275  16.6397  16.6414  16.6953
    16.7017  16.7366  16.7557  16.7780  16.8113  16.8359  16.8462  16.8694
    16.8904  16.9083  16.9942  17.0180  17.0507  17.0514  17.0716  17.0886
    17.0978  17.1338  17.1414  17.1915  17.2035  17.2166  17.2774  17.2890
    17.3243  17.3512  17.3695  17.3948

          k = 0.0000 0.0000 0.0423 ( 58618 PWs)   bands (ev):

   -20.4864 -20.4220 -20.3262 -20.1952 -20.0259 -19.8213 -19.5829 -19.3102
   -19.0028 -18.6602 -18.2768 -17.8678 -17.4306 -16.9689 -16.8064 -16.7458
   -16.6554 -16.5424 -16.4773 -16.3773 -16.1839 -16.0188 -15.9303 -15.7294
   -15.4747 -15.4504 -15.1557 -15.0308 -14.8724 -14.7709 -13.7134 -13.6286
   -13.3975 -13.2609 -12.9542 -12.8208 -12.7219 -12.6740 -12.6098 -12.5430
   -12.5220 -12.4169 -12.3727 -12.3088 -12.2629 -12.2551 -11.8086 -11.2816
   -10.8248 -10.7377 -10.7067 -10.6462 -10.5080 -10.2894 -10.2380 -10.1373
    -9.9127  -9.8083  -9.5571  -9.5440  -9.3052  -9.1602  -8.9519  -8.8593
    -8.6945  -8.5396  -8.4661  -8.4553  -8.3833  -8.3539  -8.1996  -8.1973
    -8.0532  -8.0014  -7.9285  -7.7626  -7.6839  -7.6630  -7.5896  -7.4848
    -7.4684  -7.2306  -7.1686  -7.0977  -6.8416  -6.8147  -6.5653  -6.4589
    -6.4240  -6.1555  -6.0196  -5.9939  -5.8320  -5.5894  -5.5472  -5.5393
    -5.3001  -5.2520  -5.0920  -5.0608  -5.0314  -4.9488  -4.8549  -4.7402
    -4.6368  -4.5657  -4.4377  -4.3671  -4.2593  -4.1144  -4.0620  -3.9263
    -3.7050  -3.5734  -3.4533  -3.1915  -3.1089  -2.9128  -2.7385  -2.6625
    -2.5162  -2.5002   0.1047   0.1358   0.2939   0.3485   0.6389   0.6580
     0.9338   1.1371   1.1962   1.4066   1.5657   1.6770   1.6940   1.7499
     1.7931   1.8132   2.1068   2.2291   2.2614   2.3008   2.3668   2.4529
     2.6384   2.8031   2.9429   3.0655   3.3021   3.5068   3.5885   3.6289
     3.6643   3.7840   3.8576   3.9105   3.9707   4.0707   4.1914   4.2907
     4.3160   4.4216   4.4716   4.6658   4.7656   4.8300   4.9705   5.0150
     5.0532   5.1178   5.2182   5.2834   5.3517   5.3684   5.4147   5.4959
     5.6702   5.6887   5.7862   5.9559   6.0423   6.0966   6.1395   6.3418
     6.4208   6.4442   6.4844   6.5115   6.5500   6.7410   6.8238   6.8264
     6.8298   6.9344   7.0794   7.0904   7.2117   7.2187   7.2554   7.2841
     7.2926   7.3120   7.3287   7.3773   7.3906   7.4162   7.4229   7.4464
     7.4773   7.4928   7.4983   7.5320   7.6123   7.6602   7.6891   7.7309
     7.7632   7.7793   7.8225   7.9099   7.9930   8.0543   8.0557   8.0883
     8.0905   8.1098   8.1724   8.1786   8.2273   8.2591   8.3638   8.4419
     8.4629   8.5216   8.5683   8.6303   8.6687   8.6995   8.7137   8.7728
     8.8463   8.9032   8.9042   8.9394   8.9667   8.9866   9.0008   9.0363
     9.0460   9.0467   9.0941   9.0984   9.1243   9.1613   9.2059   9.2585
     9.3091   9.3515   9.3685   9.4660   9.4705   9.4783   9.5262   9.6399
     9.6487   9.6680   9.6736   9.6857   9.7766   9.8126   9.8344   9.8489
     9.8781   9.9031   9.9201   9.9236   9.9450   9.9710   9.9988  10.0046
    10.0184  10.0752  10.1083  10.1667  10.1789  10.1802  10.2242  10.2490
    10.3381  10.3674  10.3806  10.4039  10.4674  10.4925  10.5012  10.5234
    10.6438  10.6711  10.8057  10.8126  10.8446  10.8531  10.9296  10.9590
    10.9877  11.0452  11.0629  11.1934  11.2147  11.3038  11.3229  11.3471
    11.3971  11.4158  11.4744  11.5658  11.5827  11.6056  11.6330  11.6493
    11.6729  11.7321  11.7460  11.7932  11.8664  11.8807  11.9245  11.9355
    11.9858  11.9858  12.0083  12.0208  12.0319  12.0604  12.0633  12.1588
    12.1769  12.2222  12.2434  12.2449  12.2629  12.2681  12.2802  12.2857
    12.3080  12.3166  12.3496  12.3595  12.3951  12.4231  12.4623  12.4874
    12.5064  12.5122  12.5556  12.6124  12.6166  12.6621  12.6637  12.6744
    12.7370  12.7501  12.7854  12.8363  12.8607  12.8949  12.9000  12.9099
    12.9166  12.9213  12.9268  12.9693  12.9908  13.0361  13.0438  13.0617
    13.1471  13.1521  13.2096  13.2640  13.3352  13.3371  13.3805  13.4329
    13.4569  13.4998  13.5680  13.6092  13.6823  13.7924  13.8313  13.8511
    13.8877  13.9070  14.0715  14.0873  14.1192  14.1397  14.1692  14.1705
    14.2727  14.3188  14.3460  14.4382  14.5186  14.6017  14.6569  14.6615
    14.6976  14.7314  14.7988  14.8274  14.8878  14.8888  14.8955  14.9420
    14.9813  14.9921  14.9926  15.0504  15.1319  15.1395  15.1676  15.1877
    15.2015  15.2593  15.2714  15.2887  15.3099  15.3455  15.3736  15.3757
    15.4302  15.4728  15.4876  15.5161  15.5250  15.5517  15.5570  15.6129
    15.6333  15.6886  15.6894  15.7062  15.7563  15.8248  15.8383  15.9007
    15.9235  15.9500  16.0156  16.0362  16.0624  16.0661  16.1496  16.1789
    16.2033  16.3178  16.3635  16.3972  16.4049  16.4166  16.4406  16.4774
    16.4797  16.4870  16.5235  16.5371  16.5804  16.6012  16.6101  16.6383
    16.6530  16.7010  16.7781  16.7916  16.8015  16.8121  16.8222  16.9131
    16.9481  16.9604  16.9948  17.0523  17.0554  17.0629  17.0720  17.0765
    17.1068  17.1836  17.2134  17.2226  17.2484  17.2508  17.2784  17.3229
    17.3564  17.3636  17.3645  17.3962

          k = 0.0000 0.0000 0.0469 ( 58660 PWs)   bands (ev):

   -20.4415 -20.3771 -20.2814 -20.1504 -19.9813 -19.7768 -19.5386 -19.2660
   -18.9589 -18.6166 -18.2337 -17.8254 -17.3893 -16.9854 -16.9313 -16.9236
   -16.8307 -16.7122 -16.5510 -16.4577 -16.3461 -16.1508 -15.9384 -15.8942
   -15.6119 -15.4633 -15.3036 -15.0713 -14.9779 -14.8546 -13.7471 -13.7298
   -13.3865 -13.3770 -12.9508 -12.9023 -12.4786 -12.4684 -12.4587 -12.4318
   -12.3660 -12.2872 -12.1908 -12.1520 -12.0973 -12.0707 -11.9355 -11.4148
   -10.8721 -10.6275 -10.5813 -10.5202 -10.3299 -10.2571 -10.2142 -10.0477
    -9.7529  -9.7461  -9.6486  -9.3993  -9.2436  -9.0499  -9.0317  -8.7616
    -8.6284  -8.4859  -8.4542  -8.4125  -8.3425  -8.3004  -8.1885  -8.1463
    -7.9631  -7.9484  -7.9063  -7.7410  -7.7099  -7.6252  -7.5234  -7.4326
    -7.4246  -7.2077  -7.1681  -7.1171  -6.8019  -6.7641  -6.6687  -6.4535
    -6.3746  -6.1956  -6.1036  -5.9464  -5.8679  -5.7057  -5.6040  -5.4943
    -5.3794  -5.3785  -5.1951  -5.1736  -5.0683  -5.0197  -4.9572  -4.8289
    -4.7206  -4.6071  -4.5367  -4.5308  -4.4290  -4.2838  -4.0977  -4.0383
    -3.8764  -3.6361  -3.5526  -3.3628  -3.1246  -3.0852  -2.8279  -2.7906
    -2.6436  -2.6176   0.1768   0.2567   0.3114   0.5039   0.6287   0.8133
     1.0790   1.1217   1.3948   1.6072   1.6256   1.7842   1.9028   1.9809
     2.0276   2.0499   2.1674   2.2114   2.2895   2.3228   2.4279   2.5144
     2.6996   2.8456   2.8646   3.1267   3.3637   3.4983   3.5671   3.6899
     3.7282   3.8381   3.9184   3.9721   4.0321   4.1296   4.2151   4.2525
     4.3520   4.4824   4.5329   4.7271   4.8220   4.8900   4.9107   5.0305
     5.1138   5.1785   5.2788   5.3279   5.4113   5.4215   5.4751   5.5567
     5.6143   5.7294   5.8410   6.0005   6.0871   6.1504   6.1989   6.3385
     6.3553   6.4447   6.5045   6.5359   6.5453   6.7649   6.8014   6.8870
     6.8950   6.9339   6.9609   7.0629   7.1646   7.1716   7.1736   7.2044
     7.2205   7.2519   7.2577   7.2875   7.3332   7.3338   7.3737   7.3897
     7.4266   7.4267   7.4653   7.5260   7.5283   7.5367   7.5961   7.6168
     7.6700   7.6716   7.8059   7.8442   7.8907   7.9041   8.0293   8.0459
     8.0565   8.1539   8.1642   8.1748   8.2077   8.2100   8.2487   8.2732
     8.4217   8.4489   8.5122   8.5191   8.5417   8.6415   8.6602   8.6717
     8.7282   8.7496   8.7514   8.8149   8.8235   8.8654   8.8682   8.8921
     8.9696   9.0121   9.0401   9.0503   9.0810   9.0831   9.0987   9.1044
     9.1518   9.2391   9.2884   9.3010   9.3349   9.3547   9.3677   9.4358
     9.4995   9.5169   9.5939   9.6019   9.6686   9.8324   9.8343   9.8416
     9.8765   9.9070   9.9079   9.9118   9.9233   9.9340   9.9858   9.9999
    10.0035  10.0395  10.0577  10.0782  10.1025  10.1137  10.1659  10.2327
    10.2439  10.2539  10.2608  10.3249  10.3732  10.4001  10.4288  10.4673
    10.5220  10.5695  10.6422  10.6510  10.7703  10.8024  10.8189  10.9576
    10.9743  10.9918  11.0428  11.1061  11.1219  11.2233  11.2395  11.2941
    11.3551  11.3851  11.3870  11.4210  11.6174  11.6245  11.6481  11.6677
    11.6957  11.6999  11.7314  11.8287  11.8357  11.8958  11.9233  11.9484
    11.9717  11.9835  11.9850  12.0040  12.0394  12.0642  12.1042  12.1231
    12.1598  12.1617  12.2311  12.2315  12.2392  12.2476  12.2518  12.3252
    12.3369  12.3602  12.3816  12.3901  12.3939  12.4111  12.4319  12.4940
    12.5270  12.5596  12.5715  12.5715  12.6460  12.6690  12.7231  12.7685
    12.8065  12.8309  12.8336  12.8526  12.8833  12.9314  12.9390  12.9652
    12.9687  12.9973  13.0361  13.0942  13.1319  13.1380  13.1797  13.2006
    13.2025  13.2117  13.2764  13.3607  13.3855  13.3900  13.3979  13.4272
    13.4805  13.5402  13.5664  13.5674  13.5794  13.7210  13.7868  13.8122
    13.8390  13.9269  14.0135  14.0734  14.1304  14.1356  14.1471  14.2538
    14.3152  14.3688  14.3840  14.4015  14.5594  14.5668  14.5839  14.6158
    14.6529  14.7385  14.7846  14.8618  14.8702  14.9491  14.9692  15.0074
    15.0355  15.0369  15.1111  15.1386  15.1745  15.1848  15.2282  15.2347
    15.2906  15.3350  15.3523  15.3543  15.3861  15.3977  15.4973  15.5092
    15.5299  15.5302  15.5581  15.5709  15.5869  15.6647  15.6808  15.7551
    15.7653  15.7756  15.7839  15.7996  15.8124  15.8562  15.8944  15.9263
    15.9401  16.0204  16.0297  16.1005  16.1384  16.1418  16.1445  16.1899
    16.2465  16.3340  16.3393  16.3799  16.3838  16.4356  16.4461  16.4557
    16.4850  16.4965  16.5350  16.5687  16.5690  16.5936  16.6207  16.6358
    16.6461  16.7136  16.7447  16.7495  16.7777  16.8464  16.8531  16.9267
    16.9951  17.0502  17.0672  17.0817  17.1201  17.1352  17.1537  17.2041
    17.2052  17.2171  17.2506  17.2636  17.2643  17.2710  17.3216  17.3221
    17.3285  17.3755  17.3970  17.4188

          k = 0.0000 0.0000 0.0516 ( 58670 PWs)   bands (ev):

   -20.3918 -20.3275 -20.2319 -20.1010 -19.9319 -19.7276 -19.4896 -19.2173
   -18.9105 -18.5686 -18.1863 -17.7787 -17.3445 -17.1605 -17.0984 -17.0105
   -16.8868 -16.8844 -16.7188 -16.5451 -16.3907 -16.3146 -16.0569 -15.9179
   -15.7623 -15.5123 -15.3871 -15.1875 -15.0171 -14.9515 -13.8230 -13.7692
   -13.5051 -13.3554 -13.0745 -12.8588 -12.5883 -12.3820 -12.2306 -12.1862
   -12.1244 -12.0816 -12.0551 -12.0132 -11.9586 -11.8846 -11.8654 -11.5448
   -10.9976 -10.4893 -10.4632 -10.3914 -10.2880 -10.1718 -10.1103  -9.8674
    -9.7712  -9.6927  -9.5592  -9.2458  -9.1884  -9.1521  -8.8891  -8.6922
    -8.5546  -8.5198  -8.4266  -8.3533  -8.2527  -8.2414  -8.1269  -8.0875
    -7.9704  -7.8899  -7.8690  -7.7397  -7.6518  -7.5733  -7.4642  -7.3763
    -7.3751  -7.3102  -7.1138  -7.0603  -6.7850  -6.7707  -6.7083  -6.4495
    -6.3202  -6.2951  -6.1464  -5.9255  -5.8940  -5.8225  -5.6757  -5.5179
    -5.4725  -5.4449  -5.3358  -5.3091  -5.1890  -5.0638  -4.9747  -4.9226
    -4.8100  -4.7794  -4.7092  -4.6032  -4.4916  -4.4568  -4.2708  -4.0612
    -3.9996  -3.8071  -3.5448  -3.5364  -3.2565  -3.1418  -2.9908  -2.8504
    -2.7844  -2.7232   0.2527   0.3214   0.3899   0.5957   0.6640   0.9834
     1.0235   1.3108   1.5356   1.5975   1.8317   2.0085   2.1183   2.1360
     2.2204   2.2342   2.2711   2.2960   2.3561   2.3908   2.4953   2.5824
     2.7432   2.7673   2.9326   3.1944   3.3942   3.4317   3.6337   3.7574
     3.7937   3.9061   3.9847   4.0403   4.1000   4.1047   4.2038   4.3198
     4.4190   4.5496   4.6007   4.7854   4.7947   4.9006   4.9554   5.0962
     5.1807   5.2455   5.3432   5.3459   5.4767   5.4768   5.5415   5.5608
     5.6236   5.7934   5.8965   6.0379   6.1460   6.1981   6.2061   6.2870
     6.3256   6.4080   6.5414   6.5622   6.5663   6.7710   6.7971   6.8291
     6.8976   6.9391   6.9611   6.9697   7.0086   7.0428   7.0497   7.1226
     7.1306   7.1532   7.2050   7.2202   7.2598   7.2762   7.3411   7.3616
     7.3806   7.4130   7.4230   7.4405   7.4625   7.4742   7.5493   7.5544
     7.6435   7.6537   7.6695   7.7844   7.7984   7.9015   7.9044   7.9417
     7.9422   8.0211   8.0712   8.1560   8.2142   8.2251   8.2330   8.2350
     8.3423   8.4166   8.4236   8.4318   8.4729   8.5333   8.5525   8.5575
     8.5631   8.5943   8.6398   8.6533   8.6580   8.7541   8.8146   8.8452
     8.8838   8.8912   8.9079   8.9516   8.9795   9.0494   9.1087   9.1106
     9.1126   9.1506   9.1739   9.1793   9.1909   9.2154   9.3029   9.3312
     9.3444   9.3812   9.4403   9.4906   9.5166   9.6743   9.6812   9.7211
     9.7961   9.8299   9.8396   9.8562   9.8938   9.9129   9.9634   9.9916
     9.9929  10.0050  10.0320  10.0679  10.0944  10.1069  10.1193  10.1504
    10.1589  10.2278  10.2746  10.2751  10.3042  10.3245  10.3560  10.4131
    10.4616  10.4808  10.5445  10.6170  10.6709  10.7055  10.7955  10.8001
    10.8639  11.0291  11.0305  11.0327  11.0425  11.1276  11.1426  11.1844
    11.1905  11.4042  11.4249  11.4495  11.4881  11.5614  11.6876  11.7218
    11.7265  11.7298  11.7661  11.7937  11.7972  11.8348  11.8815  11.9071
    11.9283  11.9804  11.9956  12.0031  12.0540  12.0733  12.0929  12.1111
    12.1460  12.1642  12.1886  12.2316  12.2581  12.2660  12.2825  12.2965
    12.3575  12.3585  12.3849  12.4142  12.4189  12.4372  12.4384  12.5214
    12.5392  12.5680  12.6074  12.6137  12.6311  12.6903  12.7866  12.7916
    12.8196  12.8336  12.8486  12.8670  12.8695  12.9111  12.9464  12.9826
    12.9945  13.0513  13.0600  13.1307  13.1674  13.2129  13.2270  13.2800
    13.3363  13.3895  13.4206  13.4475  13.4721  13.4744  13.4820  13.5039
    13.5077  13.5192  13.5341  13.5785  13.6024  13.6853  13.6884  13.7137
    13.8847  13.9638  13.9849  14.0405  14.1000  14.1601  14.1881  14.2236
    14.2868  14.3616  14.3624  14.3707  14.5106  14.5110  14.6081  14.6251
    14.6821  14.7758  14.8015  14.9026  14.9304  15.0266  15.0339  15.0871
    15.1039  15.1216  15.1242  15.1564  15.2150  15.2208  15.2212  15.2997
    15.3459  15.3773  15.3982  15.4443  15.4899  15.5217  15.5343  15.5392
    15.5614  15.5796  15.6051  15.6498  15.6827  15.7120  15.7873  15.8045
    15.8104  15.8715  15.8766  15.8814  15.9134  15.9178  15.9252  15.9735
    16.0483  16.0715  16.0731  16.1109  16.1382  16.1431  16.1617  16.1895
    16.1909  16.2588  16.2626  16.2818  16.4066  16.4209  16.4527  16.4865
    16.5372  16.5455  16.5932  16.6249  16.6374  16.6440  16.6504  16.6873
    16.7007  16.7619  16.7655  16.7740  16.8175  16.8324  16.9312  17.0021
    17.0487  17.0692  17.0811  17.1096  17.1408  17.1882  17.2143  17.2426
    17.2469  17.2568  17.2773  17.2912  17.3117  17.3390  17.3463  17.3720
    17.3946  17.3990  17.4312  17.4486

          k = 0.0000 0.0000 0.0563 ( 58702 PWs)   bands (ev):

   -20.3375 -20.2732 -20.1777 -20.0469 -19.8780 -19.6738 -19.4360 -19.1640
   -18.8575 -18.5161 -18.1344 -17.7281 -17.3326 -17.3008 -17.2662 -17.1800
   -17.0527 -16.9119 -16.8181 -16.7059 -16.4770 -16.3633 -16.2086 -15.9711
   -15.8313 -15.6488 -15.3817 -15.3255 -15.0581 -15.0459 -13.9013 -13.7942
   -13.6007 -13.3591 -13.1649 -12.8595 -12.6638 -12.3513 -12.1587 -11.9802
   -11.9395 -11.9106 -11.8794 -11.8048 -11.7310 -11.6931 -11.6871 -11.6382
   -11.1257 -10.5660 -10.2875 -10.2614 -10.1359 -10.0914  -9.9556  -9.8399
    -9.6919  -9.6277  -9.3863  -9.2751  -9.1348  -9.0662  -8.7536  -8.6526
    -8.6344  -8.3984  -8.3618  -8.2886  -8.1816  -8.1768  -8.0666  -8.0384
    -8.0231  -7.8259  -7.8012  -7.6816  -7.5882  -7.5411  -7.4594  -7.3438
    -7.3240  -7.3121  -7.0724  -6.9981  -6.9025  -6.7508  -6.6473  -6.4561
    -6.4177  -6.2608  -6.1843  -6.0212  -5.9235  -5.8369  -5.7659  -5.6666
    -5.5819  -5.5105  -5.4328  -5.3911  -5.3133  -5.1739  -5.0208  -4.9534
    -4.9269  -4.9042  -4.8824  -4.7769  -4.6307  -4.4677  -4.4282  -4.2299
    -3.9809  -3.9763  -3.7089  -3.5374  -3.4233  -3.1814  -3.1323  -2.9455
    -2.8949  -2.8320   0.3320   0.3477   0.5122   0.5730   0.8159   0.9574
     1.1636   1.4490   1.5053   1.8019   2.0200   2.0497   2.2399   2.3073
     2.3749   2.4289   2.4651   2.4665   2.5221   2.5498   2.5692   2.6367
     2.6568   2.8414   3.0071   3.2685   3.2827   3.5063   3.7064   3.8313
     3.8421   3.9820   4.0136   4.0649   4.1149   4.1739   4.2760   4.3934
     4.4893   4.6231   4.6733   4.6749   4.8685   4.9708   5.0239   5.1674
     5.2540   5.2911   5.3188   5.4193   5.5296   5.5471   5.5732   5.6137
     5.6962   5.8594   5.9345   6.0610   6.1036   6.1743   6.2150   6.3224
     6.3525   6.3568   6.5156   6.6156   6.6235   6.6684   6.6943   6.7368
     6.8127   6.8428   6.8443   6.9436   6.9491   6.9852   7.0369   7.0497
     7.0592   7.0734   7.1229   7.1802   7.2059   7.2080   7.2703   7.2770
     7.3086   7.3697   7.3879   7.4102   7.4436   7.4443   7.4881   7.5416
     7.5424   7.6863   7.6977   7.7001   7.7099   7.7707   7.7912   7.7977
     7.9605   7.9655   7.9923   8.0158   8.0737   8.1224   8.1321   8.1958
     8.2798   8.2888   8.3135   8.3369   8.3530   8.3762   8.4242   8.4771
     8.5084   8.5492   8.5887   8.6078   8.6656   8.6704   8.6907   8.7214
     8.7513   8.8164   8.8783   8.8932   8.9163   8.9223   8.9992   8.9999
     9.0116   9.0853   9.1098   9.1611   9.1840   9.1953   9.2173   9.2230
     9.2457   9.3075   9.3265   9.3543   9.4318   9.4931   9.5117   9.5774
     9.5780   9.6084   9.6654   9.7793   9.7836   9.8589   9.8804   9.9302
     9.9689  10.0326  10.0552  10.0764  10.0798  10.0808  10.1166  10.1382
    10.1872  10.1895  10.2280  10.2403  10.2821  10.2953  10.3417  10.3619
    10.3868  10.4292  10.5379  10.5768  10.5982  10.6927  10.7046  10.7239
    10.7922  10.8321  10.9120  10.9270  10.9624  11.0743  11.0971  11.2139
    11.2613  11.3114  11.3180  11.4668  11.5196  11.5255  11.5630  11.6800
    11.7386  11.7537  11.7643  11.7654  11.7688  11.8050  11.8689  11.8792
    11.9051  11.9873  12.0035  12.0111  12.0229  12.0497  12.0835  12.1087
    12.1270  12.2222  12.2359  12.2421  12.2594  12.2944  12.3072  12.3243
    12.3276  12.3666  12.3764  12.3872  12.4346  12.4519  12.5074  12.5188
    12.5245  12.6026  12.6175  12.6439  12.6774  12.6774  12.6831  12.7413
    12.8072  12.8526  12.8614  12.8660  12.8694  12.9780  12.9838  13.0528
    13.0580  13.0622  13.1096  13.1273  13.1651  13.1931  13.2562  13.2801
    13.3146  13.3534  13.3908  13.3987  13.4296  13.5201  13.5522  13.6104
    13.6119  13.6499  13.6625  13.6786  13.6933  13.7100  13.7887  13.8056
    13.9553  13.9587  14.0222  14.0372  14.0443  14.1142  14.1287  14.2122
    14.2769  14.3161  14.3203  14.3905  14.4012  14.4734  14.6027  14.6129
    14.7163  14.8662  14.8917  14.9664  14.9868  15.0018  15.0214  15.0791
    15.0962  15.1603  15.1760  15.2278  15.3250  15.3259  15.3414  15.3677
    15.3904  15.3918  15.4165  15.4263  15.4538  15.5409  15.5619  15.6387
    15.6411  15.6598  15.6722  15.7108  15.7379  15.7478  15.7499  15.7853
    15.8595  15.8696  15.8964  15.9036  15.9130  15.9571  15.9773  16.0128
    16.0156  16.0230  16.1072  16.1180  16.1309  16.1754  16.2021  16.2428
    16.2449  16.3171  16.3188  16.3212  16.4069  16.4083  16.4651  16.5052
    16.5616  16.5807  16.5919  16.6717  16.6768  16.6849  16.6969  16.7186
    16.7930  16.7959  16.8142  16.8415  16.9359  16.9743  16.9925  17.0592
    17.0610  17.0786  17.1089  17.1602  17.1917  17.1934  17.1986  17.2319
    17.2429  17.3075  17.3183  17.3253  17.3506  17.3509  17.3626  17.4057
    17.4477  17.4804  17.5208  17.5247

          k = 0.0000 0.0000 0.0610 ( 58664 PWs)   bands (ev):

   -20.2785 -20.2142 -20.1188 -19.9881 -19.8194 -19.6154 -19.3778 -19.1062
   -18.8001 -18.4592 -18.0784 -17.6741 -17.5011 -17.4396 -17.3466 -17.2628
   -17.1999 -17.0658 -16.8672 -16.7873 -16.6300 -16.4124 -16.2734 -16.1126
   -15.8074 -15.7967 -15.4648 -15.3670 -15.1690 -15.0854 -13.9610 -13.8487
   -13.6469 -13.4291 -13.1807 -12.9433 -12.6530 -12.4235 -12.1377 -11.8935
   -11.7271 -11.6974 -11.6841 -11.6328 -11.5641 -11.5305 -11.4917 -11.4536
   -11.2449 -10.6850 -10.1450 -10.1088 -10.0730  -9.9489  -9.8696  -9.7256
    -9.6077  -9.4994  -9.3434  -9.2141  -9.0889  -8.9081  -8.7734  -8.5874
    -8.5821  -8.2914  -8.2847  -8.2183  -8.1629  -8.1199  -8.1067  -7.9533
    -7.9430  -7.7564  -7.7372  -7.6110  -7.6066  -7.5192  -7.4368  -7.3017
    -7.2687  -7.2438  -7.0735  -6.9897  -6.9308  -6.7446  -6.5812  -6.5473
    -6.4756  -6.2322  -6.1964  -6.1537  -6.0100  -5.8875  -5.8101  -5.7750
    -5.7262  -5.6752  -5.5650  -5.4416  -5.3332  -5.2869  -5.1277  -5.1227
    -5.0579  -5.0025  -4.9510  -4.8767  -4.8016  -4.6234  -4.4033  -4.4032
    -4.1532  -3.9528  -3.8734  -3.6071  -3.5115  -3.3235  -3.1729  -3.0832
    -2.9666  -2.9431   0.3777   0.4137   0.5534   0.6360   0.8997   0.9686
     1.3365   1.3685   1.6930   1.9177   2.0112   2.2700   2.3867   2.4730
     2.5080   2.5247   2.5460   2.6208   2.6494   2.7181   2.7377   2.7792
     2.8101   2.9220   3.0881   3.1663   3.3491   3.5873   3.7853   3.8016
     3.9115   4.0215   4.0630   4.1419   4.1961   4.2524   4.3560   4.4730
     4.5194   4.6046   4.7030   4.7555   4.9485   5.0496   5.0809   5.2080
     5.2432   5.3336   5.3985   5.4991   5.5685   5.6195   5.6320   5.6907
     5.7725   5.8981   5.9095   6.0074   6.0836   6.0996   6.2922   6.3408
     6.3765   6.3834   6.4316   6.4605   6.5529   6.5843   6.6744   6.6770
     6.6935   6.7524   6.8201   6.8621   6.8847   6.9206   6.9468   6.9783
     7.0292   7.1054   7.1187   7.1352   7.1360   7.1477   7.1831   7.2144
     7.2485   7.2880   7.3594   7.3737   7.4043   7.4052   7.4747   7.5117
     7.5588   7.5883   7.6053   7.6148   7.7117   7.7273   7.7336   7.7453
     7.8208   7.8605   7.9309   7.9385   7.9671   8.0012   8.0607   8.0732
     8.1008   8.1269   8.1689   8.1713   8.2368   8.2532   8.3238   8.3725
     8.4403   8.4747   8.5068   8.5671   8.5967   8.5972   8.6008   8.7303
     8.7702   8.7892   8.8139   8.8217   8.8352   8.8355   8.8817   8.9119
     8.9575   9.0012   9.0593   9.0733   9.0765   9.1820   9.1870   9.1961
     9.2118   9.2488   9.2636   9.2834   9.3126   9.3477   9.3575   9.3786
     9.4847   9.5233   9.5552   9.5576   9.6692   9.6761   9.7950   9.8097
     9.8313   9.8899  10.0081  10.0437  10.1069  10.1613  10.1618  10.1619
    10.1646  10.2103  10.2318  10.2643  10.2696  10.2756  10.3071  10.3418
    10.3605  10.3682  10.4863  10.5739  10.5807  10.6029  10.6553  10.6703
    10.6925  10.7856  10.8071  10.8134  10.8370  11.1171  11.1237  11.1263
    11.1660  11.2971  11.3326  11.3511  11.4898  11.5093  11.5766  11.5885
    11.6493  11.6602  11.6944  11.7542  11.8045  11.8281  11.8598  11.8903
    11.9411  11.9661  12.0374  12.0406  12.0498  12.0659  12.0909  12.1271
    12.1394  12.1774  12.2016  12.2026  12.2580  12.2987  12.3184  12.3307
    12.3391  12.3548  12.4105  12.4152  12.4485  12.4712  12.4830  12.5138
    12.5474  12.5751  12.5847  12.6570  12.6728  12.7340  12.7363  12.7598
    12.7872  12.7875  12.8263  12.8790  12.9260  12.9368  13.0050  13.0525
    13.0785  13.1003  13.1238  13.1385  13.1636  13.1933  13.2214  13.2275
    13.2666  13.3080  13.3362  13.3920  13.4818  13.5171  13.5944  13.6161
    13.6623  13.7150  13.7457  13.7724  13.8446  13.8466  13.9221  13.9626
    13.9660  13.9965  14.0041  14.0217  14.0484  14.0769  14.1419  14.2312
    14.3117  14.3210  14.3428  14.3437  14.4016  14.4992  14.5536  14.5992
    14.7698  14.8274  14.8293  14.8802  14.9148  15.0400  15.0618  15.0848
    15.1076  15.2422  15.2481  15.3131  15.3351  15.3608  15.3784  15.4178
    15.4212  15.4505  15.4637  15.4981  15.5097  15.5587  15.5703  15.5781
    15.5967  15.6273  15.6734  15.6870  15.6938  15.7579  15.7927  15.8002
    15.8785  15.8796  15.8868  15.9071  15.9418  15.9736  15.9803  16.0369
    16.0931  16.0999  16.1152  16.1325  16.1637  16.1730  16.1826  16.2205
    16.2785  16.2896  16.3109  16.4318  16.4652  16.4790  16.4889  16.5942
    16.5969  16.6339  16.6597  16.6811  16.7398  16.7773  16.7773  16.7791
    16.8572  16.8710  16.8878  16.8904  16.9294  16.9985  17.0356  17.0974
    17.1615  17.1669  17.2079  17.2185  17.2242  17.2249  17.2335  17.2998
    17.3010  17.3086  17.3104  17.3496  17.3745  17.3759  17.3792  17.5275
    17.5376  17.5695  17.6024  17.6073

          k = 0.0000 0.0000 0.0657 ( 58650 PWs)   bands (ev):

   -20.2148 -20.1506 -20.0552 -19.9247 -19.7561 -19.5524 -19.3151 -19.0438
   -18.7382 -18.3980 -18.0185 -17.6668 -17.6188 -17.6036 -17.5066 -17.3909
   -17.2250 -17.1841 -17.0208 -16.8262 -16.6973 -16.5548 -16.2621 -16.2397
   -15.9418 -15.7770 -15.5963 -15.3718 -15.2664 -15.1394 -14.0007 -13.9314
   -13.6457 -13.5367 -13.1505 -13.0600 -12.6053 -12.5394 -12.0732 -11.9907
   -11.6121 -11.4721 -11.4538 -11.4324 -11.3770 -11.3223 -11.2921 -11.2560
   -11.2476 -10.8057 -10.2251  -9.9472  -9.9017  -9.7668  -9.7606  -9.6294
    -9.5409  -9.3836  -9.2795  -9.0821  -9.0414  -8.8267  -8.7517  -8.5452
    -8.4512  -8.2816  -8.2156  -8.1426  -8.1381  -8.0646  -8.0311  -7.8780
    -7.8554  -7.7050  -7.6815  -7.6746  -7.5432  -7.4449  -7.3814  -7.2557
    -7.2218  -7.1702  -7.1603  -6.9907  -6.8581  -6.7609  -6.6731  -6.5099
    -6.5095  -6.3039  -6.2932  -6.1271  -6.1007  -6.0510  -5.9366  -5.9191
    -5.8136  -5.7087  -5.7043  -5.5732  -5.4023  -5.3020  -5.2714  -5.2316
    -5.2279  -5.1237  -5.1040  -4.9820  -4.8146  -4.7958  -4.5748  -4.3705
    -4.3114  -4.0593  -3.9044  -3.7683  -3.5072  -3.4804  -3.2244  -3.2006
    -3.0555  -3.0380   0.4131   0.4919   0.5454   0.7577   0.8470   1.1196
     1.2865   1.5085   1.8186   1.8828   2.2164   2.4097   2.4723   2.4956
     2.5932   2.6333   2.7087   2.7360   2.8251   2.8670   2.9723   3.0090
     3.0409   3.0477   3.0758   3.1756   3.4362   3.6749   3.6932   3.8701
     3.9982   4.0968   4.1428   4.2280   4.2837   4.3247   4.4349   4.4425
[...]
     4.1068   4.2530   4.2906   4.3865   4.3903   4.4216   4.5296   4.5964
     4.6097   4.6139   4.7222   4.8095   4.8477   4.9033   4.9319   4.9620
     5.0394   5.0767   5.0999   5.1476   5.1633   5.2197   5.2258   5.2508
     5.3131   5.3313   5.3707   5.4703   5.4773   5.5783   5.6116   5.7030
     5.7188   5.7783   5.8839   5.8921   5.9697   6.0324   6.0768   6.1535
     6.1625   6.1636   6.1899   6.2420   6.2896   6.3148   6.3255   6.3939
     6.3949   6.3998   6.4242   6.4331   6.4954   6.5001   6.5086   6.5310
     6.6253   6.6446   6.6516   6.6561   6.6863   6.6870   6.6921   6.7111
     6.7512   6.8066   6.8398   6.8788   6.8890   6.9295   6.9525   6.9546
     6.9720   7.0096   7.0785   7.0819   7.1365   7.1655   7.1855   7.2080
     7.2118   7.2893   7.3181   7.3754   7.3873   7.4184   7.4582   7.4872
     7.5055   7.5126   7.5809   7.5843   7.5894   7.6013   7.6555   7.7028
     7.7274   7.7858   7.7968   7.8465   7.8945   7.9423   7.9834   8.0790
     8.1157   8.1265   8.1391   8.1669   8.2119   8.2221   8.2924   8.3174
     8.3707   8.3785   8.4204   8.4439   8.4770   8.5650   8.6531   8.6985
     8.7097   8.7657   8.8899   8.9204   8.9428   9.0197   9.0290   9.0979
     9.1046   9.1076   9.1701   9.2616   9.3044   9.3568   9.4585   9.4693
     9.6039   9.6219   9.7318   9.7868   9.8628   9.8764   9.8934   9.9397
     9.9900  10.0679  10.1564  10.2421  10.2693  10.3031  10.3152  10.3475
    10.3941  10.4391  10.4535  10.4879  10.5358  10.5923  10.7045  10.7434
    10.8105  10.9446  10.9741  10.9772  10.9945  11.0215  11.0372  11.0868
    11.1073  11.1697  11.1984  11.2073  11.2550  11.2573  11.2696  11.2825
    11.2921  11.3271  11.3942  11.3955  11.3975  11.4328  11.5086  11.5436
    11.5752  11.6058  11.7203  11.8271  11.8492  11.8621  11.9401  11.9523
    12.0268  12.0585  12.1044  12.1281  12.1868  12.2231  12.2262  12.2413
    12.2481  12.2515  12.2575  12.2754  12.3433  12.3850  12.4163  12.4205
    12.4757  12.5538  12.5554  12.5789  12.5970  12.6271  12.6923  12.8035
    12.8299  12.8506  12.8755  12.9241  12.9407  12.9827  13.0119  13.0346
    13.1317  13.1594  13.2016  13.2242  13.2381  13.2909  13.2955  13.3155
    13.3484  13.3558  13.4084  13.4151  13.4265  13.5048  13.5338  13.6287
    13.6937  13.7512  13.7818  13.7984  13.8310  13.8456  13.8948  13.9112
    13.9290  14.0229  14.0823  14.0850  14.1475  14.1913  14.2346  14.2811
    14.3304  14.4520  14.4877  14.5450  14.5564  14.6513  14.6855  14.7149
    14.7460  14.7864  14.8109  14.8769  14.9018  14.9052  14.9739  14.9785
    15.0083  15.0528  15.0597  15.0860  15.1241  15.1309  15.1865  15.2116
    15.2765  15.2963  15.3777  15.3854  15.3969  15.4361  15.4620  15.5071
    15.5555  15.5672  15.5776  15.6484  15.6970  15.7798  15.8117  15.8661
    15.8902  15.9308  15.9494  15.9850  15.9860  16.0177  16.0453  16.0979
    16.1213  16.1444  16.2464  16.2466  16.3141  16.4120  16.4279  16.5478
    16.5646  16.5670  16.6148  16.6594  16.6743  16.6891  16.7534  16.8647
    16.8678  16.9017  16.9367  16.9974  17.0388  17.0424  17.1206  17.1618
    17.1655  17.2031  17.2312  17.2429  17.3036  17.3499  17.3779  17.3847
    17.4575  17.4581  17.4876  17.4945  17.4976  17.5044  17.5796  17.5798
    17.5901  17.5954  17.6681  17.6835  17.7526  17.7791  17.7902  17.8535
    17.8659  17.9096  17.9667  18.0650

          k = 0.0000 0.0000 0.1080 ( 58706 PWs)   bands (ev):

   -19.4332 -19.3697 -19.2757 -19.1473 -18.9821 -18.9676 -18.9044 -18.8149
   -18.7798 -18.6877 -18.5472 -18.5204 -18.3170 -18.2818 -18.0795 -17.9836
   -17.8075 -17.6532 -17.5009 -17.2886 -17.1574 -16.9032 -16.7761 -16.5003
   -16.3726 -16.0890 -15.9611 -15.7037 -15.5923 -15.4619 -14.3019 -14.1949
   -13.9599 -13.7411 -13.4760 -13.2111 -12.9245 -12.6420 -12.3388 -12.0467
   -11.7310 -11.4356 -11.1187 -10.8264 -10.5169 -10.2296  -9.9479  -9.6836
    -9.4431  -9.3041  -9.1451  -9.1147  -9.1040  -9.0971  -8.9712  -8.5725
    -8.3038  -8.1960  -8.1913  -8.1695  -8.1210  -8.1008  -8.0770  -8.0590
    -8.0336  -7.9534  -7.9240  -7.8541  -7.7617  -7.6815  -7.6358  -7.6060
    -7.5459  -7.5077  -7.4825  -7.4726  -7.4678  -7.4673  -7.4430  -7.4265
    -7.2927  -7.2820  -7.2446  -7.2211  -7.1262  -7.1242  -7.1120  -7.0222
    -6.9623  -6.9136  -6.7711  -6.7519  -6.7150  -6.6810  -6.6365  -6.5744
    -6.5408  -6.4701  -6.4331  -6.4270  -6.2754  -6.2371  -6.2114  -6.0679
    -6.0093  -5.9764  -5.7468  -5.6465  -5.4521  -5.2898  -5.1294  -4.9108
    -4.7843  -4.5312  -4.4256  -4.1675  -4.0804  -3.8488  -3.7771  -3.6167
    -3.5621  -3.5057   0.5797   0.6562   0.7198   0.9489   1.0177   1.3772
     1.4424   1.8921   1.9472   2.4546   2.5015   3.0171   3.0877   3.5091
     3.5478   3.6200   3.6797   3.7084   3.7991   3.9002   4.0361   4.0661
     4.1608   4.2270   4.2546   4.2694   4.3529   4.4409   4.4630   4.5146
     4.5456   4.7187   4.7551   4.7927   4.8208   4.8993   4.9397   5.0699
     5.0742   5.1565   5.2426   5.2518   5.2736   5.3128   5.3418   5.3656
     5.4011   5.4489   5.4626   5.5010   5.5159   5.5175   5.6630   5.6777
     5.7174   5.7503   5.8519   5.8572   5.9237   5.9957   6.0118   6.0300
     6.1058   6.1150   6.1292   6.2014   6.2279   6.2566   6.2905   6.3448
     6.3764   6.3808   6.3864   6.4637   6.4691   6.4798   6.4815   6.4916
     6.5312   6.5755   6.5920   6.6237   6.6524   6.6530   6.7011   6.7582
     6.7601   6.7770   6.8221   6.8414   6.8485   6.8907   6.9027   6.9134
     6.9206   6.9489   7.0198   7.0594   7.1415   7.1497   7.1745   7.2049
     7.2339   7.2469   7.2836   7.3979   7.4123   7.4138   7.4197   7.4420
     7.4521   7.4805   7.4848   7.5110   7.5555   7.5584   7.5590   7.5854
     7.7728   7.7818   7.8091   7.8511   7.8880   7.9043   7.9386   7.9662
     8.0369   8.1537   8.1566   8.2148   8.2332   8.2650   8.2654   8.2841
     8.3092   8.3305   8.4134   8.4945   8.5050   8.5597   8.5947   8.6038
     8.7275   8.7537   8.8610   8.9273   8.9401   8.9607   8.9748   9.0270
     9.0754   9.1183   9.1264   9.2398   9.2759   9.2939   9.3837   9.5024
     9.6150   9.6938   9.7074   9.7560   9.7629   9.7758   9.8360   9.9178
    10.0027  10.1456  10.1704  10.2974  10.3080  10.3849  10.3865  10.3879
    10.3945  10.4335  10.4747  10.4966  10.5200  10.6223  10.6313  10.7830
    10.8131  10.8521  10.8807  10.8993  11.0539  11.0566  11.0670  11.1066
    11.1153  11.1567  11.1720  11.2563  11.2603  11.3026  11.3411  11.3568
    11.4066  11.4456  11.4709  11.4745  11.4761  11.5063  11.5291  11.6165
    11.6168  11.6175  11.6725  11.7169  11.7542  11.7704  11.8111  11.8873
    11.9493  11.9851  12.0178  12.0511  12.0764  12.0856  12.0930  12.1222
    12.1238  12.1753  12.2004  12.2812  12.3653  12.3841  12.4938  12.4943
    12.5582  12.5911  12.5950  12.5974  12.6677  12.6912  12.7101  12.7996
    12.8200  12.8532  12.8788  12.9455  12.9971  13.0505  13.0559  13.0775
    13.1026  13.1269  13.1480  13.1755  13.2219  13.2301  13.2521  13.3077
    13.3113  13.3266  13.3692  13.3814  13.4258  13.5559  13.5583  13.6100
    13.6769  13.6956  13.7816  13.8122  13.8183  13.8663  13.8944  13.9199
    13.9597  13.9634  14.0422  14.1099  14.1570  14.1813  14.1997  14.2625
    14.3217  14.3471  14.4404  14.4734  14.6361  14.6561  14.6630  14.7035
    14.7909  14.8409  14.8437  14.8926  14.9168  14.9230  14.9294  14.9456
    15.0149  15.0523  15.0711  15.1322  15.1609  15.1621  15.2117  15.2861
    15.2893  15.3211  15.3938  15.4156  15.4170  15.4283  15.4903  15.5320
    15.5437  15.5522  15.6598  15.7119  15.7375  15.7617  15.7834  15.7895
    15.8053  15.8383  15.9456  15.9871  16.0754  16.0764  16.1483  16.1490
    16.1535  16.2451  16.2693  16.2703  16.2917  16.3641  16.4428  16.4550
    16.5645  16.5814  16.5972  16.6335  16.6403  16.7235  16.7745  16.8159
    16.8285  16.8743  16.9044  16.9417  17.0286  17.0551  17.0653  17.0843
    17.1572  17.2501  17.2819  17.3102  17.3195  17.3767  17.3775  17.4275
    17.4348  17.4529  17.4547  17.4574  17.4789  17.4911  17.5187  17.5661
    17.6179  17.6895  17.6895  17.7463  17.7489  17.7984  17.8394  17.8433
    17.8802  17.9122  17.9220  17.9843

          k = 0.0000 0.0000 0.1127 ( 58716 PWs)   bands (ev):

   -19.3235 -19.2601 -19.1665 -19.0907 -19.0387 -19.0277 -18.9343 -18.8750
   -18.8058 -18.6867 -18.6284 -18.4733 -18.4060 -18.2324 -18.1436 -17.9607
   -17.8449 -17.6568 -17.5115 -17.3202 -17.1401 -16.9493 -16.7444 -16.5580
   -16.3299 -16.1520 -15.9153 -15.7605 -15.5626 -15.4846 -14.2940 -14.2304
   -13.9247 -13.7985 -13.4262 -13.2767 -12.8685 -12.7107 -12.2795 -12.1174
   -11.6687 -11.5044 -11.0565 -10.8913 -10.4541 -10.2853  -9.8841  -9.7061
    -9.3890  -9.2012  -9.0259  -8.9276  -8.8587  -8.8414  -8.8406  -8.7204
    -8.4889  -8.3758  -8.3303  -8.3199  -8.0134  -7.9983  -7.9609  -7.9431
    -7.8771  -7.8144  -7.8050  -7.7407  -7.6784  -7.6476  -7.6357  -7.6300
    -7.6176  -7.5969  -7.5828  -7.5785  -7.5761  -7.5669  -7.5609  -7.5423
    -7.3794  -7.2606  -7.1711  -7.1686  -7.1646  -7.0932  -7.0536  -6.9844
    -6.9145  -6.8941  -6.8353  -6.8231  -6.7324  -6.7149  -6.6452  -6.5961
    -6.5665  -6.4844  -6.4218  -6.3810  -6.3713  -6.3084  -6.1727  -6.1711
    -6.1277  -5.9016  -5.8376  -5.6033  -5.5118  -5.2777  -5.1587  -4.9297
    -4.7839  -4.5668  -4.4104  -4.2141  -4.0570  -3.8948  -3.7583  -3.6497
    -3.5604  -3.5223   0.5901   0.6336   0.7618   0.8871   1.0957   1.2861
     1.5468   1.7829   2.0685   2.3383   2.6306   2.9280   3.1912   3.5133
     3.6468   3.7315   3.7450   3.8597   3.9369   4.0139   4.0461   4.0785
     4.0998   4.1824   4.2333   4.2355   4.2730   4.3753   4.4069   4.5516
     4.6052   4.6632   4.6753   4.7291   4.9056   4.9804   5.0373   5.0807
     5.0830   5.2132   5.2370   5.2734   5.3823   5.4009   5.4141   5.4689
     5.4938   5.5162   5.5209   5.5506   5.5944   5.6174   5.6460   5.6628
     5.6909   5.7903   5.8414   5.8610   5.8765   5.9495   5.9914   6.0052
     6.0208   6.0571   6.0710   6.1027   6.1436   6.2474   6.2638   6.3097
     6.3443   6.3599   6.3671   6.3693   6.4006   6.4390   6.4520   6.4686
     6.4742   6.5065   6.5853   6.6011   6.6410   6.6517   6.6654   6.6808
     6.7503   6.7864   6.8295   6.8512   6.8671   6.9193   6.9245   6.9417
     6.9645   6.9703   6.9981   7.0896   7.1000   7.1385   7.1642   7.1953
     7.2322   7.2404   7.2513   7.2661   7.2720   7.3142   7.3791   7.4072
     7.4158   7.4354   7.4987   7.5185   7.5744   7.5979   7.6465   7.6753
     7.7004   7.7052   7.7811   7.8515   7.8630   7.8788   7.9484   8.0005
     8.0065   8.0081   8.0915   8.1001   8.2274   8.3019   8.3202   8.3419
     8.3826   8.4080   8.4220   8.4431   8.4756   8.5593   8.5902   8.6764
     8.7075   8.7366   8.7758   8.7817   8.8975   8.9247   8.9700   9.0366
     9.0388   9.0790   9.1902   9.2237   9.3255   9.3832   9.3916   9.4007
     9.5358   9.5938   9.6404   9.6814   9.7159   9.9007   9.9068   9.9619
    10.0157  10.1219  10.1389  10.2419  10.2479  10.3644  10.4432  10.4433
    10.4518  10.4947  10.4996  10.5872  10.6369  10.6491  10.6960  10.7292
    10.7405  10.7857  10.8013  10.8372  10.9392  10.9696  10.9812  11.0465
    11.1645  11.2400  11.2717  11.3154  11.3289  11.3398  11.3857  11.4310
    11.5091  11.5284  11.5483  11.5595  11.5695  11.5826  11.5884  11.5935
    11.6182  11.6347  11.6649  11.7203  11.7722  11.7729  11.8058  11.8484
    11.8571  11.8772  11.8970  11.8972  11.9334  11.9765  12.0098  12.0108
    12.0703  12.1661  12.1664  12.2894  12.3323  12.3903  12.4675  12.4910
    12.5621  12.6395  12.6418  12.6546  12.6975  12.7840  12.7929  12.7933
    12.8116  12.8559  12.8854  12.9104  12.9589  13.0104  13.0270  13.0333
    13.0546  13.1194  13.1423  13.2056  13.2128  13.2187  13.2349  13.2787
    13.3164  13.3603  13.3925  13.4464  13.4628  13.5008  13.5206  13.5881
    13.6454  13.6967  13.7637  13.7827  13.8288  13.8794  13.8899  13.8973
    13.9986  14.0084  14.0304  14.1299  14.1778  14.1974  14.2011  14.2058
    14.2532  14.3307  14.4316  14.4497  14.4901  14.5961  14.7455  14.7758
    14.8179  14.8380  14.8641  14.8940  14.9031  14.9439  14.9662  14.9846
    15.0349  15.0368  15.1098  15.1570  15.1678  15.1736  15.2491  15.2856
    15.2954  15.3197  15.3599  15.3904  15.4242  15.4550  15.5262  15.5781
    15.5987  15.6137  15.6509  15.6684  15.6849  15.6950  15.7794  15.7988
    15.8054  15.8401  16.0135  16.0205  16.0723  16.0815  16.1189  16.1294
    16.1792  16.2308  16.3013  16.3122  16.4101  16.4258  16.4459  16.4908
    16.5043  16.5478  16.5573  16.6511  16.6514  16.6543  16.7371  16.7412
    16.8684  16.8886  16.9322  16.9363  16.9719  16.9802  16.9909  17.1467
    17.1675  17.2390  17.2554  17.2840  17.3029  17.3145  17.3804  17.3962
    17.4226  17.4683  17.4805  17.4867  17.5099  17.5478  17.5953  17.6122
    17.6591  17.6867  17.6977  17.7542  17.7703  17.8051  17.8103  17.8516
    17.8899  17.9286  17.9589  17.9824

          k = 0.0000 0.0000-0.1174 ( 58760 PWs)   bands (ev):

   -19.2093 -19.2093 -19.1462 -19.1462 -19.0528 -19.0528 -18.9253 -18.9253
   -18.7615 -18.7614 -18.5603 -18.5602 -18.3253 -18.3253 -18.0567 -18.0566
   -17.7545 -17.7545 -17.4192 -17.4191 -17.0471 -17.0470 -16.6534 -16.6534
   -16.2428 -16.2427 -15.8384 -15.8383 -15.5200 -15.5200 -14.2679 -14.2679
   -13.8656 -13.8656 -13.3541 -13.3541 -12.7917 -12.7917 -12.2003 -12.2003
   -11.5878 -11.5878 -10.9747 -10.9746 -10.3696 -10.3695  -9.7922  -9.7922
    -9.2806  -9.2806  -8.8985  -8.8985  -8.6974  -8.6974  -8.6131  -8.6131
    -8.5835  -8.5835  -8.5785  -8.5785  -7.8401  -7.8401  -7.8137  -7.8137
    -7.7938  -7.7937  -7.7660  -7.7660  -7.7295  -7.7295  -7.6834  -7.6834
    -7.6475  -7.6475  -7.6259  -7.6259  -7.6091  -7.6091  -7.5918  -7.5918
    -7.3396  -7.3396  -7.1858  -7.1855  -7.0317  -7.0317  -6.9891  -6.9891
    -6.9605  -6.9605  -6.8521  -6.8521  -6.7035  -6.7035  -6.6638  -6.6638
    -6.5140  -6.5140  -6.4170  -6.4170  -6.2854  -6.2854  -6.2706  -6.2706
    -6.0215  -6.0215  -5.7246  -5.7246  -5.3980  -5.3980  -5.0470  -5.0470
    -4.6774  -4.6774  -4.3137  -4.3137  -3.9766  -3.9766  -3.7036  -3.7036
    -3.5413  -3.5413   0.6085   0.6086   0.8209   0.8209   1.1887   1.1887
     1.6637   1.6637   2.2029   2.2030   2.7794   2.7794   3.3529   3.3529
     3.7670   3.7670   3.9062   3.9063   3.9660   3.9660   4.0194   4.0194
     4.1127   4.1127   4.2119   4.2119   4.3895   4.3895   4.4216   4.4216
     4.5643   4.5643   4.8196   4.8196   4.8759   4.8759   5.0650   5.0650
     5.2206   5.2206   5.2573   5.2573   5.3899   5.3899   5.4543   5.4543
     5.5372   5.5373   5.5750   5.5750   5.6736   5.6736   5.6766   5.6766
     5.7166   5.7166   5.7950   5.7950   5.9402   5.9402   5.9627   5.9627
     6.0810   6.0810   6.1214   6.1214   6.1571   6.1571   6.2079   6.2079
     6.2334   6.2334   6.3645   6.3645   6.3938   6.3938   6.4796   6.4796
     6.5056   6.5056   6.5947   6.5947   6.6236   6.6236   6.7015   6.7015
     6.7317   6.7317   6.8307   6.8307   6.8766   6.8766   6.9477   6.9477
     7.0653   7.0653   7.0909   7.0909   7.1150   7.1150   7.1429   7.1429
     7.1654   7.1654   7.2267   7.2267   7.2463   7.2463   7.3661   7.3661
     7.4744   7.4744   7.4909   7.4909   7.5653   7.5653   7.7118   7.7118
     7.7239   7.7239   7.8329   7.8329   7.8483   7.8483   7.8761   7.8761
     7.9905   7.9906   8.1609   8.1609   8.2118   8.2118   8.3242   8.3242
     8.3760   8.3761   8.5168   8.5169   8.5547   8.5547   8.6277   8.6277
     8.6615   8.6615   8.7545   8.7546   8.8861   8.8862   9.0018   9.0019
     9.0448   9.0449   9.2418   9.2419   9.3778   9.3778   9.4113   9.4113
     9.5306   9.5306   9.5517   9.5517   9.8531   9.8531  10.0077  10.0078
    10.0435  10.0435  10.1374  10.1374  10.2822  10.2822  10.4702  10.4702
    10.5439  10.5440  10.5885  10.5885  10.6284  10.6284  10.7264  10.7264
    10.7544  10.7544  10.7993  10.7994  10.8661  10.8661  10.9981  10.9982
    11.1668  11.1668  11.3792  11.3792  11.4235  11.4236  11.4301  11.4301
    11.4969  11.4970  11.5167  11.5167  11.6270  11.6270  11.6349  11.6349
    11.6782  11.6782  11.7073  11.7073  11.7585  11.7586  11.7843  11.7843
    11.8058  11.8058  11.8534  11.8534  11.9192  11.9192  11.9741  11.9741
    12.1423  12.1424  12.2463  12.2463  12.3257  12.3257  12.3926  12.3926
    12.6175  12.6175  12.6856  12.6856  12.7911  12.7911  12.8258  12.8258
    12.8473  12.8473  12.8872  12.8872  12.9629  12.9629  12.9632  12.9632
    13.0567  13.0567  13.1834  13.1834  13.2358  13.2358  13.2917  13.2917
    13.3595  13.3595  13.3905  13.3905  13.4605  13.4605  13.5893  13.5893
    13.6224  13.6224  13.8180  13.8181  13.8506  13.8506  13.8537  13.8537
    14.0028  14.0028  14.1181  14.1181  14.1753  14.1754  14.2074  14.2074
    14.3216  14.3216  14.3362  14.3362  14.6091  14.6091  14.6937  14.6937
    14.8363  14.8363  14.8930  14.8930  14.9375  14.9375  15.0229  15.0229
    15.0787  15.0787  15.1175  15.1175  15.1649  15.1649  15.1915  15.1915
    15.3611  15.3611  15.4105  15.4105  15.4394  15.4395  15.5102  15.5102
    15.6046  15.6046  15.6621  15.6621  15.6827  15.6827  15.7934  15.7934
    15.9021  15.9021  15.9942  15.9943  16.0028  16.0029  16.1168  16.1169
    16.3034  16.3034  16.3217  16.3217  16.3797  16.3797  16.4558  16.4558
    16.5178  16.5178  16.6518  16.6518  16.6747  16.6747  16.7045  16.7045
    16.8298  16.8298  16.9155  16.9155  16.9616  16.9617  17.1320  17.1320
    17.2037  17.2037  17.2371  17.2371  17.2500  17.2500  17.3826  17.3826
    17.4478  17.4478  17.5026  17.5026  17.5803  17.5803  17.6374  17.6374
    17.7163  17.7163  17.7394  17.7394  17.7879  17.7879  17.8058  17.8059
    17.8362  17.8362  17.9601  17.9601

     the Fermi energy is    -1.1774 ev

     Writing output data file A30.save/

     init_run     :      8.60s CPU      8.88s WALL (       1 calls)
     electrons    :   4338.79s CPU   4378.50s WALL (       1 calls)

     Called by init_run:
     wfcinit      :      0.00s CPU      0.00s WALL (       1 calls)
     potinit      :      0.45s CPU      0.53s WALL (       1 calls)
     hinit0       :      6.99s CPU      7.05s WALL (       1 calls)

     Called by electrons:
     c_bands      :   4338.77s CPU   4378.47s WALL (       1 calls)
     v_of_rho     :      0.35s CPU      0.38s WALL (       1 calls)
     newd         :      0.29s CPU      0.40s WALL (       1 calls)

     Called by c_bands:
     init_us_2    :      0.25s CPU      0.27s WALL (      26 calls)
     cegterg      :   4251.44s CPU   4287.42s WALL (      89 calls)

     Called by sum_band:

     Called by *egterg:
     h_psi        :    891.32s CPU    903.16s WALL (    1585 calls)
     s_psi        :     99.27s CPU     99.41s WALL (    1585 calls)
     g_psi        :      5.61s CPU      5.62s WALL (    1470 calls)
     cdiaghg      :   2205.18s CPU   2209.18s WALL (    1496 calls)

     Called by h_psi:
     h_psi:pot    :    888.59s CPU    897.09s WALL (    1585 calls)
     h_psi:calbec :    109.36s CPU    110.88s WALL (    1585 calls)
     vloc_psi     :    679.90s CPU    686.62s WALL (    1585 calls)
     add_vuspsi   :     99.31s CPU     99.57s WALL (    1585 calls)

     General routines
     calbec       :    109.35s CPU    110.87s WALL (    1585 calls)
     fft          :      0.39s CPU      0.42s WALL (      14 calls)
     ffts         :      0.00s CPU      0.00s WALL (       1 calls)
     fftw         :    620.87s CPU    627.12s WALL (  488270 calls)
     interpolate  :      0.03s CPU      0.03s WALL (       1 calls)
     davcio       :      0.00s CPU      1.97s WALL (      52 calls)

     Parallel routines
     fft_scatt_xy :     91.16s CPU     91.95s WALL (  488285 calls)
     fft_scatt_yz :    224.19s CPU    227.60s WALL (  488285 calls)

     PWSCF        :     1h12m CPU       12h 1m WALL

      21h

   This run was terminated on:  19:49:40   8Apr2022            

=------------------------------------------------------------------------------=
   JOB DONE.
=------------------------------------------------------------------------------=
