
     Program PWSCF v.6.3 starts on  8Apr2022 at 18:50:16 

     This program is part of the open-source Quantum ESPRESSO suite
     for quantum simulation of materials; please cite
         "P. Giannozzi et al., J. Phys.:Condens. Matter 21 395502 (2009);
         "P. Giannozzi et al., J. Phys.:Condens. Matter 29 465901 (2017);
          URL http://www.quantum-espresso.org", 
     in publications or presentations arising from this work. More details at
     http://www.quantum-espresso.org/quote

     Parallel version (MPI), running on    16 processors
     R & G space division:  proc/nbgrp/npool/nimage =      16
     Waiting for input...
     Reading input from standard input
     Message from routine read_cards :
     DEPRECATED: no units specified in CELL_PARAMETERS card

     Current dimensions of program PWSCF are:
     Max number of different atomic species (ntypx) = 10
     Max number of k-points (npk) =  40000
     Max angular momentum in pseudopotentials (lmaxx) =  3

     Atomic positions and unit cell read from directory:
     /home/zfwang/scratch/GNRDATASET/AGNR/A31/A31.save/


     Subspace diagonalization in iterative solution of the eigenvalue problem:
     a serial algorithm will be used


     Parallelization info
     --------------------
     sticks:   dense  smooth     PW     G-vecs:    dense   smooth      PW
     Min        4174    1392    391               156286    30077    4509
     Max        4175    1394    393               156287    30078    4510
     Sum       66791   22285   6273              2500583   481241   72145



     bravais-lattice index     =            0
     lattice parameter (alat)  =       1.8897  a.u.
     unit-cell volume          =   14083.5986 (a.u.)^3
     number of atoms/cell      =           66
     number of atomic types    =            2
     number of electrons       =       252.00
     number of Kohn-Sham states=          500
     kinetic-energy cutoff     =      40.0000  Ry
     charge density cutoff     =     480.0000  Ry
     Exchange-correlation      = PBE ( 1  4  3  4 0 0)

     celldm(1)=  18.897261  celldm(2)=   4.899000  celldm(3)=   0.426000
     celldm(4)=   0.000000  celldm(5)=   0.000000  celldm(6)=   0.000000

     crystal axes: (cart. coord. in units of alat)
               a(1) = (  10.000000   0.000000   0.000000 )  
               a(2) = (   0.000000  48.990000   0.000000 )  
               a(3) = (   0.000000   0.000000   4.260000 )  

     reciprocal axes: (cart. coord. in units 2 pi/alat)
               b(1) = (  0.100000  0.000000  0.000000 )  
               b(2) = (  0.000000  0.020412  0.000000 )  
               b(3) = (  0.000000  0.000000  0.234742 )  


     PseudoPot. # 1 for C  read from file:
     /home/zfwang/hp_home/MySoftware/qe-6.3/pseudo/C.pbe-n-rrkjus_psl.0.1.UPF
     MD5 check sum: fff530ed632a789b3b184014e67dd7f1
     Pseudo is Ultrasoft + core correction, Zval =  4.0
     Generated using "atomic" code by A. Dal Corso v.5.0.2 svn rev. 9415
     Using radial grid of 1073 points,  4 beta functions with: 
                l(1) =   0
                l(2) =   0
                l(3) =   1
                l(4) =   1
     Q(r) pseudized with 0 coefficients 


     PseudoPot. # 2 for H  read from file:
     /home/zfwang/hp_home/MySoftware/qe-6.3/pseudo/H.pbe-rrkjus_psl.0.1.UPF
     MD5 check sum: e164a6907b691c6980f16942be34de84
     Pseudo is Ultrasoft, Zval =  1.0
     Generated using "atomic" code by A. Dal Corso v.5.0.2 svn rev. 9415
     Using radial grid of  929 points,  2 beta functions with: 
                l(1) =   0
                l(2) =   0
     Q(r) pseudized with 0 coefficients 


     atomic species   valence    mass     pseudopotential
        C              4.00    12.01070     C ( 1.00)
        H              1.00     1.00794     H ( 1.00)

     No symmetry found



   Cartesian axes

     site n.     atom                  positions (alat units)
         1           C   tau(   1) = (   4.9999957   6.0611620   2.8131524  )
         2           C   tau(   2) = (   4.9999972   7.2674758   3.5444616  )
         3           C   tau(   3) = (   4.9999968   6.0611539   1.4468463  )
         4           C   tau(   4) = (   4.9999985   8.4964856   2.8410012  )
         5           C   tau(   5) = (   4.9999996   9.7329085   3.5525464  )
         6           C   tau(   6) = (   4.9999972   7.2674855   0.7155357  )
         7           C   tau(   7) = (   4.9999985   8.4964775   1.4189961  )
         8           C   tau(   8) = (   5.0000002  10.9623390   2.8417649  )
         9           C   tau(   9) = (   4.9999998  12.1910333   3.5494192  )
        10           C   tau(  10) = (   4.9999992   9.7329119   0.7074518  )
        11           C   tau(  11) = (   5.0000002  10.9623396   1.4182342  )
        12           C   tau(  12) = (   4.9999989  13.4241565   2.8391817  )
        13           C   tau(  13) = (   4.9999982  14.6553470   3.5490147  )
        14           C   tau(  14) = (   4.9999997  12.1910311   0.7105807  )
        15           C   tau(  15) = (   4.9999990  13.4241588   1.4208192  )
        16           C   tau(  16) = (   4.9999988  15.8847802   2.8403912  )
        17           C   tau(  17) = (   4.9999997  17.1162132   3.5506566  )
        18           C   tau(  18) = (   4.9999986  14.6553464   0.7109872  )
        19           C   tau(  19) = (   4.9999988  15.8847792   1.4196111  )
        20           C   tau(  20) = (   5.0000002  18.3465292   2.8405277  )
        21           C   tau(  21) = (   5.0000010  19.5752832   3.5497024  )
        22           C   tau(  22) = (   4.9999995  17.1162144   0.7093461  )
        23           C   tau(  23) = (   5.0000001  18.3465276   1.4194749  )
        24           C   tau(  24) = (   5.0000020  20.8057771   2.8394452  )
        25           C   tau(  25) = (   5.0000027  22.0359510   3.5496034  )
        26           C   tau(  26) = (   5.0000011  19.5752829   0.7103001  )
        27           C   tau(  27) = (   5.0000021  20.8057783   1.4205571  )
        28           C   tau(  28) = (   5.0000031  23.2647035   2.8403375  )
        29           C   tau(  29) = (   5.0000027  24.4949953   3.5505169  )
        30           C   tau(  30) = (   5.0000029  22.0359489   0.7103984  )
        31           C   tau(  31) = (   5.0000031  23.2647049   1.4196645  )
        32           C   tau(  32) = (   5.0000019  25.7252875   2.8403374  )
        33           C   tau(  33) = (   5.0000004  26.9540395   3.5496030  )
        34           C   tau(  34) = (   5.0000031  24.4949948   0.7094849  )
        35           C   tau(  35) = (   5.0000015  25.7252875   1.4196645  )
        36           C   tau(  36) = (   5.0000001  28.1842106   2.8394448  )
        37           C   tau(  37) = (   4.9999990  29.4147060   3.5497017  )
        38           C   tau(  38) = (   5.0000005  26.9540402   0.7103987  )
        39           C   tau(  39) = (   4.9999996  28.1842111   1.4205570  )
        40           C   tau(  40) = (   4.9999982  30.6434569   2.8405272  )
        41           C   tau(  41) = (   4.9999974  31.8737733   3.5506558  )
        42           C   tau(  42) = (   4.9999994  29.4147049   0.7102999  )
        43           C   tau(  43) = (   4.9999981  30.6434590   1.4194743  )
        44           C   tau(  44) = (   4.9999985  33.1052087   2.8403916  )
        45           C   tau(  45) = (   4.9999998  34.3346478   3.5490131  )
        46           C   tau(  46) = (   4.9999985  31.8737708   0.7093457  )
        47           C   tau(  47) = (   4.9999983  33.1052094   1.4196099  )
        48           C   tau(  48) = (   5.0000020  35.5658470   2.8391820  )
        49           C   tau(  49) = (   5.0000030  36.7989749   3.5494193  )
        50           C   tau(  50) = (   4.9999999  34.3346485   0.7109876  )
        51           C   tau(  51) = (   5.0000020  35.5658436   1.4208172  )
        52           C   tau(  52) = (   5.0000029  38.0276747   2.8417643  )
        53           C   tau(  53) = (   5.0000021  39.2571051   3.5525467  )
        54           C   tau(  54) = (   5.0000030  36.7989791   0.7105795  )
        55           C   tau(  55) = (   5.0000031  38.0276712   1.4182338  )
        56           C   tau(  56) = (   5.0000015  40.4935368   2.8409937  )
        57           C   tau(  57) = (   5.0000002  41.7225424   3.5444632  )
        58           C   tau(  58) = (   5.0000025  39.2571062   0.7074506  )
        59           C   tau(  59) = (   5.0000011  40.4935397   1.4190033  )
        60           C   tau(  60) = (   4.9999995  42.9288544   2.8131341  )
        61           C   tau(  61) = (   5.0000001  41.7225385   0.7155340  )
        62           C   tau(  62) = (   4.9999991  42.9288587   1.4468635  )
        63           H   tau(  63) = (   4.9999948   5.1055737   3.3302263  )
        64           H   tau(  64) = (   4.9999998   5.1055744   0.9297738  )
        65           H   tau(  65) = (   4.9999977  43.8844523   3.3302225  )
        66           H   tau(  66) = (   4.9999982  43.8844522   0.9297759  )

     number of k points=    26  Marzari-Vanderbilt smearing, width (Ry)=  0.0100
                       cart. coord. in units 2pi/alat
        k(    1) = (   0.0000000   0.0000000   0.0000000), wk =   0.0400000
        k(    2) = (   0.0000000   0.0000000   0.0046948), wk =   0.0800000
        k(    3) = (   0.0000000   0.0000000   0.0093897), wk =   0.0800000
        k(    4) = (   0.0000000   0.0000000   0.0140845), wk =   0.0800000
        k(    5) = (   0.0000000   0.0000000   0.0187793), wk =   0.0800000
        k(    6) = (   0.0000000   0.0000000   0.0234742), wk =   0.0800000
        k(    7) = (   0.0000000   0.0000000   0.0281690), wk =   0.0800000
        k(    8) = (   0.0000000   0.0000000   0.0328638), wk =   0.0800000
        k(    9) = (   0.0000000   0.0000000   0.0375587), wk =   0.0800000
        k(   10) = (   0.0000000   0.0000000   0.0422535), wk =   0.0800000
        k(   11) = (   0.0000000   0.0000000   0.0469484), wk =   0.0800000
        k(   12) = (   0.0000000   0.0000000   0.0516432), wk =   0.0800000
        k(   13) = (   0.0000000   0.0000000   0.0563380), wk =   0.0800000
        k(   14) = (   0.0000000   0.0000000   0.0610329), wk =   0.0800000
        k(   15) = (   0.0000000   0.0000000   0.0657277), wk =   0.0800000
        k(   16) = (   0.0000000   0.0000000   0.0704225), wk =   0.0800000
        k(   17) = (   0.0000000   0.0000000   0.0751174), wk =   0.0800000
        k(   18) = (   0.0000000   0.0000000   0.0798122), wk =   0.0800000
        k(   19) = (   0.0000000   0.0000000   0.0845070), wk =   0.0800000
        k(   20) = (   0.0000000   0.0000000   0.0892019), wk =   0.0800000
        k(   21) = (   0.0000000   0.0000000   0.0938967), wk =   0.0800000
        k(   22) = (   0.0000000   0.0000000   0.0985915), wk =   0.0800000
        k(   23) = (   0.0000000   0.0000000   0.1032864), wk =   0.0800000
        k(   24) = (   0.0000000   0.0000000   0.1079812), wk =   0.0800000
        k(   25) = (   0.0000000   0.0000000   0.1126761), wk =   0.0800000
        k(   26) = (   0.0000000   0.0000000  -0.1173709), wk =   0.0400000

     Dense  grid:  2500583 G-vectors     FFT dimensions: ( 135, 648,  60)

     Smooth grid:   481241 G-vectors     FFT dimensions: (  80, 375,  36)

     Estimated max dynamical RAM per process >     638.70 MB

     Estimated total dynamical RAM >       9.98 GB

     The potential is recalculated from file :
     /home/zfwang/scratch/GNRDATASET/AGNR/A31/A31.save/charge-density.dat


     negative rho (up, down):  8.771E-05 0.000E+00
     Starting wfcs are  252 randomized atomic wfcs +  248 random wfcs

     Band Structure Calculation
     Davidson diagonalization with overlap
     c_bands:  1 eigenvalues not converged
     c_bands:  1 eigenvalues not converged
     c_bands:  3 eigenvalues not converged
     c_bands:  2 eigenvalues not converged
     c_bands:  1 eigenvalues not converged
     c_bands:  1 eigenvalues not converged
     c_bands:  1 eigenvalues not converged
     c_bands:  1 eigenvalues not converged

     ethr =  3.97E-09,  avg # of iterations = 90.0

     total cpu time spent up to now is     5986.2 secs

     End of band structure calculation

          k = 0.0000 0.0000 0.0000 ( 60001 PWs)   bands (ev):

   -20.6630 -20.6020 -20.5115 -20.3882 -20.2289 -20.0359 -19.8110 -19.5539
   -19.2641 -18.9414 -18.5799 -18.1918 -17.7758 -17.3334 -16.8670 -16.3800
   -15.8769 -15.3947 -15.3649 -15.3401 -15.2614 -15.1550 -15.0168 -14.8558
   -14.8493 -14.6544 -14.4316 -14.3861 -14.3748 -14.3305 -14.2575 -14.1799
   -14.1534 -14.0383 -13.9368 -13.8989 -13.8866 -13.7315 -13.6553 -13.5834
   -13.5758 -13.5412 -13.2312 -12.8606 -12.4640 -12.0424 -11.6688 -11.6589
   -11.5967 -11.4456 -11.4224 -11.1444 -11.1286 -11.0281 -10.7754 -10.6396
   -10.5601 -10.3477 -10.1317 -10.0774  -9.8695  -9.6066  -9.5985  -9.3656
    -9.1187  -9.0658  -8.8714  -8.7542  -8.6845  -8.6384  -8.5783  -8.5025
    -8.4327  -8.4154  -8.2454  -8.1774  -8.0192  -8.0101  -7.9448  -7.8257
    -7.7558  -7.6371  -7.5946  -7.4556  -7.3880  -7.1245  -7.1189  -6.8377
    -6.7463  -6.6573  -6.3344  -6.3026  -6.2061  -5.8943  -5.7947  -5.7795
    -5.4264  -5.3861  -5.3287  -5.0353  -4.9340  -4.9219  -4.7348  -4.5947
    -4.4914  -4.4213  -4.3628  -4.3142  -4.2271  -4.2113  -3.8937  -3.4594
    -3.3881  -3.3578  -3.2784  -3.1276  -2.9338  -2.8214  -2.6992  -2.4253
    -2.2939  -2.1118  -1.7855  -1.7586  -1.3651  -1.3070  -0.9152  -0.8592
    -0.4866  -0.4402  -0.1773   0.0674   0.0676   0.2512   0.3821   0.4703
     0.5263   0.5584   0.5719   0.6079   1.1793   1.7798   1.8653   1.9882
     2.0145   2.1164   2.1955   2.3730   2.4068   2.5266   2.7773   2.9999
     3.0571   3.2630   3.3150   3.3824   3.4737   3.5847   3.6119   3.7100
     3.7266   3.8127   3.8796   4.0152   4.1485   4.1517   4.3306   4.4110
     4.4708   4.5394   4.6402   4.8096   4.8714   4.9601   4.9760   5.0098
     5.0603   5.1042   5.1201   5.1765   5.3566   5.5021   5.5969   5.6657
     5.7460   5.7808   5.8066   5.9896   6.1202   6.1452   6.3949   6.4022
     6.4189   6.4241   6.4920   6.5950   6.6098   6.8159   6.9522   6.9874
     7.0675   7.0927   7.1608   7.2431   7.2590   7.2975   7.3003   7.3112
     7.3817   7.4109   7.4818   7.4957   7.6311   7.6724   7.7603   7.8026
     7.8029   7.8255   7.8309   7.9829   7.9876   8.0726   8.0780   8.1063
     8.2519   8.3334   8.3388   8.4070   8.4233   8.4865   8.5001   8.5798
     8.6571   8.6630   8.8071   8.8750   8.9601   9.0018   9.1207   9.2332
     9.2476   9.3137   9.3499   9.3693   9.4450   9.4563   9.4832   9.5075
     9.5332   9.5497   9.5507   9.5605   9.5627   9.5718   9.6186   9.6419
     9.6707   9.7030   9.7575   9.7896   9.7957   9.8032   9.8425   9.8721
     9.9414   9.9807  10.0286  10.0327  10.0734  10.0833  10.1139  10.1409
    10.1534  10.1742  10.1878  10.2145  10.2248  10.2378  10.3244  10.3323
    10.3730  10.3745  10.3871  10.3914  10.4136  10.4658  10.4748  10.5280
    10.5823  10.6015  10.6339  10.6375  10.6504  10.6965  10.7083  10.7446
    10.7644  10.7986  10.8126  10.8674  10.8973  10.9309  10.9698  11.0321
    11.0446  11.0511  11.0684  11.0888  11.1578  11.1821  11.1904  11.2231
    11.2687  11.3167  11.3369  11.3432  11.3654  11.3729  11.4229  11.4751
    11.4942  11.5145  11.5258  11.5411  11.5646  11.5953  11.5998  11.6099
    11.6393  11.6442  11.6626  11.6787  11.6874  11.6893  11.7175  11.7199
    11.7571  11.7679  11.7714  11.8344  11.8463  11.8649  11.8753  11.8804
    11.8864  11.9045  11.9346  11.9362  11.9833  12.0439  12.0508  12.0513
    12.0747  12.0756  12.0894  12.1067  12.1597  12.1804  12.1999  12.2155
    12.2547  12.3154  12.3336  12.3389  12.3639  12.3823  12.4184  12.4225
    12.4854  12.5318  12.5435  12.6378  12.6515  12.7053  12.7377  12.7507
    12.7834  12.7998  12.8387  12.8515  12.8590  12.9173  12.9340  12.9812
    13.0002  13.0136  13.0171  13.0216  13.0648  13.0747  13.1021  13.1115
    13.1300  13.1748  13.2253  13.2905  13.3454  13.4475  13.4635  13.4760
    13.5465  13.6072  13.7029  13.7070  13.7381  13.7501  13.8253  13.8278
    13.8463  13.8467  13.8864  13.9086  13.9151  13.9729  14.0272  14.0987
    14.1589  14.1719  14.1835  14.2789  14.2795  14.2844  14.3051  14.3485
    14.3666  14.4447  14.4600  14.4626  14.4840  14.5092  14.6055  14.6309
    14.6647  14.7090  14.7300  14.7893  14.8078  14.8179  14.8526  14.9028
    14.9273  14.9590  14.9977  15.0304  15.0738  15.2451  15.2965  15.3242
    15.4273  15.4491  15.4630  15.4658  15.4814  15.5176  15.5239  15.5267
    15.5964  15.6112  15.6624  15.7482  15.7899  15.8438  15.8637  15.9480
    16.0482  16.0496  16.0696  16.0845  16.1336  16.1368  16.1706  16.1797
    16.1873  16.2057  16.2147  16.2520  16.2583  16.3169  16.3413  16.3578
    16.3736  16.3756  16.4342  16.4436  16.4838  16.5184  16.5399  16.5448
    16.5737  16.6560  16.6741  16.7220  16.7306  16.7468  16.7491  16.7746
    16.7746  16.7954  16.8478  16.9037

          k = 0.0000 0.0000 0.0047 ( 60039 PWs)   bands (ev):

   -20.6606 -20.5996 -20.5091 -20.3858 -20.2265 -20.0336 -19.8087 -19.5515
   -19.2618 -18.9391 -18.5776 -18.1895 -17.7736 -17.3312 -16.8649 -16.3779
   -15.8751 -15.4392 -15.3848 -15.3634 -15.3055 -15.1985 -15.0604 -14.8924
   -14.8554 -14.6971 -14.4772 -14.3732 -14.3381 -14.2844 -14.2289 -14.2100
   -14.1073 -14.0028 -13.9672 -13.9476 -13.8403 -13.6903 -13.5983 -13.5629
   -13.5356 -13.4952 -13.2454 -12.8798 -12.4847 -12.0634 -11.6562 -11.6409
   -11.6158 -11.4255 -11.4124 -11.1513 -11.1207 -11.0194 -10.7580 -10.6567
   -10.5495 -10.3338 -10.1482 -10.0635  -9.8604  -9.6222  -9.5832  -9.3594
    -9.1041  -9.0806  -8.8662  -8.7514  -8.6817  -8.6256  -8.5754  -8.5168
    -8.4298  -8.4101  -8.2426  -8.1685  -8.0164  -8.0026  -7.9586  -7.8219
    -7.7530  -7.6347  -7.5836  -7.4528  -7.4008  -7.1162  -7.1143  -6.8500
    -6.7436  -6.6488  -6.3318  -6.3148  -6.1991  -5.8918  -5.8093  -5.7715
    -5.4241  -5.3877  -5.3350  -5.0374  -4.9319  -4.9290  -4.7388  -4.6012
    -4.4973  -4.4196  -4.3683  -4.3217  -4.2320  -4.2199  -3.8925  -3.4752
    -3.4040  -3.3574  -3.2946  -3.1442  -2.9510  -2.8225  -2.7175  -2.4452
    -2.2980  -2.1347  -1.7974  -1.7882  -1.4208  -1.3596  -0.8640  -0.8042
    -0.4568  -0.4302  -0.1535   0.0692   0.0889   0.2717   0.4021   0.4900
     0.5459   0.5779   0.5913   0.6059   1.1754   1.7748   1.8685   1.9914
     2.0177   2.1196   2.1988   2.3763   2.4010   2.5298   2.7805   3.0031
     3.0505   3.2662   3.3182   3.3859   3.4776   3.5879   3.6151   3.7133
     3.7201   3.8160   3.8828   4.0185   4.1517   4.1550   4.3338   4.4039
     4.4741   4.5427   4.6435   4.8128   4.8745   4.9633   4.9788   5.0130
     5.0634   5.0973   5.1232   5.1798   5.3597   5.5052   5.6001   5.6689
     5.7401   5.7839   5.8087   5.9927   6.1234   6.1483   6.3988   6.4048
     6.4207   6.4281   6.4852   6.5969   6.6126   6.8187   6.9548   6.9905
     7.0714   7.0945   7.1536   7.2475   7.2642   7.2862   7.3150   7.3160
     7.3757   7.4131   7.4873   7.4888   7.6244   7.6692   7.7626   7.7940
     7.8064   7.8181   7.8308   7.9847   7.9889   8.0434   8.0795   8.1189
     8.2559   8.3075   8.3350   8.3991   8.4242   8.4963   8.5040   8.5751
     8.6316   8.6600   8.8108   8.8846   8.9521   8.9592   9.1139   9.2443
     9.2525   9.3184   9.3202   9.3524   9.4359   9.4568   9.4819   9.5081
     9.5230   9.5534   9.5538   9.5679   9.5773   9.5809   9.6218   9.6484
     9.6773   9.6799   9.7041   9.7059   9.7540   9.7978   9.8022   9.8029
     9.8344   9.8607   9.8749   9.9462  10.0289  10.0644  10.1127  10.1164
    10.1325  10.1549  10.2361  10.2370  10.3175  10.3236  10.3271  10.3430
    10.3661  10.3783  10.3910  10.4530  10.4538  10.4861  10.4892  10.5454
    10.5867  10.6020  10.6201  10.6644  10.6902  10.7003  10.7239  10.7273
    10.7434  10.7888  10.8131  10.8323  10.8540  10.8996  10.9551  11.0022
    11.0082  11.0405  11.0503  11.0848  11.1143  11.1169  11.2257  11.2403
    11.2567  11.2836  11.2960  11.3478  11.3640  11.3706  11.4245  11.4368
    11.4963  11.5437  11.5583  11.5750  11.5957  11.6009  11.6091  11.6198
    11.6415  11.6642  11.6851  11.6867  11.7004  11.7407  11.7444  11.7732
    11.7885  11.7973  11.8228  11.8378  11.8607  11.8619  11.8725  11.8845
    11.8929  11.9086  11.9294  11.9559  11.9975  12.0502  12.0520  12.0662
    12.0870  12.0954  12.1398  12.1401  12.1726  12.1730  12.1737  12.2005
    12.2645  12.2789  12.3376  12.3398  12.3713  12.3811  12.4291  12.4389
    12.4692  12.4787  12.4870  12.5297  12.5809  12.6003  12.6303  12.6467
    12.7379  12.7462  12.7981  12.7992  12.9047  12.9210  12.9752  12.9975
    13.0104  13.0110  13.0431  13.0597  13.0782  13.1213  13.1714  13.1761
    13.2051  13.2586  13.2962  13.2974  13.3380  13.4166  13.4686  13.5696
    13.5771  13.6163  13.6211  13.7118  13.7166  13.7575  13.7669  13.8291
    13.8352  13.8580  13.8732  13.8946  13.9903  14.0039  14.0626  14.0918
    14.1755  14.2076  14.2292  14.2739  14.3045  14.3065  14.3383  14.3507
    14.4153  14.4275  14.4353  14.4668  14.5270  14.5475  14.5887  14.6440
    14.6674  14.6745  14.7316  14.8063  14.8248  14.8268  14.8468  14.8597
    14.9650  14.9730  15.0413  15.0712  15.1750  15.2349  15.2693  15.2984
    15.3157  15.3291  15.3713  15.4488  15.4642  15.4646  15.6054  15.6264
    15.6454  15.6512  15.7110  15.7376  15.7533  15.8236  15.8636  15.9310
    15.9561  16.0280  16.0526  16.0860  16.1298  16.1442  16.1710  16.1905
    16.2209  16.2244  16.2341  16.2488  16.3214  16.3224  16.3349  16.3447
    16.3833  16.3879  16.4259  16.4482  16.4540  16.5176  16.5219  16.5313
    16.5669  16.6405  16.6498  16.6933  16.7025  16.7860  16.7933  16.7964
    16.8195  16.8580  16.8998  16.9079

          k = 0.0000 0.0000 0.0094 ( 60065 PWs)   bands (ev):

   -20.6535 -20.5925 -20.5020 -20.3787 -20.2194 -20.0265 -19.8017 -19.5445
   -19.2548 -18.9322 -18.5707 -18.1827 -17.7668 -17.3246 -16.8585 -16.3718
   -15.8697 -15.5538 -15.4988 -15.4190 -15.3613 -15.3094 -15.1723 -15.0031
   -14.8590 -14.8021 -14.5895 -14.3791 -14.3455 -14.2130 -14.1607 -14.0986
   -14.0887 -14.0323 -13.9856 -13.8603 -13.7224 -13.5833 -13.5254 -13.4848
   -13.4264 -13.3865 -13.2845 -12.9340 -12.5432 -12.1229 -11.6806 -11.6084
   -11.5888 -11.3850 -11.3677 -11.2033 -11.0634 -10.9965 -10.7263 -10.6849
   -10.5228 -10.2934 -10.1921 -10.0276  -9.8324  -9.6652  -9.5418  -9.3406
    -9.1222  -9.0635  -8.8505  -8.7429  -8.6732  -8.5902  -8.5670  -8.5572
    -8.4214  -8.3939  -8.2342  -8.1447  -8.0080  -7.9976  -7.9795  -7.8114
    -7.7447  -7.6275  -7.5522  -7.4446  -7.4373  -7.1081  -7.0857  -6.8853
    -6.7357  -6.6252  -6.3487  -6.3241  -6.1808  -5.8844  -5.8419  -5.7586
    -5.4172  -5.3985  -5.3482  -5.0453  -4.9491  -4.9256  -4.7511  -4.6204
    -4.5148  -4.4142  -4.3853  -4.3438  -4.2466  -4.2457  -3.8887  -3.5217
    -3.4509  -3.3563  -3.3421  -3.1931  -3.0017  -2.8258  -2.7707  -2.5031
    -2.3102  -2.2003  -1.8699  -1.8322  -1.5470  -1.4748  -0.7526  -0.6796
    -0.4013  -0.3746  -0.0853   0.0738   0.1514   0.3316   0.4608   0.5481
     0.6001   0.6036   0.6355   0.6489   1.1639   1.7598   1.8781   2.0010
     2.0274   2.1293   2.2085   2.3835   2.3859   2.5395   2.7902   3.0128
     3.0311   3.2758   3.3278   3.3964   3.4891   3.5976   3.6247   3.7009
     3.7231   3.8257   3.8926   4.0282   4.1613   4.1647   4.3436   4.3831
     4.4840   4.5525   4.6531   4.8223   4.8841   4.9729   4.9867   5.0227
     5.0727   5.0775   5.1328   5.1896   5.3692   5.5144   5.6096   5.6786
     5.7213   5.7933   5.8163   6.0022   6.1330   6.1577   6.4104   6.4119
     6.4263   6.4401   6.4651   6.6024   6.6211   6.8271   6.9623   6.9997
     7.0827   7.1001   7.1325   7.2574   7.2790   7.2816   7.3262   7.3346
     7.3638   7.4201   7.4666   7.5029   7.6004   7.6696   7.7426   7.7703
     7.8073   7.8178   7.8439   7.9739   7.9905   7.9943   8.0837   8.1394
     8.2260   8.2680   8.3395   8.3755   8.4296   8.5105   8.5123   8.5158
     8.6046   8.6683   8.8214   8.8503   8.8973   8.9285   9.0967   9.2036
     9.2539   9.2670   9.3326   9.3584   9.3979   9.4093   9.4469   9.4485
     9.4796   9.5074   9.5136   9.5381   9.5629   9.5633   9.5830   9.5934
     9.6035   9.6129   9.6314   9.6675   9.6970   9.6971   9.7146   9.7745
     9.7987   9.8012   9.8150   9.8832   9.8965   9.9598  10.0290  10.0400
    10.1074  10.1593  10.1621  10.1996  10.2272  10.2727  10.2973  10.3026
    10.3629  10.3710  10.4170  10.5097  10.5189  10.5322  10.5724  10.6041
    10.6078  10.6410  10.6429  10.6446  10.6564  10.6861  10.7198  10.7422
    10.7624  10.7688  10.7900  10.7913  10.8134  10.8608  10.8848  10.8923
    10.9193  11.0412  11.0489  11.0646  11.1108  11.1326  11.1639  11.2316
    11.2352  11.3410  11.3571  11.3734  11.4026  11.4140  11.4227  11.4267
    11.4390  11.5084  11.5448  11.5644  11.5979  11.6100  11.6522  11.6583
    11.6694  11.6970  11.7008  11.7056  11.7380  11.7500  11.7578  11.8036
    11.8266  11.8299  11.8799  11.8845  11.9135  11.9212  11.9702  12.0006
    12.0075  12.0117  12.0214  12.0317  12.0487  12.0530  12.0634  12.0664
    12.1179  12.1204  12.1204  12.1419  12.1442  12.1632  12.1987  12.2190
    12.2262  12.2374  12.2621  12.2787  12.3051  12.3385  12.3656  12.3812
    12.3868  12.3899  12.4091  12.4638  12.4731  12.5746  12.6129  12.6214
    12.6366  12.7179  12.7678  12.7900  12.8229  12.8374  12.8519  12.8910
    12.9730  13.0086  13.0334  13.0982  13.1051  13.2525  13.2707  13.3106
    13.3340  13.3498  13.3769  13.4071  13.4224  13.4784  13.5075  13.5221
    13.6038  13.6164  13.6887  13.7023  13.7303  13.7520  13.7547  13.8003
    13.8406  13.8498  13.9432  13.9466  13.9609  14.1021  14.1412  14.1732
    14.2351  14.2401  14.2494  14.3268  14.3422  14.3490  14.3618  14.3986
    14.4291  14.4364  14.4903  14.5185  14.5416  14.5873  14.6540  14.6830
    14.6866  14.6919  14.7379  14.7563  14.8411  14.8588  14.8750  14.9568
    14.9865  14.9930  15.0585  15.1234  15.1425  15.1550  15.1975  15.2529
    15.2743  15.3345  15.3420  15.4485  15.4504  15.4958  15.6105  15.6390
    15.6491  15.6537  15.6633  15.6916  15.7369  15.7478  15.8385  15.8624
    15.9773  15.9809  16.0681  16.0954  16.1053  16.1469  16.1705  16.1853
    16.2332  16.2514  16.2518  16.2566  16.2792  16.2871  16.3340  16.3788
    16.4052  16.4131  16.4375  16.4420  16.4911  16.5143  16.5610  16.5953
    16.6192  16.6259  16.6815  16.6944  16.7350  16.8027  16.8085  16.8356
    16.8859  16.9328  16.9498  16.9582

          k = 0.0000 0.0000 0.0141 ( 60059 PWs)   bands (ev):

   -20.6416 -20.5807 -20.4902 -20.3669 -20.2077 -20.0148 -19.7899 -19.5329
   -19.2432 -18.9206 -18.5592 -18.1713 -17.7556 -17.3136 -16.8478 -16.3617
   -15.8609 -15.7071 -15.6517 -15.5710 -15.4639 -15.3518 -15.3220 -15.1505
   -14.9609 -14.8459 -14.7362 -14.4927 -14.3971 -14.2451 -14.1294 -14.0420
   -13.9907 -13.9166 -13.8193 -13.6987 -13.5619 -13.5022 -13.4129 -13.3668
   -13.3397 -13.2834 -13.2508 -13.0151 -12.6310 -12.2122 -11.7675 -11.5432
   -11.5072 -11.3563 -11.2777 -11.2691 -10.9720 -10.9680 -10.7877 -10.6099
   -10.4917 -10.2841 -10.1965  -9.9848  -9.7947  -9.7137  -9.4868  -9.3104
    -9.1791  -9.0064  -8.8240  -8.7286  -8.6590  -8.6169  -8.5528  -8.5404
    -8.4073  -8.3652  -8.2202  -8.1130  -8.0568  -7.9941  -7.9396  -7.7954
    -7.7309  -7.6162  -7.5042  -7.4933  -7.4309  -7.0946  -7.0429  -6.9401
    -6.7225  -6.5909  -6.4009  -6.3113  -6.1557  -5.8907  -5.8722  -5.7438
    -5.4318  -5.4056  -5.3558  -5.0633  -4.9788  -4.9152  -4.7733  -4.6518
    -4.5442  -4.4144  -4.4054  -4.3800  -4.2875  -4.2712  -3.8824  -3.5962
    -3.5261  -3.4186  -3.3539  -3.2710  -3.0822  -2.8561  -2.8302  -2.5935
    -2.3305  -2.3007  -1.9886  -1.8873  -1.7000  -1.6120  -0.6218  -0.5294
    -0.3558  -0.2551   0.0196   0.0817   0.2497   0.4269   0.5547   0.5907
     0.6414   0.6967   0.7285   0.7419   1.1451   1.7351   1.8941   2.0169
     2.0436   2.1453   2.2247   2.3549   2.4020   2.5557   2.8063   2.9992
     3.0290   3.2918   3.3439   3.4133   3.5080   3.6138   3.6403   3.6700
     3.7395   3.8420   3.9088   4.0444   4.1773   4.1808   4.3491   4.3598
     4.5003   4.5687   4.6692   4.8383   4.9000   4.9888   4.9940   5.0387
     5.0509   5.0882   5.1486   5.2058   5.3850   5.5297   5.6252   5.6884
     5.6946   5.8090   5.8309   6.0179   6.1489   6.1733   6.4218   6.4280
     6.4333   6.4371   6.4600   6.6110   6.6348   6.8411   6.9742   7.0148
     7.0898   7.1093   7.1093   7.2708   7.2779   7.3058   7.3447   7.3496
     7.3580   7.4312   7.4449   7.5057   7.5753   7.6779   7.6806   7.7325
     7.8202   7.8366   7.8642   7.8826   8.0001   8.0006   8.0761   8.1312
     8.1536   8.2881   8.3367   8.3413   8.3926   8.4394   8.5072   8.5352
     8.6080   8.6757   8.7195   8.8368   8.8767   8.8914   9.0573   9.0709
     9.1066   9.1616   9.2265   9.2782   9.2905   9.3558   9.3621   9.3648
     9.3666   9.3759   9.4675   9.5053   9.5203   9.5399   9.5761   9.5781
     9.6065   9.6071   9.6191   9.6215   9.6473   9.6983   9.7283   9.7286
     9.7636   9.7773   9.7972   9.8034   9.8190   9.8339   9.8973  10.0257
    10.0369  10.0658  10.0970  10.1617  10.1656  10.1853  10.2522  10.2625
    10.2987  10.2996  10.3530  10.3947  10.4184  10.4822  10.4966  10.5217
    10.5233  10.5391  10.5406  10.5722  10.5990  10.6277  10.6439  10.6926
    10.7491  10.7515  10.7654  10.8688  10.8756  10.8818  10.9218  10.9633
    11.0121  11.0828  11.1118  11.1368  11.1432  11.1671  11.2141  11.2293
    11.2335  11.2549  11.2922  11.3895  11.4088  11.4112  11.4517  11.4834
    11.4873  11.5379  11.5966  11.6013  11.6357  11.6510  11.6645  11.6688
    11.6866  11.7171  11.7250  11.7429  11.7638  11.7852  11.7906  11.8489
    11.8566  11.8605  11.8626  11.9025  11.9111  11.9478  11.9526  11.9603
    12.0049  12.0085  12.0150  12.0502  12.0520  12.0756  12.0905  12.1089
    12.1212  12.1457  12.1552  12.1657  12.1918  12.2073  12.2098  12.2229
    12.2691  12.2740  12.2807  12.2932  12.3050  12.3069  12.3391  12.3570
    12.3715  12.3902  12.4046  12.4104  12.4129  12.4847  12.5614  12.6138
    12.6384  12.6463  12.6542  12.7517  12.7801  12.8125  12.8470  12.8574
    12.9792  13.0157  13.0390  13.0497  13.1054  13.1797  13.2155  13.2205
    13.3054  13.3054  13.4844  13.5162  13.5638  13.5845  13.6126  13.6257
    13.6606  13.6814  13.7179  13.7463  13.7473  13.7602  13.8012  13.8449
    13.8892  13.9435  13.9911  14.0947  14.1572  14.1574  14.1753  14.1941
    14.2069  14.2799  14.2977  14.3738  14.4052  14.4197  14.4438  14.4462
    14.4738  14.5041  14.5378  14.5512  14.6056  14.6298  14.6433  14.7247
    14.7516  14.7785  14.7857  14.7893  14.9023  14.9140  14.9213  14.9221
    14.9804  15.0206  15.0280  15.0634  15.0771  15.1724  15.1806  15.2177
    15.3117  15.3948  15.4036  15.4090  15.4678  15.4837  15.5612  15.5884
    15.5922  15.6028  15.6298  15.7084  15.7335  15.7433  15.8186  15.8543
    15.9094  15.9261  15.9865  16.0050  16.0166  16.0292  16.1595  16.2202
    16.2237  16.2409  16.3193  16.3241  16.3412  16.3593  16.3693  16.3758
    16.4494  16.4940  16.5059  16.5128  16.5663  16.5912  16.5999  16.6046
    16.6716  16.7007  16.7147  16.7186  16.7356  16.8660  16.8919  16.9105
    16.9128  16.9557  16.9730  17.0342

          k = 0.0000 0.0000 0.0188 ( 60045 PWs)   bands (ev):

   -20.6251 -20.5641 -20.4736 -20.3504 -20.1912 -19.9983 -19.7735 -19.5165
   -19.2269 -18.9045 -18.5432 -18.1554 -17.7399 -17.2982 -16.8329 -16.3477
   -15.8794 -15.8490 -15.8232 -15.7409 -15.6327 -15.4897 -15.3555 -15.3049
   -15.1235 -14.8987 -14.8489 -14.6511 -14.4466 -14.3783 -14.2440 -13.8457
   -13.7952 -13.7230 -13.6278 -13.5152 -13.4568 -13.4150 -13.3770 -13.2439
   -13.2391 -13.1241 -13.1236 -13.0963 -12.7389 -12.3225 -11.8763 -11.4552
   -11.4163 -11.4017 -11.2512 -11.1621 -10.9619 -10.8542 -10.8497 -10.4970
   -10.4757 -10.3498 -10.1001  -9.9568  -9.8283  -9.6675  -9.4394  -9.3052
    -9.1964  -8.9483  -8.7929  -8.7088  -8.6764  -8.6391  -8.5330  -8.4882
    -8.3875  -8.3226  -8.2005  -8.1279  -8.0797  -7.9745  -7.8834  -7.7751
    -7.7115  -7.6056  -7.5592  -7.4443  -7.4118  -7.0758  -7.0107  -6.9910
    -6.7040  -6.5503  -6.4685  -6.2933  -6.1276  -5.9543  -5.8550  -5.7293
    -5.4870  -5.3895  -5.3595  -5.0989  -5.0114  -4.9006  -4.8075  -4.6944
    -4.5860  -4.4571  -4.4294  -4.3931  -4.3433  -4.3057  -3.8737  -3.6952
    -3.6258  -3.5196  -3.3740  -3.3513  -3.1879  -2.9656  -2.8386  -2.7099
    -2.4270  -2.3589  -2.1307  -1.9597  -1.8632  -1.7578  -0.4847  -0.3697
    -0.2970  -0.1117   0.0930   0.1521   0.3771   0.5522   0.5784   0.6793
     0.7659   0.8212   0.8531   0.8666   1.1196   1.7014   1.9165   2.0393
     2.0662   2.1679   2.2473   2.3156   2.4245   2.5783   2.8288   2.9557
     3.0517   3.3143   3.3664   3.4353   3.5340   3.6273   3.6365   3.6641
     3.7623   3.8646   3.9314   4.0669   4.1998   4.2035   4.3028   4.3826
     4.5229   4.5912   4.6917   4.8605   4.9223   4.9727   5.0111   5.0464
     5.0612   5.1098   5.1709   5.2286   5.4071   5.5511   5.6418   5.6466
     5.7168   5.8309   5.8525   6.0396   6.1710   6.1947   6.3862   6.4327
     6.4537   6.4560   6.4874   6.6223   6.6530   6.8605   6.9893   7.0357
     7.0447   7.1219   7.1325   7.2826   7.2883   7.3173   7.3519   7.3705
     7.3722   7.4279   7.4506   7.4801   7.5781   7.6071   7.6808   7.6869
     7.7863   7.8260   7.8627   7.8916   7.9793   8.0090   8.0130   8.1228
     8.1314   8.2589   8.2832   8.3158   8.3681   8.4367   8.4556   8.5619
     8.5827   8.6032   8.7097   8.7914   8.8093   8.8235   8.8741   8.8771
     8.9459   8.9685   9.0615   9.1127   9.1270   9.2706   9.2995   9.3256
     9.3313   9.3563   9.3876   9.3967   9.4423   9.5173   9.5846   9.5850
     9.5992   9.6015   9.6382   9.6516   9.6605   9.6691   9.6926   9.7001
     9.7249   9.7361   9.7545   9.7634   9.7941   9.7981   9.8315   9.8930
     9.9171  10.0088  10.0114  10.0132  10.1028  10.1639  10.1727  10.1856
    10.2253  10.2566  10.2617  10.2639  10.2803  10.3009  10.3110  10.3142
    10.3152  10.3564  10.4870  10.5050  10.5838  10.6172  10.6445  10.6626
    10.7131  10.7318  10.7654  10.8025  10.8487  10.8717  10.9027  10.9131
    10.9949  11.0469  11.1077  11.1524  11.1859  11.2490  11.2760  11.2846
    11.3253  11.4066  11.4136  11.4285  11.4679  11.4739  11.5031  11.5246
    11.5526  11.5536  11.5704  11.6087  11.6244  11.6456  11.6589  11.6822
    11.6903  11.6929  11.7139  11.7148  11.7387  11.7609  11.7649  11.8239
    11.8468  11.8594  11.8871  11.9198  11.9401  11.9406  11.9421  11.9500
    11.9526  11.9847  11.9994  12.0186  12.0532  12.0706  12.0931  12.1411
    12.1435  12.1581  12.1734  12.1929  12.1940  12.2217  12.2386  12.2508
    12.2942  12.3030  12.3170  12.3376  12.3656  12.3659  12.4260  12.4432
    12.4484  12.4627  12.4706  12.4765  12.4872  12.4965  12.5296  12.5391
    12.5641  12.5676  12.6524  12.7325  12.7709  12.8057  12.8417  12.8668
    12.9403  12.9603  13.0411  13.0588  13.0633  13.0907  13.0944  13.2140
    13.3091  13.3346  13.4171  13.4889  13.5043  13.5501  13.5815  13.6478
    13.6890  13.7188  13.8022  13.8444  13.8993  13.9133  13.9957  14.0475
    14.0494  14.1029  14.1038  14.1505  14.1948  14.2090  14.2199  14.2506
    14.2876  14.3707  14.3878  14.4052  14.4414  14.4446  14.4618  14.5239
    14.5305  14.6038  14.6122  14.6195  14.6586  14.6855  14.7075  14.7442
    14.7462  14.7686  14.7843  14.8869  14.8901  14.9080  14.9719  14.9729
    14.9903  15.0279  15.1047  15.1271  15.1631  15.1702  15.2356  15.2465
    15.3125  15.3297  15.3349  15.4182  15.4431  15.4655  15.5219  15.5418
    15.5470  15.6048  15.6674  15.7320  15.7535  15.7536  15.8098  15.8128
    15.8266  15.8449  15.8805  15.9189  15.9806  16.0449  16.1971  16.2154
    16.2541  16.2614  16.3340  16.3391  16.3712  16.4321  16.4726  16.4731
    16.4828  16.5003  16.5736  16.5929  16.6097  16.6488  16.6524  16.6704
    16.7128  16.7168  16.7707  16.7885  16.7913  16.8424  16.8732  16.9245
    16.9295  16.9600  16.9826  16.9927

          k = 0.0000 0.0000 0.0235 ( 60037 PWs)   bands (ev):

   -20.6038 -20.5428 -20.4523 -20.3291 -20.1700 -19.9772 -19.7525 -19.4956
   -19.2060 -18.8837 -18.5225 -18.1350 -17.7198 -17.2785 -16.8138 -16.3299
   -16.0594 -16.0030 -15.9227 -15.8323 -15.8103 -15.6648 -15.4978 -15.3275
   -15.2953 -15.0669 -14.8731 -14.7936 -14.5817 -14.4426 -14.3719 -13.6340
   -13.5845 -13.5147 -13.4813 -13.4322 -13.4200 -13.3034 -13.2205 -13.1904
   -13.1349 -13.0516 -12.9591 -12.9526 -12.8571 -12.4458 -11.9992 -11.5296
   -11.3480 -11.2841 -11.1716 -11.0418 -11.0268 -10.8321 -10.7172 -10.5280
   -10.3646 -10.3638  -9.9930  -9.9763  -9.8510  -9.5610  -9.4461  -9.3330
    -9.1211  -8.9143  -8.8087  -8.6832  -8.6611  -8.6136  -8.5075  -8.4456
    -8.3621  -8.2860  -8.1810  -8.1752  -8.0476  -7.9494  -7.8176  -7.7510
    -7.6866  -7.6538  -7.5695  -7.3872  -7.3779  -7.0930  -7.0515  -6.9347
    -6.6803  -6.5487  -6.5077  -6.2703  -6.1001  -6.0309  -5.8329  -5.7179
    -5.5578  -5.3688  -5.3663  -5.1560  -5.0442  -4.8818  -4.8561  -4.7471
    -4.6402  -4.5165  -4.4907  -4.4090  -4.3773  -4.3500  -3.8627  -3.8146
    -3.7458  -3.6409  -3.4973  -3.3490  -3.3131  -3.0958  -2.8492  -2.8459
    -2.5713  -2.3958  -2.2864  -2.0500  -2.0265  -1.9079  -0.3455  -0.2289
    -0.2052   0.0463   0.1082   0.3047   0.5272   0.5636   0.7019   0.8294
     0.9167   0.9727   1.0050   1.0189   1.0879   1.6593   1.9453   2.0680
     2.0953   2.1968   2.2665   2.2764   2.4535   2.6074   2.8577   2.9015
     3.0808   3.3431   3.3953   3.4571   3.5667   3.5820   3.6657   3.6927
     3.7916   3.8937   3.9605   4.0951   4.2287   4.2326   4.2457   4.4118
     4.5520   4.6198   4.7206   4.8892   4.9180   4.9510   5.0398   5.0699
     5.0900   5.1375   5.1995   5.2578   5.4356   5.5785   5.5826   5.6731
     5.7451   5.8590   5.8808   6.0673   6.1994   6.2218   6.3298   6.4446
     6.4748   6.4893   6.5221   6.6354   6.6748   6.8851   6.9827   7.0058
     7.0618   7.1379   7.1671   7.2923   7.3102   7.3205   7.3427   7.3744
     7.4034   7.4139   7.4582   7.4699   7.5400   7.5946   7.6156   7.6669
     7.7316   7.7894   7.8902   7.8955   7.9260   8.0109   8.0273   8.0364
     8.1399   8.2040   8.2158   8.3082   8.3511   8.3740   8.4480   8.5093
     8.5275   8.5352   8.5898   8.5957   8.6873   8.7316   8.7330   8.7574
     8.8157   8.8999   8.9323   8.9323   8.9476   9.1349   9.1967   9.2211
     9.2278   9.2351   9.3690   9.4211   9.4269   9.4756   9.5207   9.5674
     9.5724   9.5941   9.6196   9.6241   9.6272   9.6520   9.6628   9.6745
     9.6853   9.6934   9.7504   9.7602   9.7723   9.7932   9.8387   9.8468
     9.8634   9.9307   9.9412   9.9490   9.9593   9.9810   9.9836  10.0128
    10.0213  10.0491  10.0792  10.0853  10.1119  10.1484  10.2370  10.2915
    10.3170  10.3298  10.3501  10.4910  10.5635  10.5697  10.5835  10.6352
    10.6459  10.6893  10.6988  10.7866  10.7951  10.8324  10.8482  10.8703
    10.8968  10.9335  11.0346  11.1705  11.1810  11.2467  11.2669  11.3025
    11.3058  11.3341  11.3892  11.4411  11.4425  11.4461  11.5033  11.5345
    11.5486  11.5982  11.6221  11.6284  11.6545  11.6783  11.7009  11.7107
    11.7148  11.7236  11.7466  11.7487  11.7664  11.7690  11.7790  11.8250
    11.8389  11.8717  11.8809  11.9460  11.9529  11.9529  11.9665  11.9808
    11.9922  12.0098  12.0118  12.0425  12.0461  12.0633  12.1444  12.1457
    12.1627  12.1660  12.1814  12.2014  12.2356  12.2496  12.2561  12.2562
    12.3079  12.3101  12.3260  12.3341  12.4082  12.4401  12.4446  12.4516
    12.5005  12.5013  12.5147  12.5187  12.5654  12.5813  12.5814  12.6406
    12.6423  12.6708  12.6774  12.6989  12.7853  12.7960  12.8318  12.8697
    12.9291  12.9462  12.9565  13.0291  13.0647  13.1033  13.1391  13.2076
    13.2364  13.2391  13.3390  13.3677  13.4643  13.5748  13.6113  13.6954
    13.7079  13.8131  13.8614  13.9365  13.9944  14.0160  14.0353  14.0493
    14.0515  14.2322  14.2436  14.2766  14.3125  14.3539  14.3605  14.3867
    14.3930  14.4186  14.4448  14.4774  14.5040  14.5168  14.5183  14.5632
    14.5838  14.6071  14.6566  14.6663  14.7201  14.7461  14.7824  14.7836
    14.7933  14.7954  14.8202  14.8736  14.9490  14.9497  14.9995  15.0151
    15.0194  15.0338  15.1437  15.2083  15.2413  15.2436  15.2502  15.2748
    15.3276  15.3505  15.3718  15.4397  15.4796  15.4842  15.4945  15.5096
    15.5674  15.5748  15.6189  15.6275  15.6294  15.7496  15.7516  15.7709
    15.8136  15.8638  15.9367  15.9449  16.1364  16.1430  16.2049  16.2598
    16.2601  16.3007  16.3485  16.3748  16.3854  16.3896  16.4408  16.5168
    16.5169  16.5365  16.6037  16.6177  16.6342  16.6867  16.6954  16.6962
    16.7329  16.7401  16.7421  16.8670  16.8720  16.8794  16.9092  16.9502
    16.9549  16.9707  17.0050  17.0276

          k = 0.0000 0.0000 0.0282 ( 60058 PWs)   bands (ev):

   -20.5777 -20.5168 -20.4263 -20.3032 -20.1441 -19.9513 -19.7267 -19.4699
   -19.1805 -18.8583 -18.4974 -18.1101 -17.6952 -17.2544 -16.7906 -16.3089
   -16.2430 -16.1858 -16.1040 -15.9912 -15.8578 -15.8019 -15.6741 -15.4698
   -15.3285 -15.2269 -15.0069 -14.8312 -14.7409 -14.5081 -14.4998 -13.5399
   -13.4218 -13.4117 -13.3633 -13.3147 -13.2897 -13.2051 -13.0912 -13.0817
   -12.9788 -12.9528 -12.8641 -12.8141 -12.7757 -12.5749 -12.1305 -11.6574
   -11.2338 -11.1638 -11.1461 -11.0596 -10.8905 -10.7670 -10.6357 -10.5658
   -10.3301 -10.2178 -10.0907  -9.8378  -9.8248  -9.5325  -9.4346  -9.3105
    -9.0121  -8.9605  -8.8118  -8.6520  -8.5824  -8.5756  -8.4764  -8.4305
    -8.3311  -8.3194  -8.1444  -8.1356  -8.0178  -7.9188  -7.7880  -7.7233
    -7.6946  -7.6562  -7.5450  -7.3571  -7.3140  -7.1793  -7.0219  -6.8789
    -6.6513  -6.6380  -6.4670  -6.2422  -6.1180  -6.0764  -5.8059  -5.7124
    -5.6410  -5.3801  -5.3435  -5.2311  -5.0811  -4.9208  -4.8590  -4.8092
    -4.7074  -4.5959  -4.5627  -4.4798  -4.4036  -4.3583  -3.9503  -3.8825
    -3.8493  -3.7784  -3.6365  -3.4566  -3.3440  -3.2411  -2.9961  -2.8632
    -2.7274  -2.4611  -2.4299  -2.2048  -2.1381  -2.0602  -0.2059  -0.1515
    -0.0408   0.1268   0.2138   0.4712   0.5475   0.6945   0.8709   1.0004
     1.0511   1.0895   1.1469   1.1801   1.1946   1.6097   1.9805   2.1031
     2.1309   2.2084   2.2322   2.3120   2.4890   2.6430   2.8374   2.8931
     3.1164   3.3782   3.4306   3.4526   3.5591   3.6057   3.7014   3.7280
     3.8271   3.9292   3.9960   4.1243   4.1839   4.2639   4.2682   4.4475
     4.5874   4.6537   4.7558   4.8488   4.9242   4.9861   5.0749   5.1040
     5.1252   5.1712   5.2345   5.2934   5.4704   5.5117   5.6119   5.7036
     5.7791   5.8933   5.9156   6.1007   6.2338   6.2539   6.2641   6.4575
     6.4979   6.5292   6.5639   6.6488   6.6985   6.9083   6.9143   7.0201
     7.0923   7.1566   7.2093   7.3041   7.3280   7.3348   7.3357   7.3487
     7.3789   7.4273   7.4428   7.4820   7.4892   7.5379   7.5637   7.6833
     7.6964   7.7164   7.8578   7.9179   7.9343   7.9669   8.0182   8.0298
     8.1286   8.1357   8.1799   8.2034   8.2437   8.3058   8.3155   8.3709
     8.3933   8.4507   8.4630   8.4969   8.5684   8.6361   8.6737   8.6787
     8.7358   8.7359   8.8144   8.8348   8.9316   8.9618   9.0455   9.0586
     9.1358   9.1594   9.2660   9.3329   9.4172   9.4218   9.4678   9.4683
     9.5049   9.5227   9.5786   9.6149   9.6375   9.6438   9.6579   9.7036
     9.7044   9.7062   9.7076   9.7229   9.7322   9.7361   9.7537   9.7782
     9.7831   9.7869   9.8202   9.8211   9.8454   9.8565   9.8593   9.8812
     9.8880   9.9021   9.9168   9.9781  10.0342  10.0796  10.1157  10.1409
    10.2471  10.3350  10.3430  10.4014  10.4396  10.4657  10.5242  10.5449
    10.5745  10.6673  10.6984  10.7322  10.7989  10.8063  10.8133  10.8410
    10.8595  10.9154  10.9200  10.9944  11.0551  11.1336  11.1389  11.1937
    11.2077  11.2492  11.2781  11.3122  11.3419  11.4337  11.4768  11.4937
    11.5390  11.5746  11.6130  11.6250  11.6515  11.6924  11.7107  11.7299
    11.7465  11.7521  11.7599  11.7785  11.7958  11.8178  11.8622  11.8793
    11.9316  11.9483  11.9527  11.9832  11.9835  11.9893  12.0048  12.0064
    12.0432  12.0615  12.0675  12.0861  12.1095  12.1305  12.1420  12.1604
    12.2186  12.2211  12.2212  12.2333  12.2352  12.2633  12.3032  12.3234
    12.3295  12.3296  12.3534  12.4048  12.4290  12.4691  12.4711  12.4825
    12.5225  12.5344  12.5440  12.5551  12.5709  12.5976  12.6458  12.6553
    12.6638  12.7055  12.7630  12.7779  12.7903  12.8837  12.8996  12.9013
    12.9164  13.0159  13.0401  13.0470  13.0798  13.0936  13.0957  13.1199
    13.1374  13.2225  13.2533  13.4517  13.4812  13.5566  13.5890  13.7347
    13.7841  13.8402  13.8534  13.9113  13.9706  14.0402  14.1202  14.1428
    14.1445  14.1829  14.2158  14.2619  14.3847  14.3897  14.3928  14.4729
    14.5375  14.5497  14.5605  14.5608  14.6116  14.6284  14.6353  14.6565
    14.6868  14.7218  14.7322  14.7518  14.7523  14.7977  14.8140  14.8248
    14.8448  14.8678  14.8688  14.8979  14.9455  15.0603  15.0659  15.0705
    15.0934  15.0960  15.1734  15.1876  15.2071  15.2075  15.3028  15.3225
    15.3461  15.3860  15.4332  15.4647  15.4790  15.4981  15.5275  15.5594
    15.5869  15.6236  15.6255  15.6402  15.6756  15.7510  15.7699  15.7727
    15.8315  15.9238  15.9281  16.0694  16.1209  16.1689  16.2542  16.2917
    16.3034  16.3304  16.3606  16.3667  16.3886  16.4453  16.4550  16.4914
    16.5235  16.5503  16.5525  16.6550  16.6779  16.6791  16.7313  16.7417
    16.7910  16.8277  16.8534  16.9021  16.9160  16.9164  16.9377  16.9643
    16.9987  16.9988  17.0318  17.0519

          k = 0.0000 0.0000 0.0329 ( 60078 PWs)   bands (ev):

   -20.5469 -20.4860 -20.3956 -20.2725 -20.1134 -19.9208 -19.6963 -19.4396
   -19.1504 -18.8283 -18.4676 -18.0806 -17.6662 -17.2261 -16.7635 -16.4271
   -16.3708 -16.2867 -16.2846 -16.1711 -16.0300 -15.8518 -15.7938 -15.6406
   -15.4334 -15.2815 -15.1728 -14.9025 -14.8427 -14.6479 -14.5715 -13.5862
   -13.4876 -13.3214 -13.1826 -13.1429 -13.1353 -13.0673 -12.9882 -12.9466
   -12.8734 -12.7537 -12.7523 -12.6640 -12.6402 -12.6013 -12.2656 -11.7915
   -11.2973 -11.0699 -11.0475 -10.9223 -10.7741 -10.7479 -10.6562 -10.4149
   -10.2750 -10.2090 -10.0593  -9.7852  -9.6959  -9.6369  -9.2986  -9.2740
    -9.0596  -8.8898  -8.7797  -8.6151  -8.5456  -8.4893  -8.4699  -8.4397
    -8.3217  -8.2945  -8.1080  -8.0470  -7.9973  -7.8826  -7.8564  -7.6925
    -7.6322  -7.6204  -7.5135  -7.3216  -7.3160  -7.2067  -6.9870  -6.8343
    -6.7269  -6.6171  -6.4323  -6.2126  -6.2090  -6.0597  -5.7742  -5.7342
    -5.7153  -5.4035  -5.3202  -5.3138  -5.1265  -5.0023  -4.8810  -4.8322
    -4.7884  -4.6951  -4.6441  -4.5536  -4.4659  -4.3360  -4.0986  -4.0312
    -3.9283  -3.8351  -3.7871  -3.6099  -3.3974  -3.3411  -3.1557  -2.9037
    -2.8682  -2.6247  -2.4874  -2.3751  -2.2431  -2.2137  -0.0688  -0.0666
     0.1242   0.1502   0.3864   0.5303   0.6481   0.8747   1.0101   1.0550
     1.1881   1.2802   1.3398   1.3747   1.3901   1.5535   2.0220   2.1423
     2.1445   2.1730   2.2740   2.3541   2.5308   2.6851   2.7644   2.9349
     3.1585   3.3970   3.4198   3.4724   3.5845   3.6502   3.7435   3.7697
     3.8684   3.9711   4.0380   4.0911   4.1828   4.3056   4.3103   4.4897
     4.6292   4.6873   4.7749   4.7973   4.9657   5.0276   5.1164   5.1452
     5.1667   5.2108   5.2759   5.3354   5.4299   5.5114   5.6512   5.7360
     5.8186   5.9338   5.9569   6.1392   6.1926   6.2742   6.2901   6.4710
     6.5193   6.5756   6.6125   6.6611   6.7229   6.8225   6.9466   7.0265
     7.1255   7.1770   7.2586   7.3136   7.3184   7.3211   7.3437   7.3486
     7.3600   7.3755   7.4116   7.4453   7.4917   7.4926   7.5011   7.5962
     7.6452   7.7724   7.8477   7.8761   7.9451   7.9694   7.9730   7.9937
     8.0133   8.0445   8.0493   8.0952   8.1231   8.1470   8.2162   8.2239
     8.2997   8.3441   8.3958   8.4411   8.5003   8.5262   8.5771   8.6032
     8.6330   8.6825   8.7187   8.7891   8.8347   8.9057   8.9577   8.9580
     8.9780   9.0267   9.1013   9.2309   9.2452   9.3597   9.3803   9.4266
     9.4516   9.4699   9.4796   9.5071   9.5100   9.5141   9.5511   9.5962
     9.6162   9.6437   9.6519   9.6696   9.6912   9.6985   9.7107   9.7109
     9.7118   9.7234   9.7264   9.7360   9.7502   9.7657   9.7668   9.8458
     9.8711   9.8881   9.9336   9.9484   9.9853  10.0147  10.0346  10.0557
    10.1048  10.1911  10.2720  10.3031  10.3632  10.4021  10.4333  10.5210
    10.5558  10.5658  10.6824  10.7122  10.7250  10.7418  10.7648  10.7746
    10.7799  10.8386  10.8746  10.8759  10.9415  10.9540  10.9747  11.0222
    11.0834  11.1231  11.2128  11.2196  11.3651  11.3840  11.3846  11.5174
    11.5398  11.5523  11.5571  11.5797  11.6061  11.6263  11.6426  11.6497
    11.7284  11.7341  11.7839  11.8007  11.8184  11.8215  11.8233  11.9133
    11.9226  11.9649  11.9798  11.9970  12.0001  12.0147  12.0203  12.0592
    12.0860  12.1174  12.1292  12.1612  12.1904  12.2230  12.2489  12.2655
    12.2685  12.2691  12.2872  12.3185  12.3273  12.3278  12.3701  12.3896
    12.3981  12.4316  12.4381  12.4485  12.4821  12.5004  12.5095  12.5118
    12.5252  12.5468  12.5775  12.5811  12.6268  12.6437  12.6561  12.6931
    12.7550  12.7630  12.7712  12.7900  12.8434  12.8435  12.8687  12.8857
    12.9098  12.9987  13.0674  13.0758  13.1239  13.1246  13.1723  13.2220
    13.2720  13.2835  13.3163  13.3427  13.3622  13.6406  13.6977  13.7251
    13.7491  13.7988  13.8668  13.9251  13.9551  14.0060  14.0672  14.1260
    14.1351  14.2436  14.2451  14.2742  14.4133  14.4415  14.4489  14.5057
    14.5231  14.5323  14.5591  14.5605  14.5875  14.7236  14.7257  14.7880
    14.8351  14.8395  14.8662  14.8944  14.8961  14.9252  14.9398  14.9487
    14.9512  14.9613  14.9641  14.9736  14.9792  15.0303  15.0555  15.0989
    15.1181  15.1598  15.1804  15.1935  15.2917  15.2985  15.3174  15.3626
    15.3680  15.4327  15.4481  15.4979  15.5193  15.5248  15.5697  15.5814
    15.5963  15.6096  15.7504  15.7516  15.7866  15.7952  15.8460  15.8786
    15.9006  15.9642  15.9735  16.0912  16.1591  16.1650  16.2559  16.3486
    16.3535  16.3624  16.3834  16.3919  16.4129  16.4214  16.4601  16.4731
    16.4814  16.5856  16.6369  16.6671  16.7144  16.7163  16.7974  16.8183
    16.8225  16.8537  16.8554  16.8785  16.8793  16.9316  16.9417  16.9552
    16.9710  17.0026  17.0105  17.0464

          k = 0.0000 0.0000 0.0376 ( 60128 PWs)   bands (ev):

   -20.5114 -20.4505 -20.3601 -20.2371 -20.0781 -19.8856 -19.6612 -19.4047
   -19.1156 -18.7938 -18.4334 -18.0468 -17.6328 -17.1936 -16.7329 -16.6101
   -16.5530 -16.4683 -16.3585 -16.2520 -16.2085 -16.0271 -15.8455 -15.7410
   -15.6001 -15.3401 -15.2754 -15.0610 -14.8707 -14.7777 -14.6590 -13.6187
   -13.5874 -13.2934 -13.2668 -12.9476 -12.9041 -12.8846 -12.8625 -12.8358
   -12.7493 -12.6520 -12.5587 -12.5407 -12.4486 -12.4453 -12.3817 -11.9280
   -11.4291 -10.9606 -10.9173 -10.8645 -10.7331 -10.6857 -10.5059 -10.3212
   -10.2904 -10.1802  -9.9032  -9.7625  -9.7369  -9.5330  -9.2332  -9.1909
    -9.1367  -8.7634  -8.7410  -8.5883  -8.5726  -8.5032  -8.3974  -8.3574
    -8.2903  -8.2523  -8.0660  -8.0282  -7.9502  -7.8932  -7.8409  -7.6599
    -7.5790  -7.5538  -7.4755  -7.4083  -7.2807  -7.1498  -6.9467  -6.8691
    -6.7480  -6.5777  -6.4136  -6.3059  -6.1708  -6.0531  -5.8349  -5.7376
    -5.7288  -5.4381  -5.4208  -5.2796  -5.1831  -5.1002  -4.9635  -4.8865
    -4.8080  -4.8015  -4.7331  -4.6311  -4.5361  -4.3108  -4.2565  -4.1896
    -4.0874  -3.9489  -3.8169  -3.7719  -3.5613  -3.3479  -3.3124  -3.0660
    -2.8958  -2.7968  -2.5463  -2.5459  -2.3676  -2.3541   0.0183   0.0715
     0.1784   0.2887   0.5140   0.5623   0.8313   0.9653   1.0650   1.2508
     1.3892   1.4855   1.4919   1.5483   1.5852   1.6020   2.0693   2.0699
     2.1922   2.2215   2.3222   2.4026   2.5792   2.6836   2.7336   2.9832
     3.2071   3.3175   3.4676   3.5206   3.6317   3.6982   3.7922   3.8179
     3.9123   4.0157   4.0195   4.0863   4.2282   4.3537   4.3588   4.5383
     4.6579   4.6772   4.7610   4.8451   5.0135   5.0754   5.1643   5.1925
     5.2145   5.2562   5.3237   5.3385   5.3837   5.5588   5.6962   5.7646
     5.8628   5.9804   6.0045   6.1218   6.1818   6.3201   6.3291   6.4829
     6.5338   6.6281   6.6677   6.6695   6.7266   6.7469   6.9766   7.0194
     7.1572   7.1960   7.2802   7.2834   7.3119   7.3146   7.3250   7.3349
     7.3449   7.3586   7.3698   7.3900   7.4329   7.4580   7.5293   7.5369
     7.5435   7.6996   7.7609   7.7623   7.8487   7.8622   7.8959   7.9241
     7.9437   7.9460   7.9785   8.0442   8.0629   8.1094   8.1338   8.1644
     8.2166   8.2317   8.2762   8.4038   8.4175   8.4539   8.4773   8.5092
     8.5602   8.6131   8.6682   8.7315   8.7704   8.8192   8.8681   8.8769
     8.9022   8.9395   8.9498   9.0870   9.1747   9.1786   9.1916   9.2376
     9.2509   9.2615   9.2689   9.3182   9.4248   9.4332   9.4900   9.5267
     9.5277   9.5348   9.5440   9.5945   9.5961   9.6429   9.6488   9.6809
     9.6985   9.7137   9.7169   9.7296   9.7401   9.7582   9.7660   9.8080
     9.8173   9.8565   9.8743   9.8761   9.9047   9.9848  10.0052  10.0534
    10.0650  10.0823  10.2480  10.2530  10.2717  10.2969  10.3400  10.4549
    10.4629  10.4653  10.5188  10.5887  10.5933  10.6206  10.6585  10.7080
    10.7507  10.7590  10.7623  10.8092  10.8679  10.9035  10.9037  10.9845
    11.0145  11.0518  11.0702  11.1786  11.2275  11.2448  11.3915  11.4277
    11.4446  11.4649  11.5367  11.5539  11.5654  11.5676  11.6282  11.6699
    11.6802  11.7294  11.7579  11.7831  11.8345  11.8441  11.8674  11.8687
    11.9204  11.9354  11.9951  12.0241  12.0356  12.0364  12.0709  12.1013
    12.1077  12.1189  12.1471  12.1558  12.1585  12.1884  12.2819  12.2856
    12.2913  12.3071  12.3105  12.3546  12.3672  12.4222  12.4373  12.4389
    12.4840  12.4911  12.5412  12.5418  12.5679  12.5952  12.5973  12.6170
    12.6356  12.6522  12.6731  12.6735  12.6739  12.7010  12.7037  12.7159
    12.7447  12.7723  12.7783  12.7914  12.8263  12.8400  12.9432  12.9536
    13.0051  13.0854  13.1046  13.1055  13.1401  13.1528  13.1879  13.1896
    13.2211  13.3854  13.4042  13.4883  13.5004  13.5670  13.6184  13.7306
    13.7364  13.7455  13.8122  13.9051  13.9939  14.0012  14.0450  14.1487
    14.1702  14.1718  14.1833  14.2940  14.3484  14.4309  14.5328  14.5439
    14.5479  14.5515  14.6160  14.6221  14.6459  14.6693  14.7975  14.8198
    14.8312  14.8516  14.8920  14.9161  14.9410  14.9632  14.9904  15.0427
    15.0483  15.0659  15.0659  15.1134  15.1502  15.1645  15.1881  15.2056
    15.2351  15.2449  15.2451  15.2591  15.3534  15.3718  15.3917  15.4406
    15.4609  15.4685  15.5224  15.5230  15.5416  15.5658  15.5767  15.6214
    15.6366  15.7370  15.7715  15.7969  15.8401  15.8849  15.9011  15.9056
    15.9798  16.0731  16.1033  16.2003  16.2428  16.2707  16.3109  16.3127
    16.3183  16.3590  16.4012  16.4155  16.4270  16.4428  16.4430  16.5471
    16.5862  16.6344  16.6347  16.6649  16.6906  16.7007  16.7170  16.7213
    16.7723  16.7726  16.7871  16.8475  16.8595  16.9464  16.9467  16.9621
    16.9753  17.0073  17.0150  17.0228

          k = 0.0000 0.0000 0.0423 ( 60132 PWs)   bands (ev):

   -20.4712 -20.4103 -20.3200 -20.1970 -20.0381 -19.8457 -19.6215 -19.3651
   -19.0763 -18.7547 -18.3946 -18.0084 -17.5952 -17.1571 -16.7915 -16.7336
   -16.7019 -16.6451 -16.5353 -16.3849 -16.2491 -16.1764 -16.0076 -15.7692
   -15.7294 -15.5031 -15.2911 -15.1920 -14.9712 -14.8448 -14.7607 -13.6829
   -13.6406 -13.3887 -13.2642 -12.9900 -12.8244 -12.7078 -12.6623 -12.6000
   -12.5427 -12.5176 -12.4615 -12.4113 -12.3224 -12.2534 -12.2476 -12.0609
   -11.5647 -11.0485 -10.7644 -10.7526 -10.6197 -10.5663 -10.4438 -10.3075
   -10.2164 -10.0353  -9.8684  -9.7644  -9.6664  -9.3798  -9.2898  -9.1892
    -9.0059  -8.7139  -8.6994  -8.6169  -8.5245  -8.4551  -8.3494  -8.2506
    -8.2474  -8.2046  -8.1169  -8.0184  -7.8699  -7.8532  -7.7936  -7.6350
    -7.5321  -7.5023  -7.4804  -7.4291  -7.2344  -7.0882  -6.9718  -6.9011
    -6.7130  -6.5330  -6.4596  -6.3495  -6.1275  -6.0627  -5.9374  -5.7549
    -5.6963  -5.5309  -5.4854  -5.2522  -5.2410  -5.2138  -5.0571  -5.0077
    -4.9250  -4.8285  -4.7670  -4.7137  -4.6136  -4.4213  -4.3546  -4.2837
    -4.2519  -4.1153  -3.9395  -3.8015  -3.7277  -3.4973  -3.3315  -3.2383
    -2.9702  -2.9203  -2.7156  -2.6124  -2.5206  -2.4698   0.1090   0.1974
     0.2227   0.4507   0.5009   0.7399   0.9195   1.0193   1.2617   1.4243
     1.4573   1.6008   1.7026   1.7694   1.8091   1.8275   1.9904   2.1241
     2.2463   2.2765   2.3768   2.4577   2.5960   2.6340   2.7887   3.0380
     3.2268   3.2621   3.5217   3.5753   3.6890   3.7410   3.8473   3.8725
     3.9138   3.9902   4.0742   4.1410   4.2826   4.4082   4.4138   4.5649
     4.5932   4.7316   4.8088   4.8991   5.0676   5.1297   5.2185   5.2382
     5.2447   5.2686   5.3072   5.3779   5.4383   5.6123   5.7466   5.7757
     5.9109   6.0329   6.0583   6.0673   6.2256   6.3631   6.3745   6.4851
     6.5393   6.6216   6.6701   6.6867   6.7294   6.7707   6.9704   7.0217
     7.1696   7.2094   7.2327   7.2331   7.2337   7.2662   7.3096   7.3389
     7.3404   7.3761   7.3766   7.3833   7.4050   7.4135   7.4395   7.4701
     7.4736   7.5163   7.6027   7.6063   7.7043   7.7094   7.7374   7.8107
     7.8901   7.9565   7.9574   8.0113   8.0344   8.0970   8.1087   8.1167
     8.1373   8.2296   8.2543   8.2965   8.3326   8.3403   8.3444   8.4187
     8.5602   8.5664   8.5946   8.6630   8.6678   8.7239   8.8182   8.8304
     8.8483   8.8678   8.9203   8.9347   8.9438   8.9633   8.9984   9.0329
     9.0501   9.0830   9.1860   9.2007   9.2206   9.2758   9.3305   9.3440
     9.3988   9.4354   9.5111   9.5180   9.5209   9.5567   9.6133   9.6275
     9.6545   9.6563   9.6810   9.7270   9.7321   9.7423   9.7565   9.7805
     9.8017   9.8037   9.8113   9.8587   9.8821   9.9272   9.9985  10.0542
    10.1004  10.1285  10.1333  10.1491  10.1949  10.2058  10.2610  10.2704
    10.3071  10.3444  10.4300  10.4469  10.5068  10.5182  10.5242  10.5367
    10.6382  10.6511  10.7070  10.8106  10.8590  10.8725  10.8994  10.9558
    10.9562  10.9964  11.0192  11.0839  11.1009  11.2101  11.2633  11.3514
    11.3556  11.3753  11.4130  11.4708  11.4861  11.5106  11.6122  11.6323
    11.6816  11.7413  11.7429  11.7926  11.8633  11.8662  11.8870  11.9191
    11.9571  12.0134  12.0216  12.0538  12.0553  12.0559  12.0652  12.0703
    12.0976  12.1262  12.1529  12.1753  12.1795  12.2276  12.2289  12.2360
    12.2581  12.2920  12.3159  12.3432  12.3562  12.4109  12.4272  12.4748
    12.4954  12.4958  12.5345  12.5669  12.5710  12.6221  12.6274  12.6476
    12.7124  12.7245  12.7260  12.7732  12.7813  12.7895  12.8143  12.8394
    12.8777  12.8947  12.9100  12.9198  12.9372  12.9402  12.9750  13.0393
    13.0410  13.1260  13.1437  13.1556  13.2025  13.2092  13.2139  13.2210
    13.2714  13.4065  13.4417  13.5372  13.5424  13.5782  13.5805  13.5811
    13.6930  13.7620  13.7881  13.8874  13.9417  13.9817  14.0870  14.0960
    14.1172  14.2388  14.2511  14.3098  14.3207  14.3499  14.5415  14.5750
    14.5903  14.6027  14.6087  14.6122  14.6726  14.6859  14.7460  14.8418
    14.8706  14.8764  14.8770  14.9298  14.9497  15.0205  15.0646  15.1219
    15.1346  15.1601  15.1856  15.1882  15.2437  15.2563  15.2861  15.3220
    15.3373  15.3764  15.3975  15.3981  15.4053  15.4139  15.4744  15.4940
    15.5056  15.5591  15.5940  15.6029  15.6301  15.6481  15.6592  15.6649
    15.7509  15.8060  15.8098  15.8975  15.9145  15.9154  15.9554  16.0623
    16.0958  16.1455  16.1567  16.1848  16.2142  16.2144  16.3502  16.3521
    16.4152  16.4167  16.4352  16.4513  16.4651  16.4688  16.4785  16.4907
    16.5361  16.5622  16.5951  16.6208  16.6551  16.6693  16.7212  16.7469
    16.7762  16.7825  16.8216  16.8275  16.8590  16.9246  16.9803  16.9882
    17.0012  17.0291  17.0325  17.0575

          k = 0.0000 0.0000 0.0469 ( 60158 PWs)   bands (ev):

   -20.4263 -20.3654 -20.2752 -20.1523 -19.9935 -19.8012 -19.5771 -19.3209
   -19.0323 -18.7110 -18.3513 -17.9657 -17.5533 -17.1172 -16.9699 -16.9114
   -16.8279 -16.7109 -16.6649 -16.5535 -16.3897 -16.1775 -16.1766 -15.9342
   -15.7354 -15.6346 -15.4115 -15.2170 -15.1130 -14.8826 -14.8730 -13.7653
   -13.6652 -13.4906 -13.2599 -13.0895 -12.8002 -12.6351 -12.4640 -12.4199
   -12.3769 -12.3529 -12.2825 -12.1904 -12.1823 -12.1165 -12.0853 -12.0420
   -11.6982 -11.1778 -10.6621 -10.6195 -10.5735 -10.4219 -10.3856 -10.1790
   -10.1349  -9.9822  -9.8361  -9.6908  -9.5434  -9.3842  -9.2350  -9.1393
    -8.8629  -8.8134  -8.6570  -8.4936  -8.4708  -8.4015  -8.2959  -8.2416
    -8.2073  -8.1512  -8.1159  -7.9653  -7.8298  -7.7640  -7.7409  -7.6676
    -7.5330  -7.4799  -7.4184  -7.3731  -7.1828  -7.0832  -7.0323  -6.8503
    -6.6801  -6.5652  -6.4833  -6.3490  -6.1117  -6.0793  -6.0193  -5.7965
    -5.6502  -5.6478  -5.5466  -5.3421  -5.3347  -5.1981  -5.1619  -5.1533
    -5.0414  -4.9289  -4.8017  -4.7290  -4.6974  -4.5907  -4.5243  -4.4237
    -4.2860  -4.2520  -4.1100  -3.9070  -3.7751  -3.6701  -3.4123  -3.3313
    -3.1429  -2.9521  -2.8804  -2.6959  -2.6617  -2.5892   0.2024   0.2443
     0.3501   0.4846   0.6175   0.8694   0.9218   1.2100   1.3568   1.4637
     1.6678   1.8203   1.9074   1.9292   2.0010   2.0439   2.0644   2.1847
     2.3067   2.3379   2.4379   2.5027   2.5192   2.6952   2.8502   3.0992
     3.1283   3.3237   3.5821   3.6363   3.7348   3.7537   3.8909   3.9089
     3.9334   4.0436   4.1351   4.2020   4.3439   4.4600   4.4693   4.4754
     4.6545   4.7919   4.8678   4.9591   5.1282   5.1307   5.1903   5.2792
     5.2999   5.3288   5.3630   5.4385   5.4989   5.6719   5.7479   5.8015
     5.9612   6.0531   6.0910   6.1180   6.2605   6.3876   6.4316   6.4639
     6.5091   6.5451   6.6615   6.7512   6.7946   6.7972   6.9260   7.0282
     7.1117   7.1354   7.1717   7.1884   7.1895   7.2150   7.2437   7.2552
     7.2643   7.3030   7.3199   7.3513   7.3882   7.3918   7.4127   7.4407
     7.4419   7.4430   7.4563   7.5191   7.5765   7.6543   7.6680   7.6805
     7.6854   7.8064   7.8741   7.9685   8.0064   8.0438   8.0977   8.1104
     8.1518   8.1532   8.2525   8.2564   8.2571   8.2811   8.3368   8.3525
     8.4504   8.4633   8.5731   8.5933   8.6482   8.6847   8.6878   8.7057
     8.7241   8.7344   8.7434   8.8006   8.8224   8.8541   8.8960   8.9037
     8.9343   8.9958   9.0103   9.0176   9.0629   9.1317   9.2266   9.2280
     9.2617   9.3173   9.3578   9.3766   9.3790   9.3898   9.5329   9.5336
     9.5595   9.6294   9.6435   9.6496   9.6976   9.7636   9.7780   9.8143
     9.8192   9.8353   9.8486   9.8573   9.8634   9.9006   9.9156   9.9385
     9.9968  10.0030  10.0377  10.0765  10.0990  10.1519  10.1868  10.2087
    10.2369  10.2782  10.3226  10.3270  10.3309  10.3905  10.4559  10.4796
    10.5577  10.6318  10.6715  10.6787  10.7472  10.8683  10.8852  10.8963
    10.9133  10.9318  11.0365  11.0390  11.0755  11.1420  11.1895  11.2267
    11.2655  11.2794  11.2882  11.3396  11.4396  11.4611  11.5444  11.6304
    11.6804  11.7347  11.7445  11.8087  11.8850  11.9229  11.9338  11.9604
    11.9758  11.9992  12.0057  12.0132  12.0212  12.0416  12.0580  12.0773
    12.0792  12.1729  12.1919  12.1928  12.1989  12.2026  12.2229  12.2625
    12.2668  12.3045  12.3357  12.3381  12.3811  12.3812  12.4037  12.4274
    12.4889  12.4995  12.5135  12.5821  12.6094  12.6355  12.6461  12.6753
    12.7065  12.7196  12.7627  12.7710  12.7943  12.8527  12.8640  12.8767
    12.8972  12.9428  12.9670  13.0541  13.1245  13.1409  13.1481  13.1660
    13.2022  13.2185  13.2204  13.2382  13.2734  13.2742  13.3219  13.3369
    13.3644  13.3654  13.3780  13.4338  13.4543  13.5581  13.5782  13.5845
    13.7071  13.7588  13.7737  13.8059  13.8777  14.0087  14.0180  14.1469
    14.1702  14.2062  14.2221  14.2974  14.3405  14.3911  14.4630  14.5259
    14.5788  14.6090  14.6118  14.6481  14.6615  14.7288  14.7666  14.9375
    14.9417  14.9438  14.9469  14.9717  14.9984  15.0221  15.1111  15.1322
    15.1612  15.1792  15.2180  15.2366  15.3133  15.3190  15.3553  15.3826
    15.4211  15.4352  15.4648  15.4731  15.4950  15.5751  15.5895  15.6072
    15.6389  15.6651  15.6761  15.6922  15.7055  15.7396  15.7778  15.7881
    15.8230  15.9311  15.9484  15.9515  15.9621  15.9941  16.0117  16.0228
    16.0752  16.1600  16.1923  16.2058  16.2080  16.2567  16.3041  16.3146
    16.3522  16.3879  16.4336  16.4379  16.4811  16.4944  16.5104  16.5157
    16.5261  16.5715  16.5844  16.6209  16.6783  16.6983  16.7118  16.7246
    16.7436  16.8322  16.8383  16.9207  16.9290  17.0121  17.0325  17.0526
    17.0832  17.1062  17.1291  17.1378

          k = 0.0000 0.0000 0.0516 ( 60192 PWs)   bands (ev):

   -20.3766 -20.3158 -20.2256 -20.1028 -19.9441 -19.7520 -19.5281 -19.2721
   -18.9838 -18.6628 -18.3036 -17.9187 -17.5075 -17.1453 -17.0923 -17.0692
   -17.0015 -16.8823 -16.7442 -16.6072 -16.5572 -16.3422 -16.1703 -16.0718
   -15.8585 -15.6440 -15.5645 -15.2592 -15.2112 -14.9913 -14.9290 -13.8303
   -13.7227 -13.5419 -13.3320 -13.1075 -12.8796 -12.6262 -12.3988 -12.2168
   -12.1909 -12.1742 -12.1147 -12.0464 -11.9733 -11.9583 -11.8795 -11.8498
   -11.8099 -11.3094 -10.7731 -10.4640 -10.3992 -10.3154 -10.2332 -10.1878
    -9.9724  -9.9515  -9.6819  -9.6671  -9.4841  -9.3446  -9.1546  -9.0521
    -8.8899  -8.7246  -8.6189  -8.4115  -8.3674  -8.3423  -8.3364  -8.2368
    -8.1632  -8.0923  -8.0115  -7.9067  -7.7837  -7.7825  -7.6827  -7.6575
    -7.4986  -7.4221  -7.3639  -7.3220  -7.1880  -7.1257  -6.9857  -6.7941
    -6.6825  -6.6565  -6.4284  -6.3519  -6.2155  -6.0651  -6.0262  -5.8612
    -5.7644  -5.6231  -5.5995  -5.4833  -5.4313  -5.3171  -5.2769  -5.1599
    -5.1511  -5.0337  -4.8949  -4.7869  -4.7632  -4.6992  -4.6854  -4.5965
    -4.4588  -4.2899  -4.2126  -4.0799  -3.8443  -3.7567  -3.5853  -3.3471
    -3.2995  -3.0610  -2.9708  -2.8354  -2.7517  -2.7113   0.2869   0.2980
     0.4762   0.4860   0.7791   0.8246   1.0990   1.2836   1.4050   1.6688
     1.8194   1.8846   2.0479   2.1633   2.2409   2.2515   2.2878   2.3106
     2.3733   2.4048   2.4058   2.5054   2.5871   2.7629   2.9182   3.0237
     3.1669   3.3917   3.6487   3.6530   3.7038   3.8241   3.9367   3.9770
     4.0006   4.1102   4.2015   4.2694   4.3508   4.4115   4.5363   4.5433
     4.7222   4.8569   4.9336   5.0182   5.0250   5.1951   5.2573   5.3462
     5.3523   5.3951   5.4231   5.5056   5.5652   5.6844   5.7370   5.8583
     6.0099   6.0828   6.1514   6.1826   6.2509   6.3797   6.3918   6.4487
     6.4945   6.5511   6.6569   6.8137   6.8212   6.8599   6.8712   6.9515
     6.9821   6.9944   7.0371   7.0679   7.1094   7.1284   7.1402   7.1852
     7.2109   7.2355   7.2830   7.3189   7.3316   7.3715   7.3879   7.4053
     7.4215   7.4297   7.4860   7.4876   7.4952   7.5673   7.5690   7.5756
     7.6400   7.7388   7.7740   7.8438   7.8449   7.9126   8.0012   8.0495
     8.1148   8.1156   8.1890   8.1894   8.2374   8.2694   8.4044   8.4168
     8.4353   8.4426   8.4434   8.4618   8.5021   8.5087   8.5115   8.5235
     8.6196   8.6441   8.7246   8.7362   8.7378   8.7442   8.7672   8.7948
     8.8430   8.8623   8.9570   8.9657   8.9915   9.0598   9.0762   9.0820
     9.0848   9.1362   9.1684   9.2211   9.3270   9.3736   9.3791   9.4110
     9.4393   9.4883   9.5657   9.5969   9.6228   9.6903   9.7511   9.7694
     9.8215   9.8294   9.8295   9.8458   9.8470   9.8524   9.8769   9.8863
     9.9000   9.9204   9.9490   9.9783   9.9991  10.0433  10.0945  10.1396
    10.2010  10.2282  10.2345  10.2799  10.2815  10.3834  10.4183  10.4590
    10.4651  10.5079  10.5789  10.6144  10.6940  10.7573  10.7802  10.9235
    10.9263  10.9463  10.9644  10.9714  10.9958  11.0874  11.1517  11.1603
    11.1806  11.2335  11.2376  11.2506  11.3561  11.4449  11.4849  11.5822
    11.6075  11.7341  11.7503  11.8066  11.8395  11.8600  11.8834  11.9495
    11.9657  11.9863  11.9948  12.0109  12.0419  12.0481  12.1096  12.1364
    12.1661  12.1713  12.1741  12.2106  12.2252  12.2503  12.2604  12.2856
    12.2905  12.3171  12.3330  12.3381  12.3812  12.4030  12.4041  12.4220
    12.4584  12.4628  12.4697  12.5452  12.5827  12.6281  12.6535  12.6885
    12.7391  12.7445  12.7779  12.7786  12.7990  12.8559  12.9306  12.9480
    12.9630  12.9952  13.0379  13.0681  13.1113  13.1143  13.1921  13.2316
    13.2383  13.3003  13.3187  13.3396  13.3514  13.3577  13.3894  13.3994
    13.4278  13.4941  13.4981  13.5243  13.5332  13.5522  13.5544  13.6377
    13.6471  13.6513  13.7571  13.8324  13.9343  13.9744  14.0520  14.0583
    14.1091  14.1426  14.2094  14.2324  14.3712  14.3817  14.4200  14.4403
    14.6282  14.6376  14.6767  14.6890  14.7263  14.7917  14.8667  14.9128
    14.9368  14.9518  14.9994  15.0442  15.0623  15.0675  15.0868  15.1348
    15.1612  15.1934  15.2637  15.2761  15.3216  15.4403  15.4472  15.4699
    15.5184  15.5317  15.5326  15.5910  15.6118  15.6233  15.6302  15.6828
    15.6913  15.7022  15.7455  15.7682  15.7972  15.8408  15.8855  15.8986
    15.9017  15.9083  15.9628  15.9840  16.0436  16.0769  16.0795  16.0912
    16.0939  16.0988  16.1204  16.1490  16.1910  16.2085  16.2189  16.2519
    16.4126  16.4167  16.4347  16.4730  16.5106  16.5613  16.5730  16.5730
    16.5977  16.6148  16.6185  16.6254  16.6976  16.6992  16.7228  16.7465
    16.8100  16.8398  16.8592  16.9430  17.0115  17.0118  17.0693  17.1170
    17.1335  17.1516  17.1536  17.1646

          k = 0.0000 0.0000 0.0563 ( 60154 PWs)   bands (ev):

   -20.3223 -20.2615 -20.1714 -20.0487 -19.8901 -19.6981 -19.4744 -19.2187
   -18.9307 -18.6102 -18.2515 -17.8675 -17.4584 -17.3173 -17.2592 -17.1718
   -17.0724 -17.0074 -16.9083 -16.7223 -16.5862 -16.4879 -16.2874 -16.0783
   -16.0135 -15.7177 -15.6205 -15.4017 -15.2162 -15.1040 -14.9897 -13.8761
   -13.8120 -13.5435 -13.4466 -13.0767 -13.0023 -12.5736 -12.5156 -12.1138
   -12.0069 -11.9661 -11.9255 -11.8700 -11.8030 -11.7708 -11.7276 -11.6640
   -11.6595 -11.4339 -10.8986 -10.3705 -10.2544 -10.2328 -10.1706 -10.0088
    -9.8997  -9.7780  -9.7359  -9.4902  -9.4578  -9.1889  -9.1799  -8.9711
    -8.8521  -8.6336  -8.5736  -8.3962  -8.3467  -8.2775  -8.2459  -8.1722
    -8.1266  -8.0280  -7.9082  -7.8767  -7.8427  -7.7352  -7.6190  -7.5782
    -7.4498  -7.3590  -7.3545  -7.3053  -7.2177  -7.0634  -6.9528  -6.8010
    -6.7328  -6.6447  -6.3684  -6.3658  -6.3399  -6.1089  -5.9681  -5.9647
    -5.8649  -5.7195  -5.6320  -5.5461  -5.5443  -5.4903  -5.4010  -5.2822
    -5.1421  -5.1001  -4.9927  -4.9372  -4.8812  -4.8712  -4.7705  -4.6542
    -4.6215  -4.4616  -4.2541  -4.1809  -4.0171  -3.7760  -3.7183  -3.4946
    -3.3247  -3.2241  -3.0098  -2.9860  -2.8350  -2.8341   0.3340   0.3937
     0.4737   0.6211   0.7803   0.9397   1.2121   1.2777   1.5985   1.7277
     1.8788   2.1049   2.2793   2.3020   2.3246   2.4050   2.4462   2.4802
     2.4877   2.5392   2.5647   2.5792   2.6616   2.8370   2.9143   2.9927
     3.2411   3.4663   3.5457   3.7215   3.7778   3.8969   4.0079   4.0516
     4.0736   4.1842   4.2301   4.2849   4.3430   4.4849   4.6099   4.6178
     4.7960   4.8817   4.9472   5.0051   5.0966   5.2684   5.3307   5.3814
     5.4196   5.4670   5.4856   5.5789   5.6242   5.6365   5.8058   5.9075
     6.0494   6.1388   6.1399   6.2332   6.2412   6.2913   6.3392   6.4816
     6.5257   6.5620   6.6537   6.7277   6.7541   6.8142   6.8319   6.8400
     6.9018   6.9330   6.9510   6.9733   6.9861   7.0286   7.0832   7.1234
     7.1332   7.1676   7.2111   7.2824   7.2847   7.3378   7.3594   7.3824
     7.3865   7.3888   7.4052   7.4892   7.4970   7.5285   7.5489   7.6048
     7.6116   7.6296   7.6832   7.6834   7.8040   7.8483   7.8559   7.9200
     7.9279   8.0910   8.1112   8.1416   8.1500   8.2163   8.2426   8.2636
     8.2793   8.3176   8.3631   8.3828   8.4464   8.4619   8.4636   8.5269
     8.5426   8.5971   8.6009   8.6211   8.6510   8.6681   8.7827   8.7944
     8.7981   8.8063   8.8297   8.8577   8.8830   8.9134   8.9743   8.9994
     9.0297   9.0556   9.0650   9.1366   9.2010   9.2441   9.2778   9.2951
     9.3143   9.3385   9.4424   9.5024   9.5120   9.5276   9.6100   9.6323
     9.6672   9.7342   9.7345   9.7565   9.7676   9.7738   9.8814   9.9091
     9.9205   9.9397   9.9504   9.9795   9.9898   9.9964  10.0468  10.1256
    10.1350  10.1518  10.2222  10.2237  10.2480  10.2700  10.2939  10.3758
    10.4643  10.5150  10.5718  10.6027  10.6147  10.6483  10.6766  10.7520
    10.8623  10.8655  10.9594  10.9971  11.0124  11.0312  11.1359  11.1531
    11.1896  11.1943  11.2047  11.2266  11.2327  11.3875  11.4200  11.4734
    11.5589  11.6610  11.6751  11.7037  11.8184  11.8814  11.8919  11.9406
    11.9778  11.9955  12.0276  12.0365  12.0386  12.1177  12.1254  12.1398
    12.1667  12.1743  12.1810  12.2114  12.2442  12.2501  12.3154  12.3167
    12.3254  12.3259  12.3349  12.3460  12.3736  12.3765  12.4095  12.4300
    12.4303  12.4316  12.5055  12.5265  12.5808  12.6055  12.6223  12.6361
    12.7364  12.8138  12.8203  12.8283  12.8806  12.8874  12.8966  12.9684
    12.9844  13.0211  13.0286  13.0329  13.0332  13.1033  13.1465  13.2574
    13.3001  13.3021  13.3132  13.3822  13.3969  13.4196  13.4285  13.4560
    13.4585  13.5047  13.5485  13.5929  13.6019  13.6106  13.7037  13.7307
    13.7422  13.8101  13.8601  13.8677  13.9240  13.9421  13.9808  13.9908
    14.0397  14.1266  14.1888  14.2710  14.2843  14.3117  14.4225  14.5013
    14.6065  14.6323  14.7246  14.7873  14.8087  14.8127  14.8500  14.8584
    14.9331  14.9575  14.9712  15.0317  15.0348  15.0763  15.1525  15.2778
    15.2954  15.3295  15.3365  15.3413  15.3533  15.4198  15.4658  15.4959
    15.5157  15.5787  15.6527  15.6552  15.6860  15.6903  15.7200  15.7262
    15.7315  15.7318  15.7702  15.7866  15.8116  15.8329  15.8658  15.8667
    15.8683  15.9711  15.9824  15.9972  16.0018  16.0220  16.0838  16.0873
    16.0930  16.1174  16.1724  16.1886  16.2435  16.2865  16.3187  16.3419
    16.3739  16.4480  16.4482  16.4777  16.5649  16.5797  16.6068  16.6148
    16.6325  16.6510  16.6884  16.6928  16.7766  16.7917  16.8237  16.8291
    16.8412  16.8543  16.8827  16.9804  16.9920  17.0114  17.0719  17.0750
    17.1043  17.1501  17.1675  17.2004

          k = 0.0000 0.0000 0.0610 ( 60180 PWs)   bands (ev):

   -20.2633 -20.2025 -20.1125 -19.9899 -19.8315 -19.6397 -19.4162 -19.1608
   -18.8731 -18.5530 -18.1951 -17.8124 -17.4863 -17.4270 -17.4106 -17.3338
   -17.2266 -17.0719 -16.9801 -16.8742 -16.6900 -16.4998 -16.4420 -16.1676
   -16.0470 -15.8626 -15.6228 -15.5125 -15.2839 -15.1627 -15.0650 -13.9043
   -13.9040 -13.5641 -13.5256 -13.1269 -13.0367 -12.6394 -12.5179 -12.1215
   -12.0324 -11.7130 -11.6762 -11.6502 -11.6275 -11.5955 -11.5574 -11.4859
   -11.4466 -11.4444 -11.0231 -10.4711 -10.0946 -10.0886 -10.0018  -9.8420
    -9.8388  -9.7835  -9.5749  -9.3975  -9.3203  -9.2588  -9.0255  -8.9204
    -8.7191  -8.6860  -8.4731  -8.3680  -8.2763  -8.2073  -8.1420  -8.1205
    -8.1021  -7.9581  -7.9303  -7.8113  -7.7731  -7.6914  -7.5499  -7.5032
    -7.4509  -7.3965  -7.2906  -7.2496  -7.1787  -6.9957  -6.9676  -6.8856
    -6.6663  -6.6472  -6.4711  -6.3929  -6.3034  -6.1632  -6.1018  -5.9545
    -5.9053  -5.8516  -5.7714  -5.7052  -5.6436  -5.5331  -5.4847  -5.4085
    -5.2537  -5.1118  -5.0944  -5.0463  -5.0456  -4.9795  -4.9436  -4.8102
    -4.6355  -4.5931  -4.4267  -4.2036  -4.1303  -3.9383  -3.7065  -3.6630
    -3.3871  -3.3298  -3.1356  -3.0522  -2.9585  -2.9198   0.3859   0.4589
     0.5089   0.7255   0.7690   1.0947   1.1450   1.4555   1.6372   1.7929
     2.0879   2.1960   2.3304   2.4040   2.5144   2.5253   2.5611   2.6494
     2.6595   2.7386   2.7425   2.7965   2.8026   2.8252   2.9176   3.0737
     3.3217   3.4292   3.5473   3.8004   3.8581   3.9550   4.0891   4.1295
     4.1327   4.1641   4.2644   4.3598   4.4227   4.5621   4.6898   4.6988
     4.7704   4.8760   5.0172   5.0803   5.1732   5.3443   5.3480   5.4104
     5.4992   5.5437   5.5463   5.6240   5.6586   5.7089   5.8670   5.9106
     6.0268   6.0839   6.1397   6.2099   6.3118   6.3172   6.3427   6.3796
     6.4696   6.5468   6.5894   6.6342   6.6872   6.6978   6.7420   6.7471
     6.8199   6.8686   6.9292   6.9314   6.9607   6.9813   7.0362   7.0465
     7.1185   7.1259   7.1453   7.1562   7.1880   7.2370   7.2979   7.3427
     7.3748   7.4172   7.4226   7.4374   7.4657   7.4824   7.5032   7.5760
     7.6027   7.6032   7.6660   7.6696   7.6951   7.7335   7.7370   7.8962
     7.9051   7.9454   7.9481   7.9586   8.0028   8.0137   8.0603   8.1637
     8.1652   8.2387   8.2413   8.2993   8.3001   8.3636   8.3864   8.4121
     8.4776   8.5189   8.5577   8.5967   8.6086   8.6187   8.6866   8.7012
     8.7503   8.7793   8.8023   8.8542   8.8742   8.8882   8.9089   8.9228
     8.9378   9.0177   9.0389   9.1041   9.1276   9.1414   9.1473   9.1535
     9.2058   9.2239   9.2485   9.2950   9.3550   9.4699   9.5064   9.5368
     9.5431   9.5696   9.5732   9.6130   9.6373   9.6964   9.7701   9.9249
     9.9461   9.9734   9.9741  10.0090  10.0203  10.0472  10.0544  10.0647
    10.0924  10.1190  10.1209  10.1523  10.1853  10.2039  10.2546  10.3647
    10.4115  10.4389  10.4878  10.5345  10.5455  10.6049  10.6397  10.7317
    10.7444  10.8613  10.8683  10.9810  11.0289  11.0851  11.0912  11.0921
    11.1118  11.1952  11.2174  11.2239  11.2791  11.2814  11.2828  11.4314
    11.4681  11.5150  11.5711  11.7465  11.7720  11.8947  11.9300  11.9581
    11.9806  11.9876  12.0247  12.0396  12.0488  12.0980  12.1194  12.1476
    12.1568  12.1718  12.1971  12.2203  12.2416  12.2739  12.2774  12.2790
    12.2849  12.3367  12.3539  12.3825  12.3886  12.4053  12.4216  12.4623
    12.4639  12.4810  12.4975  12.5031  12.5657  12.6089  12.6692  12.6945
    12.7087  12.7686  12.8113  12.8231  12.8511  12.8870  12.8919  12.9144
    12.9583  13.0171  13.0583  13.0695  13.0778  13.1105  13.1278  13.2056
    13.2104  13.2861  13.2956  13.4016  13.4146  13.4505  13.4767  13.4995
    13.5260  13.5528  13.5570  13.6157  13.6506  13.7061  13.7744  13.7846
    13.7899  13.8052  13.9065  13.9105  13.9476  14.0378  14.0521  14.0639
    14.0904  14.1910  14.2078  14.2448  14.2963  14.3271  14.4494  14.5317
    14.5667  14.5853  14.7111  14.7133  14.7985  14.8241  14.8261  14.8662
    14.8664  14.9381  14.9739  14.9752  15.1295  15.1594  15.2779  15.2949
    15.3215  15.3951  15.3982  15.4099  15.4401  15.4658  15.4933  15.5266
    15.5407  15.5643  15.5822  15.5828  15.6379  15.6501  15.6509  15.6735
    15.7513  15.7791  15.8022  15.8135  15.8369  15.8680  15.8819  15.9100
    15.9189  15.9410  15.9480  15.9930  16.0615  16.0872  16.0874  16.0948
    16.1267  16.1477  16.1738  16.1890  16.2124  16.2705  16.4269  16.4521
    16.4579  16.5269  16.5333  16.5387  16.5771  16.6250  16.6398  16.6747
    16.6844  16.7092  16.7119  16.7411  16.8062  16.8228  16.8635  16.8786
    16.9521  16.9676  16.9739  16.9868  17.0139  17.0481  17.0503  17.1078
    17.1261  17.1661  17.2301  17.2504

          k = 0.0000 0.0000 0.0657 ( 60166 PWs)   bands (ev):

   -20.1996 -20.1389 -20.0489 -19.9265 -19.7682 -19.5766 -19.3534 -19.0983
   -18.8110 -18.4915 -18.1346 -17.7546 -17.6510 -17.5905 -17.5086 -17.3878
   -17.3490 -17.2269 -17.0633 -16.8990 -16.8432 -16.5952 -16.4640 -16.3099
   -16.0688 -15.9454 -15.7270 -15.5188 -15.4039 -15.1795 -15.1527 -13.9853
   -13.9217 -13.6705 -13.5070 -13.2389 -13.0061 -12.7480 -12.4778 -12.2244
   -11.9668 -11.6934 -11.5367 -11.4574 -11.4200 -11.3717 -11.3160 -11.2844
   -11.2550 -11.2423 -11.1279 -10.5910 -10.0440  -9.9109  -9.8788  -9.7730
    -9.7278  -9.6091  -9.3935  -9.3677  -9.3201  -9.1311  -8.8686  -8.8601
    -8.7769  -8.5760  -8.3969  -8.2709  -8.2069  -8.2004  -8.1315  -8.0265
    -8.0252  -7.9073  -7.8828  -7.7220  -7.6982  -7.6852  -7.5177  -7.4754
    -7.4360  -7.3434  -7.2168  -7.1911  -7.1386  -7.0732  -6.9228  -6.8908
    -6.6748  -6.5965  -6.5946  -6.4348  -6.2550  -6.2334  -6.2308  -6.0500
    -6.0219  -5.9023  -5.8970  -5.8378  -5.7802  -5.6717  -5.5380  -5.4211
    -5.3678  -5.2856  -5.2191  -5.1993  -5.1210  -5.0811  -4.9850  -4.9831
    -4.8075  -4.6104  -4.5314  -4.3691  -4.1077  -4.0975  -3.8294  -3.6876
[...]
     3.6671   3.7602   3.9288   3.9508   4.0268   4.0921   4.3102   4.3230
     4.3414   4.4464   4.5446   4.5693   4.5835   4.6275   4.6550   4.7259
     4.8148   4.8807   4.8942   4.9028   5.0350   5.0617   5.0996   5.1402
     5.1544   5.1559   5.2084   5.2173   5.2760   5.3015   5.3245   5.3746
     5.4436   5.5379   5.5613   5.6157   5.6922   5.7120   5.7389   5.8297
     5.8969   5.9167   6.0363   6.1238   6.1243   6.1258   6.1619   6.1879
     6.2106   6.2566   6.3412   6.3526   6.3801   6.4100   6.4121   6.4153
     6.4264   6.4955   6.5001   6.5086   6.5693   6.5877   6.5903   6.6193
     6.6371   6.6422   6.6438   6.6931   6.6954   6.6994   6.7685   6.8019
     6.8639   6.8803   6.9190   6.9255   6.9556   6.9729   6.9776   7.0014
     7.0500   7.1000   7.1192   7.1615   7.1719   7.1983   7.2600   7.3117
     7.3208   7.3412   7.3858   7.4160   7.4295   7.4584   7.4680   7.5048
     7.5222   7.5345   7.5575   7.5744   7.6103   7.6737   7.6895   7.7658
     7.7789   7.8266   7.8852   7.9414   7.9852   7.9986   8.0064   8.0718
     8.1049   8.1086   8.1177   8.1963   8.2165   8.2662   8.3045   8.3504
     8.4075   8.4590   8.4876   8.5029   8.5417   8.5782   8.6934   8.6976
     8.7532   8.7977   8.8047   8.8808   8.9193   8.9514   8.9813   9.0485
     9.1019   9.1328   9.2358   9.3542   9.3547   9.4776   9.5038   9.5639
     9.6027   9.6046   9.6653   9.6873   9.7282   9.8059   9.8270   9.9062
     9.9575  10.0627  10.1336  10.1685  10.1929  10.2381  10.2847  10.3159
    10.4536  10.4991  10.5352  10.5757  10.6157  10.6893  10.7003  10.7435
    10.8495  10.8756  10.9489  10.9538  10.9758  10.9854  10.9869  11.0395
    11.0480  11.0493  11.0517  11.0917  11.1049  11.1189  11.1488  11.1715
    11.1807  11.2354  11.2608  11.3282  11.4617  11.6094  11.6467  11.6771
    11.6984  11.7453  11.7787  11.8394  11.8680  11.8874  11.9186  11.9476
    11.9530  11.9702  12.0122  12.0213  12.0245  12.0261  12.0532  12.1014
    12.1365  12.1721  12.1819  12.1968  12.2165  12.2251  12.2436  12.3322
    12.4028  12.4123  12.4365  12.5479  12.5964  12.6115  12.7852  12.8430
    12.8559  12.8899  12.9283  12.9370  12.9778  13.0017  13.0065  13.0161
    13.0323  13.0369  13.0486  13.0895  13.1053  13.1076  13.1239  13.1578
    13.1714  13.2363  13.2485  13.3065  13.3792  13.3792  13.4249  13.4376
    13.4942  13.5798  13.6817  13.6992  13.7669  13.7842  13.7900  13.8206
    13.8558  13.8676  13.9553  14.0490  14.0687  14.0756  14.0883  14.1847
    14.2964  14.3258  14.3566  14.3687  14.3837  14.4578  14.4775  14.5101
    14.5249  14.5689  14.6127  14.7586  14.7656  14.7680  14.8347  14.8557
    14.9018  14.9117  14.9627  14.9934  15.0219  15.0838  15.1188  15.1231
    15.1314  15.1777  15.1859  15.2247  15.2640  15.3328  15.3361  15.3968
    15.4122  15.4564  15.4579  15.4741  15.5816  15.6245  15.6672  15.6750
    15.7058  15.7534  15.7833  15.8041  15.8059  15.8743  15.8792  15.8976
    15.9479  16.0547  16.0682  16.0891  16.1161  16.1174  16.1754  16.2003
    16.2952  16.3300  16.3844  16.4445  16.4911  16.6048  16.6574  16.6626
    16.6646  16.7198  16.7220  16.7411  16.8177  16.8868  16.8896  16.9226
    17.0073  17.0309  17.0396  17.0735  17.1092  17.2032  17.2078  17.2884
    17.3020  17.3476  17.3611  17.3644  17.3751  17.3762  17.4062  17.4305
    17.4497  17.5052  17.5297  17.5822

          k = 0.0000 0.0000 0.1080 ( 60210 PWs)   bands (ev):

   -19.4180 -19.3580 -19.2692 -19.1487 -18.9934 -18.9523 -18.8932 -18.8061
   -18.8053 -18.6852 -18.5957 -18.5204 -18.3713 -18.3030 -18.1388 -18.0308
   -17.8825 -17.7194 -17.5971 -17.3696 -17.2823 -16.9952 -16.9330 -16.5979
   -16.5626 -16.1871 -16.1766 -15.7963 -15.7876 -15.4938 -15.4830 -14.2595
   -14.2331 -13.8924 -13.8314 -13.4124 -13.3293 -12.8784 -12.7812 -12.3132
   -12.2070 -11.7290 -11.6153 -11.1273 -11.0299 -10.5304 -10.4580  -9.9472
    -9.9272  -9.4905  -9.4081  -9.2058  -9.1319  -9.0980  -9.0848  -9.0822
    -8.8752  -8.5030  -8.2638  -8.1881  -8.1776  -8.1376  -8.0993  -8.0916
    -8.0611  -8.0456  -8.0320  -7.9659  -7.8744  -7.8684  -7.7829  -7.7003
    -7.6235  -7.5839  -7.5529  -7.5125  -7.4777  -7.4638  -7.4554  -7.4506
    -7.4377  -7.4371  -7.3532  -7.2887  -7.2774  -7.2098  -7.1214  -7.1102
    -7.1069  -7.1054  -7.0221  -6.9664  -6.8147  -6.7866  -6.7364  -6.7142
    -6.6697  -6.5717  -6.5706  -6.5681  -6.4614  -6.4293  -6.3891  -6.3243
    -6.2474  -6.1824  -6.0600  -6.0456  -6.0146  -5.8004  -5.7142  -5.5204
    -5.3769  -5.2149  -5.0136  -4.8881  -4.6428  -4.5452  -4.2778  -4.2080
    -3.9423  -3.8976  -3.6723  -3.6486  -3.5107  -3.5036   0.6174   0.6244
     0.8116   0.8304   1.1569   1.1804   1.6111   1.6287   2.1338   2.1350
     2.6696   2.6989   3.1949   3.2859   3.5258   3.6389   3.6967   3.7235
     3.8099   3.8593   3.9047   4.0694   4.1516   4.1552   4.2430   4.2724
     4.3679   4.4102   4.4507   4.4929   4.5499   4.5581   4.7141   4.7172
     4.8782   4.8843   4.9222   4.9419   5.0242   5.1263   5.1341   5.2322
     5.2917   5.2999   5.3124   5.3620   5.3773   5.4026   5.4294   5.4989
     5.5069   5.5246   5.5685   5.5825   5.6636   5.7209   5.7433   5.8377
     5.8694   5.9477   5.9481   5.9962   6.0248   6.0510   6.0913   6.1737
     6.1771   6.2215   6.2226   6.2665   6.3214   6.3935   6.3955   6.4048
     6.4425   6.4739   6.4766   6.4844   6.4962   6.5175   6.5479   6.6208
     6.6253   6.6314   6.6499   6.6678   6.7102   6.7176   6.7415   6.7548
     6.8033   6.8097   6.8545   6.8748   6.8815   6.8952   6.9342   6.9772
     7.0533   7.0599   7.1475   7.1480   7.2125   7.2274   7.2522   7.2738
     7.3174   7.3301   7.3302   7.3587   7.3737   7.4059   7.4472   7.4473
     7.4581   7.4766   7.5098   7.5315   7.5582   7.6750   7.7044   7.7318
     7.7840   7.8200   7.8482   7.9192   7.9205   7.9383   7.9515   8.0565
     8.0698   8.1109   8.1255   8.1976   8.2121   8.2472   8.2849   8.3369
     8.3681   8.4527   8.4840   8.4954   8.5403   8.6156   8.6226   8.7238
     8.7321   8.7922   8.8197   8.8352   8.9423   8.9428   8.9527   8.9911
     9.0563   9.1268   9.1774   9.1834   9.3368   9.3577   9.4919   9.5656
     9.5751   9.5890   9.6477   9.6507   9.7505   9.7693   9.7831   9.9879
    10.0259  10.0933  10.0977  10.2270  10.3143  10.3232  10.3353  10.3804
    10.4059  10.4062  10.4298  10.5037  10.5489  10.6852  10.6880  10.7675
    10.8206  10.8376  10.8646  10.8883  10.9727  11.0194  11.0545  11.0732
    11.1125  11.1333  11.1465  11.1589  11.1660  11.1998  11.2023  11.2115
    11.2933  11.3619  11.3790  11.4800  11.5239  11.5796  11.5995  11.6598
    11.6886  11.6886  11.7168  11.7244  11.7635  11.7934  11.8105  11.8264
    11.8398  11.8649  11.8849  11.8958  11.9078  11.9899  12.0777  12.0878
    12.1821  12.2132  12.2337  12.2568  12.2616  12.2959  12.2976  12.3340
    12.3942  12.3961  12.4402  12.4423  12.6148  12.6372  12.7725  12.7903
    12.8134  12.8742  12.8882  12.9102  12.9279  12.9419  12.9526  12.9709
    13.0087  13.0311  13.0637  13.0754  13.0888  13.1336  13.1576  13.1709
    13.2411  13.2861  13.3089  13.3533  13.3951  13.4857  13.5017  13.5242
    13.5344  13.5743  13.6213  13.6879  13.6975  13.7041  13.7488  13.7730
    13.7949  13.8951  13.9156  13.9813  13.9932  14.0071  14.1336  14.1602
    14.2165  14.2715  14.2798  14.3345  14.3826  14.5120  14.5428  14.5895
    14.5945  14.6033  14.6367  14.6493  14.7528  14.7936  14.7965  14.9163
    14.9401  14.9456  14.9501  15.0120  15.0300  15.1057  15.1237  15.1657
    15.1766  15.1888  15.2128  15.2150  15.2554  15.2913  15.3318  15.3796
    15.4113  15.4991  15.5309  15.5595  15.5661  15.5862  15.6674  15.6735
    15.7082  15.7289  15.7501  15.8200  15.8813  15.8869  15.9235  15.9649
    15.9809  16.0493  16.0797  16.1270  16.1482  16.2104  16.2176  16.2678
    16.2891  16.2930  16.3483  16.4174  16.5294  16.5550  16.5774  16.5980
    16.6274  16.6781  16.6809  16.7837  16.7991  16.8576  16.8641  16.9199
    17.0380  17.0647  17.0665  17.1020  17.1352  17.1570  17.1573  17.2140
    17.2424  17.2512  17.2612  17.3877  17.4108  17.4283  17.4479  17.4709
    17.4957  17.4978  17.5144  17.5963

          k = 0.0000 0.0000 0.1127 ( 60212 PWs)   bands (ev):

   -19.3083 -19.2484 -19.1600 -19.0755 -19.0403 -19.0154 -18.9290 -18.8838
   -18.8095 -18.6972 -18.6560 -18.4765 -18.4658 -18.2438 -18.2252 -17.9902
   -17.9424 -17.7052 -17.6281 -17.3895 -17.2781 -17.0383 -16.9055 -16.6647
   -16.5115 -16.2735 -16.1066 -15.8822 -15.7219 -15.5468 -15.4620 -14.2897
   -14.2078 -13.9522 -13.7788 -13.4845 -13.2676 -12.9542 -12.7163 -12.3898
   -12.1401 -11.8061 -11.5465 -11.2044 -10.9582 -10.6078 -10.3792 -10.0263
    -9.8316  -9.4833  -9.3600  -9.0355  -9.0189  -8.8840  -8.8445  -8.8274
    -8.8234  -8.6597  -8.4539  -8.3549  -8.3145  -8.3055  -7.9938  -7.9894
    -7.9433  -7.9242  -7.8826  -7.8182  -7.7568  -7.7509  -7.6874  -7.6337
    -7.6257  -7.6180  -7.5952  -7.5888  -7.5881  -7.5781  -7.5601  -7.5571
    -7.5475  -7.5463  -7.4056  -7.4041  -7.1565  -7.1540  -7.1492  -7.1203
    -7.0818  -7.0659  -6.9793  -6.8786  -6.8394  -6.8115  -6.7978  -6.7430
    -6.7101  -6.6598  -6.5710  -6.5042  -6.4953  -6.4449  -6.3936  -6.3480
    -6.2832  -6.1950  -6.1786  -6.1488  -5.9305  -5.9136  -5.6512  -5.6027
    -5.3439  -5.2662  -5.0133  -4.9069  -4.6642  -4.5436  -4.3170  -4.1908
    -3.9904  -3.8744  -3.7164  -3.6331  -3.5373  -3.5070   0.6051   0.6533
     0.7603   0.8996   1.0713   1.2804   1.5013   1.7508   2.0079   2.2728
     2.5585   2.8230   3.1339   3.3619   3.6610   3.6967   3.7703   3.8746
     3.8776   3.9560   4.0013   4.0619   4.1174   4.1975   4.2346   4.2370
     4.2867   4.3506   4.3794   4.3920   4.5482   4.6380   4.7136   4.7357
     4.7679   4.8664   4.9569   5.0716   5.0984   5.1738   5.1797   5.1895
     5.3470   5.3932   5.4180   5.4441   5.4556   5.4762   5.4927   5.5186
     5.5953   5.6070   5.6162   5.6553   5.6741   5.7311   5.7774   5.7855
     5.8228   5.8828   5.9828   5.9862   6.0215   6.0281   6.0411   6.0427
     6.0427   6.1846   6.2125   6.2242   6.3008   6.3234   6.3443   6.3803
     6.3818   6.3819   6.4104   6.4615   6.4640   6.4808   6.4860   6.4920
     6.6132   6.6368   6.6422   6.6478   6.6892   6.7180   6.7410   6.8213
     6.8450   6.8533   6.8576   6.8695   6.8866   6.8976   6.9588   6.9857
     7.0487   7.0959   7.1403   7.1692   7.1695   7.1723   7.1820   7.1999
     7.2022   7.2382   7.2596   7.3032   7.3661   7.3973   7.4063   7.4483
     7.4770   7.4837   7.5378   7.6005   7.6173   7.6482   7.6720   7.7533
     7.7623   7.7927   7.7992   7.8770   7.9002   7.9157   7.9299   7.9738
     8.0094   8.0541   8.1657   8.1824   8.2395   8.2679   8.2720   8.3572
     8.3577   8.3993   8.5054   8.5685   8.5779   8.5807   8.6513   8.6626
     8.6828   8.7989   8.8083   8.8311   8.8738   8.9219   8.9894   8.9979
     9.0630   9.0910   9.1802   9.1993   9.2706   9.2934   9.4055   9.4874
     9.4879   9.4973   9.5630   9.7768   9.7949   9.8581   9.8968   9.9101
    10.1118  10.1193  10.1284  10.2257  10.2264  10.2669  10.3973  10.3997
    10.4319  10.4345  10.4569  10.5421  10.5432  10.5642  10.6924  10.7224
    10.7266  10.8050  10.8081  10.8639  10.8972  10.9538  11.0369  11.1495
    11.1924  11.2503  11.2568  11.2594  11.2952  11.3189  11.3223  11.3493
    11.4017  11.4406  11.4578  11.5009  11.5074  11.5402  11.5693  11.5807
    11.5905  11.6070  11.6528  11.6571  11.6849  11.6986  11.7198  11.7593
    11.7668  11.8250  11.8923  11.9025  11.9358  11.9457  12.0277  12.0869
    12.1066  12.1462  12.2121  12.2385  12.3069  12.3860  12.3941  12.4072
    12.4461  12.4857  12.5018  12.5145  12.6170  12.6273  12.6465  12.6869
    12.7118  12.7154  12.7628  12.7940  12.8067  12.8273  12.8366  12.8761
    13.0395  13.1121  13.1418  13.1611  13.2192  13.2295  13.2301  13.3047
    13.3134  13.3494  13.3655  13.3677  13.4542  13.4573  13.5234  13.5256
    13.5432  13.5507  13.6039  13.6638  13.6805  13.6814  13.7043  13.7435
    13.7558  13.8123  13.8328  13.9110  13.9735  14.0110  14.0936  14.1489
    14.1826  14.2218  14.3227  14.3634  14.4464  14.4768  14.5101  14.5670
    14.5798  14.6426  14.6656  14.7406  14.7826  14.7907  14.8573  14.8925
    14.9492  14.9691  15.0003  15.0023  15.0239  15.0254  15.0871  15.1320
    15.2028  15.2161  15.2224  15.2524  15.2926  15.3109  15.3183  15.3648
    15.4147  15.4825  15.5505  15.5509  15.5777  15.6526  15.6557  15.6971
    15.7085  15.7145  15.7482  15.8530  15.8941  15.9193  15.9902  16.0024
    16.0056  16.0142  16.0754  16.1179  16.1209  16.1601  16.2570  16.3263
    16.3351  16.4025  16.4077  16.4166  16.4683  16.4880  16.5164  16.5700
    16.5926  16.6100  16.7465  16.7942  16.8207  16.8629  16.8748  16.9079
    16.9186  17.0206  17.0517  17.1009  17.1040  17.1314  17.1657  17.1783
    17.2472  17.2546  17.2654  17.3425  17.4097  17.4334  17.4797  17.5083
    17.5191  17.5678  17.5932  17.6101

          k = 0.0000 0.0000-0.1174 ( 60208 PWs)   bands (ev):

   -19.1944 -19.1938 -19.1359 -19.1329 -19.0501 -19.0422 -18.9341 -18.9186
   -18.7849 -18.7584 -18.6103 -18.5562 -18.3971 -18.3277 -18.1509 -18.0691
   -17.8720 -17.7802 -17.5607 -17.4615 -17.2141 -17.1066 -16.8456 -16.7284
   -16.4561 -16.3322 -16.0571 -15.9335 -15.6845 -15.5799 -15.4545 -14.3004
   -14.1944 -13.9771 -13.7531 -13.5166 -13.2380 -12.9884 -12.6857 -12.4244
   -12.1088 -11.8409 -11.5145 -11.2393 -10.9251 -10.6430 -10.3422 -10.0640
    -9.7843  -9.5278  -9.2856  -9.0807  -8.8989  -8.7950  -8.6902  -8.6485
    -8.6017  -8.5884  -8.5705  -8.5667  -8.5644  -8.5635  -7.8273  -7.8162
    -7.8027  -7.7973  -7.7854  -7.7747  -7.7652  -7.7348  -7.7232  -7.6958
    -7.6894  -7.6809  -7.6484  -7.6449  -7.6330  -7.6155  -7.5972  -7.5855
    -7.5809  -7.5770  -7.4844  -7.3711  -7.1795  -7.1694  -7.1678  -7.0236
    -7.0165  -7.0161  -6.9498  -6.9483  -6.8489  -6.8473  -6.8448  -6.7116
    -6.7030  -6.6934  -6.5581  -6.5366  -6.5210  -6.4307  -6.3529  -6.3320
    -6.2957  -6.2622  -6.2390  -6.0883  -6.0419  -5.8118  -5.7576  -5.5056
    -5.4456  -5.1738  -5.1101  -4.8208  -4.7542  -4.4662  -4.3975  -4.1258
    -4.0573  -3.8271  -3.7637  -3.6097  -3.5587  -3.5056   0.6009   0.6736
     0.7324   0.9533   1.0122   1.3623   1.4163   1.8539   1.9032   2.3923
     2.4385   2.9563   3.0010   3.5084   3.5515   3.7499   3.8527   3.9102
     4.0190   4.0328   4.0344   4.0385   4.0785   4.1126   4.1394   4.2156
     4.2161   4.3800   4.3931   4.5274   4.5443   4.5546   4.5621   4.7932
     4.7946   4.9611   4.9907   5.0142   5.0353   5.1566   5.2937   5.3266
     5.3287   5.3293   5.3311   5.4969   5.5284   5.5419   5.5760   5.5841
     5.6036   5.6215   5.6294   5.6480   5.6530   5.7309   5.7620   5.7856
     5.8465   5.8581   5.9150   5.9939   6.0121   6.0301   6.0755   6.1354
     6.1364   6.1454   6.1791   6.1809   6.1811   6.2207   6.2220   6.2992
     6.3605   6.3798   6.3823   6.4551   6.4744   6.4866   6.4972   6.5539
     6.5676   6.5848   6.6141   6.6356   6.6814   6.7539   6.7540   6.8073
     6.8239   6.8482   6.8660   6.9430   6.9589   7.0105   7.0112   7.0131
     7.0407   7.0513   7.0703   7.1062   7.1194   7.1331   7.1479   7.1580
     7.1938   7.2010   7.2313   7.3456   7.3496   7.3554   7.3894   7.4623
     7.4829   7.5413   7.5553   7.6121   7.6148   7.6590   7.7172   7.7436
     7.7489   7.7525   7.7963   7.8504   7.8730   7.8739   7.8848   8.0275
     8.0393   8.0496   8.1367   8.1591   8.1616   8.1987   8.3636   8.4043
     8.4279   8.4370   8.4932   8.5204   8.5225   8.5514   8.6565   8.7024
     8.7079   8.8057   8.8213   8.8366   8.8389   8.8468   8.9612   9.0123
     9.0707   9.1076   9.2245   9.2283   9.2681   9.3280   9.3427   9.3503
     9.4119   9.4545   9.6674   9.7334   9.7797   9.9152   9.9904   9.9988
    10.0401  10.0774  10.1420  10.1582  10.2471  10.2664  10.3782  10.4090
    10.4203  10.4246  10.5499  10.5970  10.5986  10.6000  10.6205  10.6385
    10.7266  10.7482  10.7512  10.8069  10.8288  11.0591  11.1296  11.1346
    11.1372  11.2534  11.3599  11.3685  11.3889  11.3964  11.3972  11.4371
    11.4387  11.4444  11.4493  11.4762  11.4928  11.5043  11.5067  11.5422
    11.5437  11.5447  11.6043  11.6121  11.6305  11.6818  11.6849  11.7206
    11.7794  11.8546  11.8666  11.8999  11.9163  11.9439  12.0423  12.0792
    12.0986  12.1550  12.2480  12.2664  12.2839  12.3776  12.3847  12.4929
    12.5102  12.5504  12.5562  12.5606  12.5805  12.5823  12.5928  12.6299
    12.6489  12.6649  12.6712  12.7274  12.7674  12.7833  12.7915  12.8386
    13.0469  13.1345  13.2268  13.2570  13.2754  13.2773  13.3022  13.3078
    13.3142  13.3533  13.3702  13.3705  13.4290  13.4398  13.4786  13.5140
    13.5627  13.5969  13.6055  13.6290  13.6362  13.6693  13.7206  13.7258
    13.8003  13.8172  13.8384  13.8390  13.8752  13.9989  14.0832  14.0958
    14.2750  14.2894  14.3135  14.3194  14.4102  14.4459  14.5641  14.5746
    14.5774  14.5988  14.7341  14.7557  14.7847  14.8171  14.8735  14.9214
    14.9418  14.9516  14.9756  14.9829  15.0118  15.0270  15.0591  15.1356
    15.2305  15.2391  15.2480  15.2793  15.2892  15.3027  15.3150  15.3352
    15.4034  15.4653  15.5064  15.5666  15.5755  15.6794  15.6798  15.7001
    15.7535  15.7855  15.8232  15.8273  15.8465  15.8694  15.8956  15.9162
    16.0986  16.1027  16.1330  16.1431  16.1891  16.1914  16.1972  16.2029
    16.3331  16.3381  16.4058  16.4373  16.4517  16.5346  16.5751  16.6052
    16.6403  16.6461  16.6654  16.7591  16.7745  16.8481  16.8890  16.9109
    16.9466  16.9906  17.0013  17.0494  17.0820  17.1424  17.1586  17.1850
    17.2394  17.2437  17.3222  17.3653  17.4415  17.4645  17.4728  17.5097
    17.5100  17.5633  17.5840  17.6129

     the Fermi energy is    -1.2460 ev

     Writing output data file A31.save/

     init_run     :      8.77s CPU      9.00s WALL (       1 calls)
     electrons    :   5912.46s CPU   5976.62s WALL (       1 calls)

     Called by init_run:
     wfcinit      :      0.00s CPU      0.00s WALL (       1 calls)
     potinit      :      0.60s CPU      0.66s WALL (       1 calls)
     hinit0       :      6.94s CPU      6.97s WALL (       1 calls)

     Called by electrons:
     c_bands      :   5912.44s CPU   5976.51s WALL (       1 calls)
     v_of_rho     :      0.46s CPU      0.49s WALL (       1 calls)
     newd         :      0.29s CPU      0.41s WALL (       1 calls)

     Called by c_bands:
     init_us_2    :      0.27s CPU      0.34s WALL (      26 calls)
     cegterg      :   5812.74s CPU   5857.99s WALL (     129 calls)

     Called by sum_band:

     Called by *egterg:
     h_psi        :   1225.31s CPU   1240.70s WALL (    2494 calls)
     s_psi        :    136.06s CPU    136.30s WALL (    2494 calls)
     g_psi        :      6.73s CPU      6.75s WALL (    2339 calls)
     cdiaghg      :   3223.31s CPU   3228.83s WALL (    2365 calls)

     Called by h_psi:
     h_psi:pot    :   1220.48s CPU   1231.39s WALL (    2494 calls)
     h_psi:calbec :    132.99s CPU    133.95s WALL (    2494 calls)
     vloc_psi     :    952.03s CPU    961.73s WALL (    2494 calls)
     add_vuspsi   :    135.44s CPU    135.70s WALL (    2494 calls)

     General routines
     calbec       :    132.98s CPU    133.94s WALL (    2494 calls)
     fft          :      0.44s CPU      0.47s WALL (      14 calls)
     ffts         :      0.00s CPU      0.01s WALL (       1 calls)
     fftw         :    847.64s CPU    856.43s WALL (  580142 calls)
     interpolate  :      0.04s CPU      0.05s WALL (       1 calls)
     davcio       :      0.01s CPU     16.61s WALL (      52 calls)

     Parallel routines
     fft_scatt_xy :    129.41s CPU    130.35s WALL (  580157 calls)
     fft_scatt_yz :    323.34s CPU    328.24s WALL (  580157 calls)

     PWSCF        :     1h38m CPU       38h 1m WALL

      49h

   This run was terminated on:  20:39:26   8Apr2022            

=------------------------------------------------------------------------------=
   JOB DONE.
=------------------------------------------------------------------------------=
