
     Program PWSCF v.6.3 starts on  8Apr2022 at 19: 0:35 

     This program is part of the open-source Quantum ESPRESSO suite
     for quantum simulation of materials; please cite
         "P. Giannozzi et al., J. Phys.:Condens. Matter 21 395502 (2009);
         "P. Giannozzi et al., J. Phys.:Condens. Matter 29 465901 (2017);
          URL http://www.quantum-espresso.org", 
     in publications or presentations arising from this work. More details at
     http://www.quantum-espresso.org/quote

     Parallel version (MPI), running on    16 processors
     R & G space division:  proc/nbgrp/npool/nimage =      16
     Waiting for input...
     Reading input from standard input
     Message from routine read_cards :
     DEPRECATED: no units specified in CELL_PARAMETERS card

     Current dimensions of program PWSCF are:
     Max number of different atomic species (ntypx) = 10
     Max number of k-points (npk) =  40000
     Max angular momentum in pseudopotentials (lmaxx) =  3

     Atomic positions and unit cell read from directory:
     /home/zfwang/scratch/GNRDATASET/AGNR/A32/A32.save/


     Subspace diagonalization in iterative solution of the eigenvalue problem:
     a serial algorithm will be used


     Parallelization info
     --------------------
     sticks:   dense  smooth     PW     G-vecs:    dense   smooth      PW
     Min        4279    1425    402               160227    30837    4617
     Max        4280    1427    404               160228    30838    4618
     Sum       68479   22823   6447              2563647   493395   73883



     bravais-lattice index     =            0
     lattice parameter (alat)  =       1.8897  a.u.
     unit-cell volume          =   14437.1979 (a.u.)^3
     number of atoms/cell      =           68
     number of atomic types    =            2
     number of electrons       =       260.00
     number of Kohn-Sham states=          500
     kinetic-energy cutoff     =      40.0000  Ry
     charge density cutoff     =     480.0000  Ry
     Exchange-correlation      = PBE ( 1  4  3  4 0 0)

     celldm(1)=  18.897261  celldm(2)=   5.022000  celldm(3)=   0.426000
     celldm(4)=   0.000000  celldm(5)=   0.000000  celldm(6)=   0.000000

     crystal axes: (cart. coord. in units of alat)
               a(1) = (  10.000000   0.000000   0.000000 )  
               a(2) = (   0.000000  50.220000   0.000000 )  
               a(3) = (   0.000000   0.000000   4.260000 )  

     reciprocal axes: (cart. coord. in units 2 pi/alat)
               b(1) = (  0.100000  0.000000  0.000000 )  
               b(2) = (  0.000000  0.019912  0.000000 )  
               b(3) = (  0.000000  0.000000  0.234742 )  


     PseudoPot. # 1 for C  read from file:
     /home/zfwang/hp_home/MySoftware/qe-6.3/pseudo/C.pbe-n-rrkjus_psl.0.1.UPF
     MD5 check sum: fff530ed632a789b3b184014e67dd7f1
     Pseudo is Ultrasoft + core correction, Zval =  4.0
     Generated using "atomic" code by A. Dal Corso v.5.0.2 svn rev. 9415
     Using radial grid of 1073 points,  4 beta functions with: 
                l(1) =   0
                l(2) =   0
                l(3) =   1
                l(4) =   1
     Q(r) pseudized with 0 coefficients 


     PseudoPot. # 2 for H  read from file:
     /home/zfwang/hp_home/MySoftware/qe-6.3/pseudo/H.pbe-rrkjus_psl.0.1.UPF
     MD5 check sum: e164a6907b691c6980f16942be34de84
     Pseudo is Ultrasoft, Zval =  1.0
     Generated using "atomic" code by A. Dal Corso v.5.0.2 svn rev. 9415
     Using radial grid of  929 points,  2 beta functions with: 
                l(1) =   0
                l(2) =   0
     Q(r) pseudized with 0 coefficients 


     atomic species   valence    mass     pseudopotential
        C              4.00    12.01070     C ( 1.00)
        H              1.00     1.00794     H ( 1.00)

     No symmetry found



   Cartesian axes

     site n.     atom                  positions (alat units)
         1           C   tau(   1) = (   4.9999983   6.0609253   2.8130429  )
         2           C   tau(   2) = (   4.9999984   7.2674838   3.5446553  )
         3           C   tau(   3) = (   4.9999982   6.0609234   1.4469569  )
         4           C   tau(   4) = (   4.9999993   8.4966170   2.8410581  )
         5           C   tau(   5) = (   4.9999999   9.7328778   3.5525751  )
         6           C   tau(   6) = (   4.9999982   7.2674862   0.7153442  )
         7           C   tau(   7) = (   4.9999992   8.4966152   1.4189413  )
         8           C   tau(   8) = (   4.9999998  10.9624894   2.8414929  )
         9           C   tau(   9) = (   4.9999996  12.1913328   3.5494268  )
        10           C   tau(  10) = (   4.9999999   9.7328791   0.7074242  )
        11           C   tau(  11) = (   5.0000003  10.9624888   1.4185072  )
        12           C   tau(  12) = (   4.9999992  13.4240946   2.8391726  )
        13           C   tau(  13) = (   4.9999993  14.6554002   3.5493816  )
        14           C   tau(  14) = (   4.9999999  12.1913331   0.7105737  )
        15           C   tau(  15) = (   4.9999993  13.4240950   1.4208284  )
        16           C   tau(  16) = (   4.9999996  15.8851789   2.8403138  )
        17           C   tau(  17) = (   5.0000001  17.1161924   3.5506045  )
        18           C   tau(  18) = (   4.9999993  14.6553993   0.7106199  )
        19           C   tau(  19) = (   4.9999993  15.8851796   1.4196875  )
        20           C   tau(  20) = (   5.0000009  18.3465312   2.8400893  )
        21           C   tau(  21) = (   5.0000021  19.5757682   3.5498193  )
        22           C   tau(  22) = (   5.0000000  17.1161913   0.7093970  )
        23           C   tau(  23) = (   5.0000010  18.3465317   1.4199121  )
        24           C   tau(  24) = (   5.0000029  20.8057521   2.8395929  )
        25           C   tau(  25) = (   5.0000030  22.0358669   3.5501026  )
        26           C   tau(  26) = (   5.0000021  19.5757681   0.7101819  )
        27           C   tau(  27) = (   5.0000031  20.8057519   1.4204082  )
        28           C   tau(  28) = (   5.0000022  23.2652864   2.8401696  )
        29           C   tau(  29) = (   5.0000020  24.4949375   3.5502505  )
        30           C   tau(  30) = (   5.0000030  22.0358676   0.7098984  )
        31           C   tau(  31) = (   5.0000024  23.2652861   1.4198313  )
        32           C   tau(  32) = (   5.0000017  25.7250477   2.8397494  )
        33           C   tau(  33) = (   5.0000020  26.9547001   3.5498318  )
        34           C   tau(  34) = (   5.0000017  24.4949378   0.7097502  )
        35           C   tau(  35) = (   5.0000018  25.7250476   1.4202511  )
        36           C   tau(  36) = (   5.0000024  28.1841199   2.8398972  )
        37           C   tau(  37) = (   5.0000016  29.4142375   3.5504073  )
        38           C   tau(  38) = (   5.0000021  26.9547001   0.7101684  )
        39           C   tau(  39) = (   5.0000023  28.1841201   1.4201030  )
        40           C   tau(  40) = (   5.0000003  30.6442255   2.8401817  )
        41           C   tau(  41) = (   4.9999999  31.8734659   3.5499116  )
        42           C   tau(  42) = (   5.0000016  29.4142370   0.7095933  )
        43           C   tau(  43) = (   5.0000004  30.6442252   1.4198190  )
        44           C   tau(  44) = (   4.9999993  33.1038105   2.8393955  )
        45           C   tau(  45) = (   4.9999983  34.3348298   3.5496874  )
        46           C   tau(  46) = (   4.9999997  31.8734663   0.7100894  )
        47           C   tau(  47) = (   4.9999991  33.1038094   1.4206055  )
        48           C   tau(  48) = (   4.9999977  35.5646178   2.8406197  )
        49           C   tau(  49) = (   4.9999971  36.7959274   3.5508302  )
        50           C   tau(  50) = (   4.9999986  34.3348315   0.7103138  )
        51           C   tau(  51) = (   4.9999977  35.5646173   1.4193812  )
        52           C   tau(  52) = (   4.9999972  38.0286898   2.8405693  )
        53           C   tau(  53) = (   4.9999987  39.2575355   3.5485114  )
        54           C   tau(  54) = (   4.9999973  36.7959261   0.7091710  )
        55           C   tau(  55) = (   4.9999974  38.0286924   1.4194316  )
        56           C   tau(  56) = (   5.0000008  40.4871351   2.8374184  )
        57           C   tau(  57) = (   5.0000013  41.7233856   3.5489547  )
        58           C   tau(  58) = (   4.9999987  39.2575338   0.7114885  )
        59           C   tau(  59) = (   5.0000007  40.4871336   1.4225810  )
        60           C   tau(  60) = (   5.0000007  42.9525179   2.8453351  )
        61           C   tau(  61) = (   4.9999990  44.1590497   3.5770061  )
        62           C   tau(  62) = (   5.0000015  41.7233913   0.7110442  )
        63           C   tau(  63) = (   5.0000005  42.9525103   1.4146627  )
        64           C   tau(  64) = (   4.9999991  44.1590562   0.6829907  )
        65           H   tau(  65) = (   4.9999984   5.1053567   3.3301113  )
        66           H   tau(  66) = (   4.9999995   5.1053569   0.9298885  )
        67           H   tau(  67) = (   4.9999971  45.1146397   3.0598809  )
        68           H   tau(  68) = (   4.9999967  45.1146388   1.2001153  )

     number of k points=    26  Marzari-Vanderbilt smearing, width (Ry)=  0.0100
                       cart. coord. in units 2pi/alat
        k(    1) = (   0.0000000   0.0000000   0.0000000), wk =   0.0400000
        k(    2) = (   0.0000000   0.0000000   0.0046948), wk =   0.0800000
        k(    3) = (   0.0000000   0.0000000   0.0093897), wk =   0.0800000
        k(    4) = (   0.0000000   0.0000000   0.0140845), wk =   0.0800000
        k(    5) = (   0.0000000   0.0000000   0.0187793), wk =   0.0800000
        k(    6) = (   0.0000000   0.0000000   0.0234742), wk =   0.0800000
        k(    7) = (   0.0000000   0.0000000   0.0281690), wk =   0.0800000
        k(    8) = (   0.0000000   0.0000000   0.0328638), wk =   0.0800000
        k(    9) = (   0.0000000   0.0000000   0.0375587), wk =   0.0800000
        k(   10) = (   0.0000000   0.0000000   0.0422535), wk =   0.0800000
        k(   11) = (   0.0000000   0.0000000   0.0469484), wk =   0.0800000
        k(   12) = (   0.0000000   0.0000000   0.0516432), wk =   0.0800000
        k(   13) = (   0.0000000   0.0000000   0.0563380), wk =   0.0800000
        k(   14) = (   0.0000000   0.0000000   0.0610329), wk =   0.0800000
        k(   15) = (   0.0000000   0.0000000   0.0657277), wk =   0.0800000
        k(   16) = (   0.0000000   0.0000000   0.0704225), wk =   0.0800000
        k(   17) = (   0.0000000   0.0000000   0.0751174), wk =   0.0800000
        k(   18) = (   0.0000000   0.0000000   0.0798122), wk =   0.0800000
        k(   19) = (   0.0000000   0.0000000   0.0845070), wk =   0.0800000
        k(   20) = (   0.0000000   0.0000000   0.0892019), wk =   0.0800000
        k(   21) = (   0.0000000   0.0000000   0.0938967), wk =   0.0800000
        k(   22) = (   0.0000000   0.0000000   0.0985915), wk =   0.0800000
        k(   23) = (   0.0000000   0.0000000   0.1032864), wk =   0.0800000
        k(   24) = (   0.0000000   0.0000000   0.1079812), wk =   0.0800000
        k(   25) = (   0.0000000   0.0000000   0.1126761), wk =   0.0800000
        k(   26) = (   0.0000000   0.0000000  -0.1173709), wk =   0.0400000

     Dense  grid:  2563647 G-vectors     FFT dimensions: ( 135, 675,  60)

     Smooth grid:   493395 G-vectors     FFT dimensions: (  80, 384,  36)

     Estimated max dynamical RAM per process >     651.41 MB

     Estimated total dynamical RAM >      10.18 GB

     The potential is recalculated from file :
     /home/zfwang/scratch/GNRDATASET/AGNR/A32/A32.save/charge-density.dat


     negative rho (up, down):  8.732E-05 0.000E+00
     Starting wfcs are  260 randomized atomic wfcs +  240 random wfcs

     Band Structure Calculation
     Davidson diagonalization with overlap
     c_bands:  1 eigenvalues not converged
     c_bands:  1 eigenvalues not converged
     c_bands:  1 eigenvalues not converged
     c_bands:  1 eigenvalues not converged
     c_bands:  1 eigenvalues not converged
     c_bands:  1 eigenvalues not converged
     c_bands:  1 eigenvalues not converged
     c_bands:  1 eigenvalues not converged
     c_bands:  1 eigenvalues not converged
     c_bands:  1 eigenvalues not converged
     c_bands:  1 eigenvalues not converged
     c_bands:  1 eigenvalues not converged
     c_bands:  2 eigenvalues not converged
     c_bands:  2 eigenvalues not converged
     c_bands:  2 eigenvalues not converged

     ethr =  3.85E-09,  avg # of iterations =101.6

     total cpu time spent up to now is     6882.0 secs

     End of band structure calculation

          k = 0.0000 0.0000 0.0000 ( 61549 PWs)   bands (ev):

   -20.6481 -20.5905 -20.5050 -20.3891 -20.2394 -20.0575 -19.8456 -19.6035
   -19.3306 -19.0269 -18.6879 -18.3206 -17.9274 -17.5086 -17.0660 -16.6024
   -16.1213 -15.6280 -15.3789 -15.3274 -15.2530 -15.1530 -15.1304 -15.0231
   -14.8653 -14.6816 -14.6425 -14.4719 -14.3732 -14.3240 -14.2505 -14.2352
   -14.1991 -14.1433 -14.0378 -13.9709 -13.8960 -13.8201 -13.7352 -13.6702
   -13.6311 -13.5564 -13.5304 -13.3437 -12.9940 -12.6197 -12.2214 -11.7999
   -11.6655 -11.6309 -11.4884 -11.3618 -11.3565 -11.2051 -11.0045 -10.8927
   -10.8126 -10.6160 -10.4099 -10.3369 -10.2025  -9.9099  -9.8290  -9.7677
    -9.3944  -9.3228  -9.3159  -8.8621  -8.8522  -8.8406  -8.7395  -8.6737
    -8.5735  -8.4365  -8.4035  -8.3842  -8.3158  -8.2604  -8.0471  -8.0366
    -7.9234  -7.7987  -7.7738  -7.7581  -7.6208  -7.5157  -7.4308  -7.2340
    -7.1981  -6.9717  -6.8467  -6.7019  -6.5216  -6.4589  -6.1863  -6.0891
    -6.0415  -5.6986  -5.6816  -5.5977  -5.3072  -5.2527  -5.1294  -4.9744
    -4.8652  -4.6900  -4.6402  -4.5547  -4.4601  -4.3344  -4.2935  -4.2047
    -4.1973  -4.1345  -3.6179  -3.4427  -3.3756  -3.2724  -3.1306  -3.0969
    -2.9482  -2.7272  -2.5793  -2.4693  -2.1741  -2.0741  -1.8416  -1.5909
    -1.4713  -1.1371  -1.0516  -0.7247  -0.6002  -0.3806  -0.1200  -0.0973
     0.1257   0.2928   0.3910   0.4118   0.4923   0.5437   0.5730   0.5851
     0.9320   1.5014   1.8833   2.0049   2.0292   2.0969   2.1264   2.2009
     2.3697   2.5144   2.7160   2.7527   2.9640   3.2653   3.2827   3.3553
     3.3999   3.4907   3.5260   3.6263   3.7185   3.8163   3.8283   4.0071
     4.0111   4.0949   4.1371   4.2710   4.4387   4.5187   4.5755   4.6789
     4.8243   4.8826   4.9005   4.9340   4.9611   4.9993   5.1138   5.1146
     5.3165   5.3549   5.4669   5.5137   5.6084   5.6590   5.7024   5.8860
     6.0123   6.0317   6.0705   6.2677   6.3322   6.3613   6.4284   6.4953
     6.6681   6.6932   6.7088   6.8043   6.8326   6.9546   6.9562   7.1445
     7.1970   7.2642   7.3054   7.3189   7.3363   7.3698   7.4422   7.4877
     7.4902   7.5197   7.6131   7.6415   7.6652   7.7555   7.7898   7.8299
     7.8373   7.9518   7.9937   8.0388   8.0792   8.0867   8.0977   8.2748
     8.3585   8.3873   8.4562   8.5265   8.5290   8.5745   8.6509   8.6681
     8.7407   8.8313   8.8993   9.0556   9.0795   9.1098   9.1467   9.1751
     9.1947   9.2446   9.2753   9.3125   9.5040   9.5152   9.5482   9.5647
     9.5704   9.6149   9.6201   9.6393   9.6485   9.6490   9.6802   9.6973
     9.7118   9.7485   9.7828   9.8666   9.8909   9.9408   9.9423   9.9429
     9.9657   9.9904  10.0064  10.0968  10.0986  10.0999  10.1048  10.1481
    10.1527  10.1724  10.2386  10.2460  10.2464  10.2494  10.2638  10.3141
    10.3205  10.3213  10.3331  10.3528  10.3645  10.4110  10.4581  10.4907
    10.5296  10.5621  10.5954  10.6367  10.6604  10.6632  10.7241  10.7367
    10.7510  10.8524  10.9382  10.9480  10.9641  10.9910  11.0129  11.0140
    11.0528  11.0823  11.1136  11.1229  11.1452  11.1515  11.1627  11.2017
    11.2664  11.2821  11.2942  11.3359  11.3750  11.4101  11.4105  11.4149
    11.4343  11.4623  11.4751  11.4990  11.5060  11.5457  11.5820  11.6114
    11.6203  11.6260  11.6421  11.6445  11.6578  11.6677  11.6989  11.7230
    11.7558  11.7753  11.7782  11.7956  11.8147  11.8516  11.8567  11.8623
    11.8672  11.8737  11.9193  11.9226  11.9653  11.9804  12.0267  12.0342
    12.0486  12.0666  12.1005  12.1160  12.1226  12.1296  12.1497  12.2012
    12.2200  12.2526  12.2916  12.3238  12.3433  12.3456  12.3498  12.4532
    12.4722  12.4987  12.4998  12.5030  12.5330  12.5408  12.6061  12.6232
    12.6240  12.7200  12.7657  12.7744  12.7863  12.7968  12.8002  12.8556
    12.8739  12.8934  12.9381  12.9439  13.0324  13.0664  13.0693  13.0938
    13.1020  13.1135  13.1582  13.2971  13.3365  13.3398  13.4197  13.4545
    13.4794  13.5005  13.5171  13.5520  13.5600  13.6251  13.6648  13.6765
    13.6916  13.6987  13.7451  13.7512  13.8161  13.8203  13.8819  14.0082
    14.0758  14.1129  14.1162  14.1636  14.1790  14.1932  14.2273  14.2451
    14.2783  14.2801  14.2950  14.3156  14.3777  14.3832  14.4161  14.4865
    14.4942  14.4963  14.5467  14.5596  14.6267  14.6409  14.7302  14.7957
    14.8415  14.8482  14.8512  15.0657  15.0935  15.1142  15.1500  15.1612
    15.1786  15.1925  15.2032  15.2532  15.2853  15.3180  15.3544  15.3813
    15.4689  15.4856  15.5305  15.5370  15.5980  15.6154  15.7083  15.7323
    15.7365  15.8376  15.9046  15.9130  15.9167  15.9430  15.9993  16.0511
    16.0700  16.0891  16.0968  16.1299  16.1447  16.1672  16.1886  16.2217
    16.2643  16.3213  16.3321  16.3602  16.3851  16.3958  16.4401  16.4798
    16.4821  16.4856  16.4930  16.5770

          k = 0.0000 0.0000 0.0047 ( 61547 PWs)   bands (ev):

   -20.6458 -20.5881 -20.5027 -20.3867 -20.2370 -20.0552 -19.8433 -19.6011
   -19.3283 -19.0246 -18.6856 -18.3183 -17.9251 -17.5063 -17.0639 -16.6003
   -16.1194 -15.6263 -15.4236 -15.3719 -15.2972 -15.1972 -15.1289 -15.0667
   -14.9082 -14.7261 -14.6413 -14.5161 -14.3250 -14.2817 -14.2765 -14.2031
   -14.1975 -14.1028 -14.0273 -13.9925 -13.8709 -13.8508 -13.7085 -13.6110
   -13.5845 -13.5069 -13.4849 -13.3533 -13.0119 -12.6400 -12.2424 -11.8212
   -11.6487 -11.6159 -11.4709 -11.3792 -11.3459 -11.1891 -10.9866 -10.9144
   -10.8005 -10.5962 -10.4312 -10.3275 -10.1830  -9.9299  -9.8211  -9.7493
    -9.4134  -9.3153  -9.2990  -8.8822  -8.8370  -8.8315  -8.7367  -8.6709
    -8.5706  -8.4336  -8.4021  -8.3706  -8.3278  -8.2575  -8.0443  -8.0337
    -7.9121  -7.7960  -7.7869  -7.7543  -7.6180  -7.5129  -7.4199  -7.2467
    -7.1954  -6.9620  -6.8440  -6.7142  -6.5135  -6.4563  -6.1984  -6.0825
    -6.0390  -5.7130  -5.6741  -5.5953  -5.3094  -5.2588  -5.1272  -4.9769
    -4.8722  -4.6941  -4.6382  -4.5611  -4.4660  -4.3400  -4.3010  -4.2095
    -4.2059  -4.1330  -3.6170  -3.4585  -3.3915  -3.2886  -3.1472  -3.0970
    -2.9654  -2.7454  -2.5813  -2.4888  -2.1962  -2.0803  -1.8687  -1.6095
    -1.5138  -1.2609  -0.9289  -0.6825  -0.5834  -0.3531  -0.1161  -0.0742
     0.1470   0.3132   0.3902   0.4317   0.5120   0.5632   0.5926   0.6046
     0.9289   1.4968   1.8865   2.0081   2.0324   2.0914   2.1296   2.2041
     2.3730   2.5176   2.7098   2.7559   2.9672   3.2686   3.2860   3.3482
     3.4037   3.4950   3.5292   3.6295   3.7218   3.8195   3.8316   4.0044
     4.0104   4.0982   4.1403   4.2743   4.4419   4.5220   4.5787   4.6718
     4.8275   4.8858   4.9037   4.9372   4.9643   5.0024   5.1171   5.1177
     5.3197   5.3471   5.4699   5.5173   5.6116   5.6609   5.7056   5.8891
     6.0155   6.0259   6.0737   6.2717   6.3363   6.3643   6.4297   6.4982
     6.6709   6.6862   6.7105   6.8071   6.8355   6.9571   6.9602   7.1482
     7.1998   7.2716   7.2991   7.3290   7.3297   7.3665   7.4419   7.4801
     7.4966   7.5221   7.6149   7.6304   7.6691   7.7548   7.7864   7.8269
     7.8409   7.9446   7.9854   8.0230   8.0833   8.0978   8.0998   8.2450
     8.3622   8.3880   8.4645   8.5212   8.5287   8.5405   8.6525   8.6686
     8.7445   8.8390   8.8588   9.0474   9.0841   9.1122   9.1475   9.1795
     9.2023   9.2028   9.2766   9.3095   9.5054   9.5077   9.5532   9.5661
     9.5678   9.5758   9.6194   9.6438   9.6553   9.6558   9.6837   9.6879
     9.6985   9.7113   9.7511   9.7730   9.8121   9.8355   9.8697   9.8824
     9.9326   9.9407   9.9421   9.9799   9.9913  10.0918  10.1070  10.1515
    10.1641  10.1966  10.2255  10.2515  10.2573  10.3177  10.3212  10.3270
    10.3446  10.3474  10.3595  10.3785  10.3884  10.4252  10.4682  10.5369
    10.5634  10.5804  10.6091  10.6308  10.6385  10.6569  10.7414  10.7608
    10.7680  10.8267  10.8835  10.8956  10.9479  10.9547  11.0064  11.0357
    11.0541  11.0544  11.1000  11.1047  11.1085  11.1253  11.1349  11.1550
    11.2363  11.2621  11.2845  11.3440  11.3732  11.3744  11.3886  11.4042
    11.4368  11.4919  11.5235  11.5459  11.5679  11.5681  11.5825  11.6164
    11.6246  11.6382  11.6735  11.6789  11.6982  11.7069  11.7128  11.7536
    11.7706  11.7766  11.7974  11.8055  11.8237  11.8564  11.8625  11.8831
    11.8874  11.8934  11.9018  11.9088  12.0051  12.0164  12.0365  12.0488
    12.0663  12.0696  12.0977  12.1272  12.1394  12.1468  12.1595  12.1763
    12.2287  12.2546  12.2633  12.3388  12.3425  12.3568  12.3591  12.4226
    12.4254  12.4555  12.4588  12.4876  12.5278  12.5316  12.5755  12.5763
    12.5788  12.6292  12.6682  12.7293  12.7304  12.7609  12.7790  12.7943
    12.8593  12.9469  13.0092  13.0151  13.0416  13.0592  13.0753  13.1158
    13.1226  13.2046  13.2305  13.2938  13.3656  13.3988  13.4115  13.4409
    13.4667  13.5115  13.5496  13.5556  13.5856  13.5973  13.6244  13.6897
    13.6923  13.7115  13.7620  13.7749  13.7914  13.9036  13.9314  13.9788
    14.0595  14.1316  14.1461  14.1789  14.1900  14.1919  14.2223  14.2393
    14.2656  14.3320  14.3324  14.3378  14.3631  14.3738  14.4735  14.4780
    14.4912  14.5272  14.5835  14.5921  14.6169  14.6633  14.7241  14.8373
    14.8586  14.8752  14.9067  15.0303  15.0652  15.0918  15.1167  15.1232
    15.1948  15.1957  15.2029  15.2101  15.2790  15.2995  15.3410  15.3829
    15.4291  15.5202  15.5315  15.5318  15.6252  15.6784  15.7343  15.7391
    15.7485  15.8102  15.8709  15.9125  15.9154  15.9510  15.9637  15.9870
    16.0030  16.0423  16.1283  16.1367  16.1396  16.1669  16.2289  16.2398
    16.2717  16.2847  16.3182  16.3230  16.3595  16.4313  16.4805  16.4844
    16.5152  16.5208  16.5534  16.5541

          k = 0.0000 0.0000 0.0094 ( 61513 PWs)   bands (ev):

   -20.6387 -20.5810 -20.4956 -20.3796 -20.2299 -20.0481 -19.8362 -19.5941
   -19.3213 -19.0177 -18.6787 -18.3115 -17.9183 -17.4997 -17.0573 -16.5941
   -16.1135 -15.6216 -15.5383 -15.4863 -15.4109 -15.3102 -15.1787 -15.1270
   -15.0180 -14.8372 -14.6420 -14.6276 -14.3954 -14.2200 -14.1998 -14.1496
   -14.1455 -14.0799 -13.9883 -13.9838 -13.8667 -13.7329 -13.5995 -13.5226
   -13.4707 -13.4003 -13.3776 -13.3749 -13.0626 -12.6975 -12.3017 -11.8810
   -11.6000 -11.5736 -11.4377 -11.4195 -11.3068 -11.1417 -10.9743 -10.9354
   -10.7674 -10.5406 -10.4867 -10.3049 -10.1274  -9.9829  -9.8024  -9.6967
    -9.4635  -9.2983  -9.2506  -8.9296  -8.8158  -8.7932  -8.7282  -8.6624
    -8.5621  -8.4252  -8.4081  -8.3523  -8.3317  -8.2491  -8.0359  -8.0256
    -7.8805  -7.8241  -7.7876  -7.7425  -7.6100  -7.5047  -7.3887  -7.2831
    -7.1873  -6.9347  -6.8361  -6.7493  -6.4914  -6.4485  -6.2322  -6.0655
    -6.0315  -5.7457  -5.6622  -5.5882  -5.3216  -5.2716  -5.1206  -4.9857
    -4.8921  -4.7071  -4.6324  -4.5803  -4.4839  -4.3571  -4.3232  -4.2316
    -4.2242  -4.1284  -3.6142  -3.5050  -3.4385  -3.3362  -3.1959  -3.0975
    -3.0157  -2.7982  -2.5875  -2.5455  -2.2594  -2.0989  -1.9446  -1.6622
    -1.6207  -1.4201  -0.7729  -0.5763  -0.5362  -0.2760  -0.1046  -0.0077
     0.2088   0.3729   0.3881   0.4904   0.5701   0.6210   0.6502   0.6622
     0.9196   1.4833   1.8961   2.0177   2.0421   2.0752   2.1393   2.2138
     2.3826   2.5273   2.6915   2.7656   2.9769   3.2782   3.2956   3.3273
     3.4147   3.5075   3.5389   3.6391   3.7317   3.8291   3.8413   3.9843
     4.0202   4.1079   4.1500   4.2840   4.4515   4.5318   4.5883   4.6507
     4.8371   4.8953   4.9134   4.9470   4.9739   5.0118   5.1269   5.1272
     5.3242   5.3291   5.4792   5.5279   5.6213   5.6661   5.7152   5.8985
     6.0092   6.0248   6.0834   6.2837   6.3484   6.3730   6.4337   6.5067
     6.6654   6.6795   6.7158   6.8153   6.8442   6.9644   6.9722   7.1594
     7.2080   7.2921   7.2939   7.3070   7.3470   7.3601   7.4424   7.4618
     7.5096   7.5294   7.6035   7.6201   7.6807   7.7246   7.7941   7.8290
     7.8508   7.9238   7.9324   8.0190   8.0953   8.1060   8.1174   8.1669
     8.3733   8.3827   8.4590   8.4782   8.4979   8.5360   8.6567   8.6704
     8.7559   8.7571   8.8460   9.0232   9.0908   9.0977   9.1196   9.1574
     9.1924   9.2045   9.2744   9.3075   9.4120   9.4457   9.4773   9.4778
     9.4842   9.5664   9.5717   9.5769   9.5919   9.6316   9.6319   9.6570
     9.6753   9.6763   9.6941   9.7024   9.7362   9.7585   9.8040   9.8497
     9.8547   9.8573   9.8788   9.9452   9.9498   9.9966  10.0508  10.0754
    10.1129  10.1356  10.1392  10.2484  10.2581  10.2794  10.2984  10.3077
    10.3205  10.3343  10.3356  10.3734  10.4357  10.5227  10.5232  10.5357
    10.5443  10.5878  10.6613  10.6904  10.7035  10.7219  10.7271  10.7800
    10.7838  10.7936  10.8070  10.8071  10.8074  10.8533  10.9281  10.9881
    11.0199  11.0492  11.0593  11.0850  11.1142  11.1185  11.1641  11.1899
    11.2094  11.3149  11.3464  11.3505  11.3552  11.3726  11.3937  11.4461
    11.4914  11.5202  11.5368  11.5552  11.5678  11.5856  11.5977  11.6050
    11.6130  11.6290  11.6662  11.6850  11.6964  11.7457  11.7612  11.7890
    11.8040  11.8188  11.8323  11.8371  11.8608  11.8762  11.8906  11.9071
    11.9370  12.0152  12.0207  12.0369  12.0441  12.0563  12.0707  12.0793
    12.0853  12.1160  12.1345  12.1568  12.1649  12.1679  12.1958  12.2100
    12.2118  12.2183  12.2220  12.2408  12.2779  12.3276  12.3435  12.3658
    12.3689  12.3712  12.3878  12.3942  12.4054  12.4823  12.4963  12.5226
    12.5542  12.5744  12.6898  12.7176  12.7373  12.7420  12.7422  12.7743
    12.8370  12.8620  12.8978  12.9393  12.9559  13.0769  13.0988  13.1824
    13.2586  13.2696  13.3275  13.3661  13.3831  13.4029  13.4436  13.4927
    13.5252  13.5378  13.5542  13.5774  13.6113  13.6148  13.6646  13.7058
    13.7292  13.7887  13.7935  13.8153  13.8752  13.9308  13.9475  14.0393
    14.0531  14.1429  14.1574  14.1674  14.2044  14.2209  14.2480  14.2771
    14.3444  14.3530  14.3730  14.3893  14.4260  14.4577  14.4606  14.5249
    14.5621  14.6206  14.6275  14.6699  14.7013  14.7188  14.7244  14.8312
    14.8726  14.8976  14.9082  14.9893  15.0461  15.0689  15.0937  15.0995
    15.1393  15.1654  15.1988  15.2107  15.2219  15.2985  15.4052  15.4211
    15.4558  15.4562  15.5348  15.5465  15.6331  15.6374  15.6385  15.7201
    15.7510  15.8003  15.8195  15.8445  15.8915  15.9098  15.9785  16.0255
    16.0371  16.0650  16.0973  16.1184  16.1354  16.1465  16.1821  16.2196
    16.2540  16.2768  16.3792  16.4239  16.4377  16.4428  16.4862  16.4876
    16.5265  16.5613  16.5666  16.5902

          k = 0.0000 0.0000 0.0141 ( 61517 PWs)   bands (ev):

   -20.6268 -20.5692 -20.4837 -20.3678 -20.2181 -20.0363 -19.8245 -19.5825
   -19.3097 -19.0061 -18.6672 -18.3001 -17.9071 -17.4885 -17.0465 -16.5836
   -16.1039 -15.6919 -15.6395 -15.6148 -15.5620 -15.4614 -15.3284 -15.1752
   -15.1136 -14.9847 -14.7740 -14.6492 -14.5376 -14.3165 -14.2301 -14.1184
   -14.0286 -13.9799 -13.9098 -13.8175 -13.7037 -13.5721 -13.4701 -13.4170
   -13.4157 -13.3238 -13.2698 -13.2348 -13.1378 -12.7837 -12.3910 -11.9703
   -11.5401 -11.5091 -11.5070 -11.3369 -11.2536 -11.0620 -11.0568 -10.8727
   -10.7084 -10.5678 -10.4596 -10.2695 -10.0610 -10.0428  -9.7763  -9.6167
    -9.5367  -9.2754  -9.1764  -8.9987  -8.7953  -8.7260  -8.7139  -8.6482
    -8.5480  -8.4547  -8.4111  -8.3524  -8.2722  -8.2350  -8.0219  -8.0156
    -7.8784  -7.8353  -7.7738  -7.7209  -7.5971  -7.4910  -7.3416  -7.3395
    -7.1738  -6.8942  -6.8228  -6.8037  -6.4593  -6.4356  -6.2841  -6.0425
    -6.0190  -5.7944  -5.6492  -5.5763  -5.3559  -5.2797  -5.1096  -5.0052
    -4.9215  -4.7303  -4.6227  -4.6116  -4.5138  -4.3865  -4.3594  -4.2730
    -4.2489  -4.1207  -3.6097  -3.5797  -3.5137  -3.4124  -3.2737  -3.1009
    -3.0932  -2.8819  -2.6345  -2.5980  -2.3568  -2.1297  -2.0567  -1.7639
    -1.7387  -1.5817  -0.6165  -0.4661  -0.4368  -0.1616  -0.0855   0.0952
     0.3064   0.3846   0.4680   0.5843   0.6635   0.7142   0.7433   0.7553
     0.9045   1.4612   1.9121   2.0337   2.0485   2.0583   2.1554   2.2300
     2.3987   2.5435   2.6614   2.7816   2.9931   3.2938   3.2943   3.3116
     3.4329   3.5273   3.5551   3.6552   3.7482   3.8451   3.8574   3.9515
     4.0365   4.1241   4.1660   4.3003   4.4674   4.5481   4.6044   4.6162
     4.8530   4.9113   4.9295   4.9629   4.9898   5.0274   5.1431   5.1431
     5.2875   5.3449   5.4945   5.5449   5.6374   5.6732   5.7311   5.9141
     5.9832   6.0402   6.0994   6.3034   6.3683   6.3873   6.4401   6.5203
     6.6312   6.6934   6.7246   6.8284   6.8585   6.9765   6.9920   7.1780
     7.2215   7.2708   7.2943   7.3169   7.3613   7.3616   7.4427   7.4446
     7.5102   7.5432   7.5809   7.6273   7.6661   7.6999   7.8125   7.8394
     7.8472   7.8583   7.8983   8.0301   8.0600   8.1152   8.1168   8.1290
     8.3082   8.3910   8.4202   8.4601   8.4711   8.5389   8.6247   8.6713
     8.6806   8.7745   8.8099   8.9727   8.9835   9.1159   9.1202   9.1273
     9.1393   9.1643   9.1879   9.2136   9.2416   9.2563   9.3096   9.3756
     9.3988   9.4337   9.4495   9.5847   9.5921   9.5956   9.6178   9.6417
     9.6497   9.6547   9.6754   9.7052   9.7087   9.7127   9.7136   9.7686
     9.8171   9.8221   9.8938   9.8961   9.9010   9.9483   9.9675   9.9839
    10.0434  10.0882  10.0985  10.1203  10.1904  10.2233  10.2697  10.2711
    10.2820  10.3290  10.3379  10.3850  10.4071  10.4099  10.4294  10.4582
    10.4706  10.5176  10.5358  10.5485  10.5545  10.5575  10.6053  10.6545
    10.7152  10.7627  10.7916  10.8394  10.9511  10.9816  11.0072  11.0380
    11.0702  11.0908  11.1039  11.1082  11.1281  11.1700  11.1804  11.2264
    11.2867  11.3138  11.3318  11.3374  11.4086  11.4168  11.4624  11.4954
    11.5067  11.5080  11.5621  11.5662  11.5711  11.5731  11.5791  11.5984
    11.6164  11.6589  11.6894  11.6901  11.7192  11.7250  11.7687  11.7952
    11.8112  11.8503  11.8644  11.8761  11.8907  11.9087  11.9226  11.9422
    11.9483  11.9601  11.9908  12.0028  12.0683  12.0790  12.0885  12.0954
    12.1055  12.1481  12.1737  12.1746  12.1785  12.2058  12.2212  12.2395
    12.2753  12.2834  12.2847  12.3061  12.3094  12.3096  12.3147  12.3367
    12.3649  12.3718  12.3795  12.3946  12.4106  12.4358  12.4643  12.5091
    12.5413  12.5450  12.5688  12.5941  12.6312  12.6543  12.7291  12.7473
    12.8031  12.8952  12.9500  12.9507  12.9711  13.0326  13.0336  13.0680
    13.1914  13.2435  13.2869  13.3093  13.3928  13.4825  13.4858  13.5261
    13.5713  13.5940  13.6691  13.6885  13.6947  13.7206  13.7385  13.7634
    13.7773  13.8208  13.8664  13.9018  13.9282  13.9479  14.0246  14.0662
    14.1608  14.1873  14.2044  14.2255  14.2330  14.2480  14.3043  14.3560
    14.4006  14.4333  14.4659  14.4768  14.5113  14.5272  14.5287  14.5927
    14.6125  14.6709  14.6967  14.7013  14.7647  14.8090  14.8133  14.8209
    14.8672  14.9099  14.9116  14.9476  14.9530  14.9897  15.1121  15.1323
    15.1406  15.1772  15.1872  15.1888  15.2640  15.3554  15.3568  15.4492
    15.4615  15.4638  15.5027  15.5034  15.5363  15.6205  15.6323  15.6786
    15.7291  15.7333  15.7660  15.7847  15.8049  15.8491  16.0029  16.0270
    16.0468  16.0693  16.1326  16.1382  16.1657  16.1700  16.2185  16.2932
    16.3040  16.3306  16.4005  16.4627  16.4678  16.4850  16.4871  16.5219
    16.5349  16.5436  16.5709  16.6171

          k = 0.0000 0.0000 0.0188 ( 61503 PWs)   bands (ev):

   -20.6102 -20.5526 -20.4672 -20.3513 -20.2016 -20.0199 -19.8081 -19.5661
   -19.2934 -18.9899 -18.6511 -18.2841 -17.8913 -17.4730 -17.0313 -16.5690
   -16.0906 -15.8640 -15.8110 -15.7351 -15.6310 -15.6033 -15.4949 -15.3379
   -15.1494 -15.1133 -14.9347 -14.7227 -14.6309 -14.4709 -14.2856 -14.2578
   -13.8321 -13.7842 -13.7157 -13.6259 -13.5156 -13.4574 -13.3896 -13.3835
   -13.2526 -13.2221 -13.1816 -13.1223 -13.0828 -12.8888 -12.5009 -12.0806
   -11.6365 -11.4273 -11.4158 -11.2325 -11.1928 -11.1530 -10.9523 -10.8118
   -10.6664 -10.6146 -10.3730 -10.2113 -10.1559  -9.9421  -9.7406  -9.6295
    -9.5150  -9.2469  -9.0970  -9.0712  -8.7698  -8.6941  -8.6424  -8.6283
    -8.5315  -8.5282  -8.3913  -8.3334  -8.2154  -8.1983  -8.0207  -8.0023
    -7.9282  -7.7871  -7.7544  -7.6855  -7.5796  -7.4718  -7.4109  -7.2835
    -7.1548  -6.8740  -6.8454  -6.8042  -6.4218  -6.4174  -6.3514  -6.0172
    -6.0015  -5.8578  -5.6372  -5.5597  -5.4112  -5.2852  -5.0943  -5.0422
    -4.9544  -4.7657  -4.6543  -4.6093  -4.5562  -4.4301  -4.4087  -4.3278
    -4.2835  -4.1100  -3.6788  -3.6138  -3.6032  -3.5134  -3.3764  -3.2016
    -3.0992  -2.9912  -2.7494  -2.6131  -2.4801  -2.1976  -2.1677  -1.9206
    -1.8367  -1.7443  -0.4610  -0.3806  -0.2816  -0.0594  -0.0217   0.2262
     0.3806   0.4333   0.5932   0.7089   0.7881   0.8388   0.8680   0.8802
     0.8842   1.4311   1.9345   2.0119   2.0560   2.0809   2.1779   2.2526
     2.4212   2.5661   2.6201   2.8041   3.0158   3.2488   3.3168   3.3341
     3.4579   3.5539   3.5778   3.6777   3.7712   3.8666   3.8800   3.9075
     4.0594   4.1468   4.1885   4.3231   4.4890   4.5696   4.5708   4.6269
     4.8753   4.9336   4.9520   4.9846   5.0122   5.0492   5.1653   5.1659
     5.2386   5.3670   5.5159   5.5679   5.6598   5.6788   5.7534   5.9358
     5.9521   6.0615   6.1217   6.3302   6.3957   6.4067   6.4488   6.5381
     6.5842   6.7120   6.7368   6.8455   6.8780   6.9934   7.0194   7.2038
     7.2210   7.2396   7.3004   7.3282   7.3628   7.3815   7.4333   7.4487
     7.4884   7.5627   7.5815   7.5923   7.6452   7.7265   7.7543   7.8190
     7.8236   7.8537   7.9081   7.9535   8.0477   8.0921   8.1283   8.1429
     8.2124   8.3902   8.3963   8.4178   8.4269   8.4882   8.6032   8.6566
     8.6910   8.7140   8.7988   8.8256   8.8804   8.8815   8.9294   8.9819
     9.0057   9.0890   9.1511   9.1522   9.1639   9.2275   9.2411   9.2424
     9.3146   9.3611   9.3735   9.4551   9.4773   9.4887   9.6001   9.6133
     9.6514   9.6729   9.6871   9.7043   9.7175   9.7305   9.7346   9.7445
     9.7560   9.7576   9.7906   9.7965   9.8803   9.9142   9.9360   9.9472
     9.9918  10.0146  10.0431  10.0508  10.0877  10.1172  10.2041  10.2289
    10.2449  10.2606  10.2606  10.2710  10.2869  10.3093  10.3200  10.3400
    10.3409  10.3499  10.3815  10.4250  10.4635  10.4699  10.4900  10.6172
    10.6208  10.7010  10.7393  10.7479  10.8558  10.9667  10.9788  11.0791
    11.1085  11.1132  11.1312  11.2036  11.2168  11.2922  11.3022  11.3352
    11.3422  11.3505  11.3716  11.4226  11.4303  11.4461  11.4741  11.4838
    11.4974  11.5108  11.5375  11.5487  11.5835  11.5919  11.6025  11.6252
    11.6429  11.6588  11.6701  11.6797  11.7019  11.7174  11.7351  11.7708
    11.7872  11.8255  11.8375  11.8865  11.8899  11.9008  11.9227  11.9353
    11.9509  11.9854  11.9923  12.0333  12.0405  12.0813  12.0918  12.1084
    12.1249  12.1406  12.1966  12.2043  12.2088  12.2090  12.2216  12.2476
    12.2892  12.3195  12.3254  12.3391  12.3486  12.3905  12.3912  12.4099
    12.4270  12.4343  12.4498  12.4803  12.4836  12.4896  12.4929  12.5243
    12.5395  12.5716  12.5796  12.5801  12.5920  12.6065  12.6404  12.7273
    12.7683  12.8069  12.8341  12.8680  12.9657  12.9921  13.0610  13.0791
    13.1453  13.2102  13.2659  13.3408  13.3456  13.3691  13.5100  13.5111
    13.5917  13.6237  13.6280  13.7198  13.7395  13.7763  13.8183  13.8352
    13.8824  13.8997  13.9667  14.0122  14.0600  14.0967  14.1142  14.2117
    14.2247  14.2590  14.2633  14.2730  14.3655  14.4033  14.4096  14.4443
    14.4538  14.4580  14.5332  14.5675  14.5828  14.5995  14.6250  14.6357
    14.6481  14.6993  14.7113  14.7576  14.7753  14.7958  14.8516  14.8851
    14.9212  14.9405  14.9846  14.9958  15.0282  15.0460  15.0683  15.1015
    15.1212  15.1319  15.1927  15.1990  15.2402  15.2478  15.3745  15.4458
    15.4682  15.4826  15.5089  15.5391  15.5473  15.5493  15.5890  15.5918
    15.6145  15.7618  15.7916  15.8126  15.8633  15.9013  15.9614  16.0039
    16.0097  16.0285  16.0988  16.1526  16.1543  16.2536  16.2693  16.2833
    16.3260  16.3898  16.3932  16.4139  16.4665  16.5512  16.5592  16.5925
    16.5997  16.6083  16.6192  16.6239

          k = 0.0000 0.0000 0.0235 ( 61521 PWs)   bands (ev):

   -20.5889 -20.5313 -20.4459 -20.3300 -20.1804 -19.9987 -19.7870 -19.5451
   -19.2725 -18.9691 -18.6304 -18.2636 -17.8710 -17.4530 -17.0118 -16.5504
   -16.0743 -16.0444 -15.9906 -15.9139 -15.8088 -15.6787 -15.5834 -15.5123
   -15.3211 -15.1405 -15.0706 -14.8830 -14.6487 -14.6333 -14.4028 -14.3566
   -13.6203 -13.5735 -13.5065 -13.4896 -13.4167 -13.3683 -13.3187 -13.2761
   -13.1874 -13.0726 -13.0582 -12.9933 -12.9505 -12.9288 -12.6234 -12.2043
   -11.7581 -11.3437 -11.2931 -11.2674 -11.1250 -11.0863 -10.8308 -10.7644
   -10.7569 -10.4913 -10.3028 -10.2617 -10.1156  -9.8413  -9.7321  -9.6854
    -9.4055  -9.2101  -9.1861  -8.9758  -8.7387  -8.6685  -8.6296  -8.6028
    -8.5422  -8.5027  -8.3659  -8.3057  -8.1901  -8.1186  -8.0794  -7.9772
    -7.9277  -7.7456  -7.7294  -7.6369  -7.5577  -7.4885  -7.4471  -7.2199
    -7.1305  -6.9560  -6.7929  -6.7803  -6.4312  -6.3941  -6.3830  -5.9932
    -5.9790  -5.9342  -5.6289  -5.5384  -5.4820  -5.2946  -5.1000  -5.0746
    -4.9886  -4.8156  -4.7075  -4.6110  -4.5920  -4.4915  -4.4697  -4.3915
    -4.3278  -4.0964  -3.7983  -3.7336  -3.6347  -3.5959  -3.4994  -3.3273
    -3.1206  -3.1014  -2.8839  -2.6390  -2.6158  -2.3487  -2.2218  -2.0862
    -1.9467  -1.9074  -0.3068  -0.2851  -0.1187  -0.0266   0.1348   0.3753
     0.3791   0.5834   0.7430   0.8583   0.8602   0.9391   0.9905   1.0201
     1.0326   1.3935   1.9633   1.9661   2.0848   2.1100   2.2068   2.2817
     2.4502   2.5685   2.5952   2.8331   3.0449   3.1929   3.3457   3.3629
     3.4890   3.5872   3.6069   3.7064   3.8006   3.8487   3.8988   3.9091
     4.0886   4.1759   4.2173   4.3524   4.4994   4.5286   4.5999   4.6557
     4.9039   4.9623   4.9809   5.0099   5.0409   5.0772   5.1805   5.1939
     5.1951   5.3955   5.5433   5.5965   5.6752   5.6884   5.7820   5.9241
     5.9635   6.0885   6.1503   6.3639   6.4302   6.4303   6.4597   6.5252
     6.5588   6.7342   6.7524   6.8655   6.9021   7.0150   7.0536   7.1588
     7.2367   7.2617   7.3112   7.3345   7.3544   7.3829   7.4216   7.4530
     7.4751   7.5335   7.5732   7.6001   7.6588   7.6797   7.7601   7.7608
     7.7654   7.8670   7.9045   7.9394   7.9789   8.0694   8.1323   8.1681
     8.1780   8.2513   8.3340   8.3830   8.4333   8.4542   8.5352   8.5791
     8.6007   8.6235   8.6582   8.7018   8.7077   8.8182   8.8189   8.8295
     8.8430   8.8711   9.0163   9.0607   9.0986   9.1847   9.1892   9.2650
     9.2777   9.2933   9.2974   9.3538   9.3822   9.4377   9.4872   9.5053
     9.5865   9.6402   9.6707   9.6814   9.6889   9.6965   9.7021   9.7574
     9.7613   9.7714   9.7926   9.7940   9.8161   9.8270   9.9203   9.9325
     9.9427   9.9734   9.9798   9.9932   9.9964  10.0009  10.0245  10.0474
    10.0534  10.0747  10.0957  10.1016  10.1339  10.1683  10.1715  10.2522
    10.3037  10.3345  10.3609  10.3822  10.4219  10.4402  10.4537  10.5287
    10.5767  10.6126  10.6473  10.6765  10.7557  10.8716  10.9634  10.9790
    11.1227  11.1286  11.1625  11.1645  11.2214  11.2332  11.2534  11.2817
    11.3012  11.3076  11.3323  11.3711  11.3750  11.4385  11.4502  11.4643
    11.4985  11.5126  11.5583  11.5977  11.6194  11.6205  11.6391  11.6465
    11.6833  11.6975  11.7129  11.7299  11.7412  11.7553  11.7659  11.8086
    11.8155  11.8465  11.8703  11.8998  11.9012  11.9288  11.9413  11.9503
    11.9628  12.0029  12.0322  12.0618  12.0767  12.1187  12.1220  12.1236
    12.1314  12.1730  12.2111  12.2176  12.2204  12.2290  12.2291  12.2339
    12.3087  12.3228  12.3325  12.3387  12.3733  12.3739  12.4155  12.4707
    12.4812  12.4939  12.5005  12.5020  12.5243  12.5442  12.5490  12.5543
    12.5845  12.6067  12.6074  12.6405  12.6517  12.7013  12.7345  12.7420
    12.7577  12.7977  12.8053  12.8377  12.8581  13.0169  13.0194  13.0638
    13.1677  13.1923  13.1996  13.2189  13.3323  13.3409  13.4383  13.6007
    13.6402  13.6490  13.6651  13.6819  13.7254  13.7756  13.8505  13.8710
    13.9252  13.9889  14.0108  14.0382  14.1753  14.2485  14.2663  14.3066
    14.3282  14.3669  14.3688  14.4083  14.4672  14.5030  14.5056  14.5587
    14.5628  14.5874  14.5990  14.6037  14.6173  14.6210  14.6859  14.7131
    14.7284  14.7375  14.7778  14.7924  14.8175  14.8232  14.8289  14.8805
    14.9658  14.9746  14.9982  15.0034  15.0185  15.1142  15.1397  15.1649
    15.1767  15.1841  15.2457  15.2612  15.2650  15.2835  15.2904  15.3272
    15.3296  15.4324  15.4968  15.5462  15.5668  15.5733  15.6253  15.6665
    15.7290  15.7668  15.8142  15.8346  15.8985  15.9028  15.9412  16.0277
    16.0349  16.0644  16.0838  16.1018  16.1643  16.2002  16.2076  16.2272
    16.3440  16.3850  16.3993  16.4660  16.5429  16.5468  16.5861  16.6194
    16.6323  16.7073  16.7154  16.7431

          k = 0.0000 0.0000 0.0282 ( 61578 PWs)   bands (ev):

   -20.5629 -20.5053 -20.4199 -20.3040 -20.1545 -19.9729 -19.7612 -19.5194
   -19.2469 -18.9437 -18.6052 -18.2386 -17.8462 -17.4287 -16.9881 -16.5280
   -16.2280 -16.1749 -16.0963 -16.0563 -15.9871 -15.8563 -15.6899 -15.5790
   -15.4875 -15.2930 -15.0842 -15.0520 -14.7970 -14.6707 -14.5470 -14.4452
   -13.5115 -13.4480 -13.3983 -13.3520 -13.2899 -13.2498 -13.2013 -13.1420
   -13.0928 -12.9878 -12.9320 -12.8623 -12.7913 -12.7700 -12.7372 -12.3359
   -11.8889 -11.4219 -11.1982 -11.1553 -11.0576 -10.9386 -10.8910 -10.7046
   -10.6596 -10.3974 -10.3228 -10.2510  -9.9914  -9.8369  -9.7653  -9.5937
    -9.3015  -9.2908  -9.1558  -8.8685  -8.7298  -8.6985  -8.6373  -8.5716
    -8.4716  -8.4453  -8.3349  -8.2690  -8.1747  -8.1592  -8.0354  -7.9465
    -7.8926  -7.7135  -7.6990  -7.6263  -7.5314  -7.5194  -7.4169  -7.1606
    -7.1007  -7.0415  -6.7511  -6.7419  -6.5201  -6.3657  -6.3467  -6.0210
    -5.9737  -5.9516  -5.6271  -5.5652  -5.5124  -5.3115  -5.1755  -5.0506
    -5.0277  -4.8816  -4.7707  -4.6789  -4.5735  -4.5710  -4.5412  -4.4596
    -4.3815  -4.0801  -3.9341  -3.8701  -3.7722  -3.6394  -3.5860  -3.4688
    -3.2653  -3.1057  -3.0318  -2.7796  -2.6544  -2.5113  -2.2838  -2.2560
    -2.0705  -2.0655  -0.1832  -0.1540   0.0125   0.0480   0.3018   0.3727
     0.5450   0.7511   0.8305   0.9125   1.0307   1.1122   1.1649   1.1954
     1.2085   1.3494   1.9120   1.9985   2.1198   2.1456   2.2422   2.3173
     2.4857   2.5075   2.6308   2.8685   3.0805   3.1270   3.3810   3.3981
     3.5247   3.6269   3.6426   3.7409   3.7864   3.8365   3.9334   3.9446
     4.1240   4.2116   4.2526   4.3881   4.4362   4.5572   4.6352   4.6909
     4.9390   4.9974   5.0163   5.0277   5.0761   5.1113   5.1252   5.2289
     5.2307   5.4302   5.5768   5.6306   5.6513   5.7230   5.8170   5.9111
     5.9970   6.1205   6.1849   6.4039   6.4557   6.4565   6.4716   6.4723
     6.5811   6.7577   6.7710   6.8866   6.9299   7.0414   7.0729   7.1065
     7.2764   7.2857   7.3240   7.3455   7.3492   7.3590   7.3880   7.4250
     7.4728   7.4832   7.5482   7.6129   7.6555   7.6831   7.6876   7.6903
     7.8005   7.8598   7.8731   7.9072   7.9790   8.0659   8.0898   8.1310
     8.1837   8.2204   8.2529   8.2586   8.2678   8.3059   8.3896   8.4098
     8.4933   8.5498   8.5634   8.6016   8.6221   8.6707   8.7623   8.7641
     8.7690   8.8061   8.8727   8.8777   8.8960   9.1373   9.1595   9.1936
     9.2274   9.2448   9.2791   9.3005   9.3118   9.3167   9.4399   9.4587
     9.4810   9.5072   9.5461   9.5727   9.6730   9.7180   9.7198   9.7284
     9.7298   9.7356   9.7442   9.7845   9.7874   9.7912   9.7945   9.8258
     9.8460   9.8703   9.8862   9.8879   9.8924   9.8985   9.9111   9.9121
     9.9415   9.9599   9.9742   9.9945  10.0401  10.0538  10.1263  10.2381
    10.2480  10.2601  10.2681  10.3123  10.3611  10.4027  10.4081  10.4670
    10.4927  10.5461  10.6308  10.6801  10.6834  10.7730  10.8694  10.9803
    11.0028  11.0136  11.0547  11.1054  11.1083  11.1423  11.1458  11.1568
    11.1771  11.2262  11.2289  11.2674  11.2690  11.3372  11.4387  11.4573
    11.4962  11.4968  11.5355  11.5486  11.6042  11.6467  11.6556  11.6786
    11.7069  11.7332  11.7428  11.7755  11.7866  11.7969  11.8009  11.8519
    11.8573  11.9092  11.9112  11.9583  11.9625  12.0035  12.0105  12.0435
    12.0686  12.0713  12.0959  12.1252  12.1291  12.1453  12.1461  12.1525
    12.1683  12.2006  12.2007  12.2400  12.2467  12.2556  12.2651  12.2957
    12.3059  12.3361  12.3549  12.3999  12.4017  12.4197  12.4371  12.4427
    12.4542  12.5075  12.5214  12.5298  12.5430  12.5481  12.5769  12.6183
    12.6303  12.6380  12.6422  12.6789  12.7091  12.7412  12.7654  12.7757
    12.8503  12.8608  12.8696  12.8980  12.9714  12.9934  13.0136  13.0317
    13.0526  13.1146  13.2359  13.2996  13.3156  13.3888  13.4009  13.5286
    13.6196  13.6403  13.6464  13.6878  13.7424  13.7968  13.8865  13.9096
    14.0211  14.0685  14.0890  14.1212  14.2014  14.2109  14.2814  14.2896
    14.2989  14.3712  14.4865  14.5036  14.5784  14.6030  14.6398  14.6448
    14.6707  14.6918  14.7042  14.7349  14.7385  14.7479  14.7563  14.7583
    14.7810  14.8109  14.8176  14.8231  14.8587  14.8889  14.9100  14.9163
    14.9278  15.0372  15.0453  15.0620  15.0841  15.1033  15.1505  15.1505
    15.1739  15.2199  15.2450  15.2608  15.2799  15.2950  15.3653  15.4644
    15.4959  15.5120  15.5436  15.5624  15.5868  15.5909  15.6480  15.6684
    15.7568  15.8010  15.8452  15.8516  15.8791  15.9031  15.9372  15.9443
    16.0148  16.0788  16.0941  16.0960  16.1359  16.2566  16.2660  16.3134
    16.3923  16.4192  16.4549  16.4869  16.5345  16.6077  16.6476  16.6550
    16.7249  16.7260  16.7368  16.7640

          k = 0.0000 0.0000 0.0329 ( 61560 PWs)   bands (ev):

   -20.5321 -20.4745 -20.3891 -20.2734 -20.1239 -19.9423 -19.7308 -19.4891
   -19.2167 -18.9136 -18.5753 -18.2090 -17.8170 -17.4000 -16.9603 -16.5022
   -16.4121 -16.3584 -16.2789 -16.1753 -16.0363 -16.0295 -15.8658 -15.6878
   -15.5377 -15.4650 -15.2213 -15.0859 -14.9537 -14.7394 -14.6547 -14.5495
   -13.5409 -13.5254 -13.2626 -13.2056 -13.1687 -13.1237 -13.0590 -12.9783
   -12.8920 -12.8739 -12.8560 -12.7564 -12.6633 -12.6187 -12.5898 -12.4678
   -12.0244 -11.5528 -11.0802 -11.0685 -11.0096 -10.8932 -10.7791 -10.6649
   -10.4985 -10.4813 -10.2119 -10.1793  -9.9648  -9.8234  -9.7172  -9.4834
    -9.3813  -9.2269  -9.0689  -8.8321  -8.7736  -8.6399  -8.6004  -8.5348
    -8.4348  -8.3538  -8.2983  -8.2759  -8.2183  -8.1228  -7.9662  -7.9103
    -7.8353  -7.7333  -7.6630  -7.6554  -7.5009  -7.4599  -7.3813  -7.1753
    -7.0656  -7.0613  -6.7166  -6.7042  -6.6071  -6.3321  -6.3174  -6.1153
    -5.9617  -5.9192  -5.6583  -5.6341  -5.4817  -5.3382  -5.2650  -5.0758
    -5.0224  -4.9643  -4.8442  -4.7610  -4.6744  -4.6216  -4.5465  -4.5310
    -4.4438  -4.0827  -4.0610  -4.0190  -3.9220  -3.7903  -3.6220  -3.5766
    -3.4207  -3.1952  -3.1058  -2.9430  -2.6839  -2.6800  -2.4276  -2.3546
    -2.2330  -2.1905  -0.0773  -0.0033   0.0580   0.2163   0.3707   0.4757
     0.7225   0.7988   0.9325   1.0975   1.2191   1.2997   1.3034   1.3581
     1.3901   1.4041   1.8506   2.0400   2.1613   2.1876   2.2840   2.3594
     2.4380   2.5276   2.6729   2.9103   3.0520   3.1226   3.4228   3.4396
     3.5583   3.6728   3.6847   3.7191   3.7850   3.8786   3.9751   3.9865
     4.1649   4.2537   4.2943   4.3581   4.4302   4.5983   4.6764   4.7325
     4.9804   4.9911   5.0389   5.0580   5.1176   5.1211   5.1514   5.2702
     5.2726   5.4714   5.6003   5.6161   5.6693   5.7634   5.8584   5.9207
     6.0361   6.1570   6.2254   6.3761   6.4510   6.4820   6.4863   6.5197
     6.6040   6.7776   6.7920   6.9072   6.9598   6.9929   7.0728   7.1493
     7.3056   7.3227   7.3331   7.3344   7.3376   7.3609   7.3656   7.3675
     7.4210   7.4414   7.5179   7.5634   7.5782   7.5926   7.6926   7.7617
     7.8084   7.8438   7.8469   7.9050   7.9830   8.0089   8.0249   8.0408
     8.0431   8.0915   8.1589   8.1597   8.1660   8.1856   8.2502   8.2695
     8.3635   8.4158   8.4938   8.5389   8.5716   8.6163   8.6326   8.6663
     8.6976   8.7116   8.7907   8.7971   8.9095   8.9194   8.9441   9.0831
     9.1145   9.1694   9.2519   9.2795   9.2923   9.3417   9.3646   9.3789
     9.3937   9.4614   9.4664   9.4687   9.4701   9.4954   9.5069   9.5789
     9.6064   9.6298   9.6997   9.7100   9.7187   9.7287   9.7336   9.7599
     9.7605   9.7614   9.7762   9.7877   9.8290   9.8827   9.8850   9.8917
     9.9561   9.9658   9.9686   9.9969  10.0024  10.0058  10.0709  10.0937
    10.1093  10.1113  10.1289  10.2720  10.3734  10.3880  10.4301  10.4699
    10.4833  10.5209  10.5222  10.5632  10.7183  10.7305  10.7521  10.7856
    10.7903  10.8055  10.8793  10.9216  10.9804  11.0082  11.0517  11.0750
    11.1166  11.1892  11.1914  11.2175  11.2308  11.2774  11.3108  11.4390
    11.4692  11.4855  11.5325  11.5370  11.5667  11.5923  11.6710  11.6767
    11.6794  11.6966  11.7150  11.7528  11.7694  11.8239  11.8328  11.8349
    11.8864  11.9176  11.9448  11.9535  11.9995  12.0359  12.0653  12.0862
    12.0912  12.1233  12.1362  12.1386  12.1573  12.1823  12.2021  12.2422
    12.2493  12.2721  12.2794  12.2859  12.3101  12.3321  12.3594  12.3775
    12.3822  12.3960  12.4148  12.4333  12.4449  12.4469  12.4612  12.4889
    12.5151  12.5312  12.5340  12.5345  12.5728  12.6215  12.6276  12.6522
    12.6589  12.6865  12.7076  12.7465  12.7467  12.7950  12.8117  12.8157
    12.8572  12.8605  12.8621  12.8762  12.8985  13.0308  13.0901  13.1404
    13.1825  13.1978  13.2069  13.3342  13.3414  13.3580  13.4117  13.4642
    13.5249  13.6631  13.6776  13.7132  13.8155  13.8181  13.9224  13.9252
    14.0025  14.0850  14.0905  14.1435  14.1751  14.3083  14.3193  14.3194
    14.3294  14.3701  14.3981  14.4488  14.4942  14.5945  14.6582  14.6821
    14.7060  14.7077  14.7865  14.8380  14.8483  14.8663  14.8833  14.9070
    14.9202  14.9455  14.9508  14.9550  14.9592  14.9675  14.9676  14.9839
    15.0023  15.0136  15.0691  15.1356  15.1385  15.1799  15.1800  15.2299
    15.2524  15.2762  15.2914  15.3241  15.3466  15.3776  15.4427  15.4993
    15.5279  15.5527  15.5922  15.6135  15.6407  15.7080  15.7110  15.7112
    15.7663  15.8069  15.8104  15.8410  15.8879  15.8979  15.9904  15.9976
    16.0210  16.0311  16.1670  16.1765  16.1888  16.3009  16.3849  16.4114
    16.4276  16.4403  16.5374  16.5423  16.5519  16.5750  16.6604  16.6716
    16.7202  16.7618  16.7829  16.7890

          k = 0.0000 0.0000 0.0376 ( 61614 PWs)   bands (ev):

   -20.4966 -20.4390 -20.3537 -20.2380 -20.0886 -19.9071 -19.6957 -19.4541
   -19.1819 -18.8790 -18.5410 -18.1749 -17.7834 -17.3671 -16.9286 -16.5954
   -16.5410 -16.4812 -16.4529 -16.3552 -16.2149 -16.0650 -15.9832 -15.8595
   -15.6368 -15.5284 -15.3830 -15.1581 -15.0390 -14.8790 -14.7040 -14.6659
   -13.6247 -13.5398 -13.3726 -13.1730 -13.0078 -12.9337 -12.8899 -12.8273
   -12.7849 -12.7424 -12.6510 -12.5982 -12.5423 -12.5005 -12.4418 -12.4027
   -12.1597 -11.6889 -11.1984 -10.9245 -10.8694 -10.7747 -10.7025 -10.6175
   -10.4873 -10.3296 -10.2093 -10.0293 -10.0151  -9.6971  -9.6733  -9.5063
    -9.3060  -9.1865  -8.9897  -8.8903  -8.7091  -8.5579  -8.5565  -8.4923
    -8.3925  -8.3722  -8.2818  -8.2560  -8.1464  -8.0807  -7.9104  -7.8685
    -7.8275  -7.7601  -7.6251  -7.6215  -7.4669  -7.3853  -7.3403  -7.2718
    -7.0252  -7.0073  -6.7497  -6.6769  -6.6234  -6.3060  -6.2934  -6.2068
    -5.9605  -5.8820  -5.7589  -5.6520  -5.4465  -5.3765  -5.3660  -5.1351
    -5.0634  -4.9901  -4.9285  -4.8614  -4.7869  -4.7093  -4.6071  -4.5184
    -4.5141  -4.2406  -4.1774  -4.0820  -4.0388  -3.9505  -3.7837  -3.5921
    -3.5578  -3.3605  -3.1128  -3.1122  -2.8518  -2.7190  -2.5988  -2.4360
    -2.3923  -2.3198   0.0312   0.1045   0.1504   0.3666   0.3894   0.6537
     0.7660   0.9076   1.1238   1.2453   1.2949   1.4210   1.5093   1.5669
     1.6009   1.6161   1.7829   2.0879   2.2090   2.2362   2.3323   2.3612
     2.4079   2.5759   2.7214   2.9586   2.9689   3.1711   3.4710   3.4875
     3.5565   3.6879   3.7244   3.7333   3.8326   3.9268   4.0234   4.0347
     4.2053   4.2789   4.3024   4.3424   4.4788   4.6463   4.7223   4.7803
     4.9102   5.0282   5.0868   5.1061   5.1595   5.1655   5.1975   5.3179
     5.3208   5.5188   5.5262   5.6611   5.7112   5.8093   5.9060   5.9498
     6.0803   6.1967   6.2714   6.2906   6.5000   6.5008   6.5034   6.5742
     6.6280   6.7837   6.8138   6.8960   6.9275   6.9895   7.1086   7.2050
     7.2920   7.2936   7.3098   7.3264   7.3478   7.3503   7.3524   7.3751
     7.3986   7.4012   7.4670   7.4686   7.4909   7.5357   7.6517   7.7161
     7.7596   7.7682   7.7745   7.8833   7.8846   7.8968   7.9185   7.9334
     8.0249   8.0346   8.0550   8.0749   8.0887   8.0939   8.1639   8.2511
     8.2996   8.3244   8.3473   8.3658   8.5225   8.5564   8.5758   8.5889
     8.6311   8.6665   8.6707   8.7765   8.8080   8.8497   8.8884   8.9251
     8.9463   8.9838   9.1777   9.1902   9.2188   9.2194   9.2326   9.2471
     9.2947   9.3235   9.3406   9.3615   9.3916   9.3947   9.4247   9.4395
     9.5120   9.5171   9.5386   9.5430   9.6025   9.6274   9.6472   9.6742
     9.7023   9.7438   9.7489   9.7592   9.7929   9.8193   9.8315   9.8616
     9.8782   9.8817   9.9203   9.9342  10.0271  10.0304  10.0532  10.0554
    10.0840  10.0909  10.1184  10.1819  10.3072  10.3431  10.4263  10.4533
    10.4544  10.4719  10.5074  10.5203  10.5302  10.5633  10.5799  10.6238
    10.6745  10.7570  10.7604  10.7722  10.7813  10.9017  10.9089  10.9277
    10.9737  11.1088  11.1823  11.2215  11.2275  11.2454  11.2886  11.3120
    11.3583  11.3601  11.5024  11.5209  11.5249  11.5847  11.6384  11.6420
    11.7115  11.7338  11.7476  11.7517  11.7604  11.8333  11.8379  11.8685
    11.8911  11.9053  11.9130  11.9972  11.9991  12.0071  12.0403  12.0572
    12.1115  12.1292  12.1341  12.1431  12.1494  12.1613  12.2228  12.2382
    12.2423  12.2649  12.2772  12.2909  12.2929  12.3960  12.4003  12.4446
    12.4448  12.4488  12.5010  12.5177  12.5306  12.5339  12.5666  12.6082
    12.6130  12.6385  12.6598  12.6651  12.6671  12.6727  12.7133  12.7178
    12.7208  12.7314  12.7319  12.7371  12.7878  12.8251  12.8260  12.8269
    12.8949  12.9362  12.9544  12.9770  12.9925  13.0522  13.0657  13.1413
    13.1803  13.1888  13.2405  13.3742  13.3747  13.4003  13.4045  13.5199
    13.5510  13.6265  13.7074  13.7560  13.7568  13.8721  13.8724  13.9905
    14.0291  14.0578  14.0713  14.1338  14.1785  14.2220  14.3168  14.3372
    14.3599  14.3772  14.4458  14.4467  14.5152  14.5858  14.5875  14.6244
    14.7333  14.7374  14.7977  14.8058  14.8230  14.8605  14.8622  14.9321
    14.9784  15.0498  15.0603  15.0624  15.0945  15.1018  15.1388  15.1671
    15.1793  15.2167  15.2325  15.2403  15.2478  15.2533  15.2638  15.2974
    15.3214  15.3452  15.3799  15.4098  15.4370  15.4769  15.5100  15.5195
    15.5304  15.5307  15.5757  15.6696  15.6865  15.7200  15.7225  15.7356
    15.8169  15.8317  15.9185  15.9244  15.9511  16.0015  16.0180  16.0417
    16.1151  16.1625  16.2362  16.2520  16.3381  16.3488  16.3945  16.4115
    16.4522  16.4798  16.4823  16.5664  16.5777  16.6317  16.6498  16.6821
    16.6867  16.7202  16.7259  16.7553

          k = 0.0000 0.0000 0.0423 ( 61610 PWs)   bands (ev):

   -20.4564 -20.3988 -20.3135 -20.1979 -20.0485 -19.8672 -19.6559 -19.4145
   -19.1425 -18.8398 -18.5021 -18.1364 -17.7454 -17.3300 -16.8935 -16.7765
   -16.7216 -16.6428 -16.5337 -16.4494 -16.3816 -16.2308 -16.0322 -15.9696
   -15.8023 -15.5900 -15.4675 -15.3107 -15.0453 -15.0306 -14.7901 -14.7552
   -13.6935 -13.5861 -13.4373 -13.2193 -13.0465 -12.8004 -12.6939 -12.6528
   -12.6321 -12.5911 -12.5125 -12.4303 -12.3888 -12.3238 -12.2732 -12.2366
   -12.2275 -11.8251 -11.3308 -10.8377 -10.7419 -10.7355 -10.6169 -10.4847
   -10.3800 -10.2843 -10.1604 -10.0115  -9.8464  -9.7418  -9.5279  -9.5134
    -9.1950  -9.1614  -9.0168  -8.7912  -8.6802  -8.5132  -8.5098  -8.4443
    -8.3932  -8.3445  -8.2310  -8.2082  -8.0655  -8.0331  -7.9195  -7.8622
    -7.8212  -7.6780  -7.5854  -7.5746  -7.4367  -7.3698  -7.3118  -7.2939
    -6.9794  -6.9516  -6.8540  -6.6320  -6.5933  -6.3613  -6.2497  -6.2473
    -5.9766  -5.8608  -5.8399  -5.6830  -5.4767  -5.4276  -5.4067  -5.2071
    -5.1785  -5.0239  -4.9861  -4.9536  -4.9011  -4.8030  -4.6888  -4.5916
    -4.4870  -4.4054  -4.3425  -4.2472  -4.1170  -4.0175  -3.9494  -3.7559
    -3.5516  -3.5312  -3.2844  -3.1228  -3.0232  -2.7850  -2.7441  -2.5639
    -2.5108  -2.4521   0.1415   0.1608   0.2980   0.3729   0.5553   0.7309
     0.8360   1.0974   1.1886   1.3226   1.5010   1.6335   1.7103   1.7270
     1.7885   1.8250   1.8418   2.1421   2.2631   2.2779   2.2911   2.3869
     2.4630   2.6307   2.7765   2.8787   3.0134   3.2262   3.4887   3.5257
     3.5416   3.7211   3.7803   3.7884   3.8871   3.9799   4.0781   4.0894
     4.1667   4.2807   4.3575   4.3969   4.5338   4.7007   4.7598   4.8291
     4.8344   5.0824   5.1411   5.1605   5.2102   5.2197   5.2494   5.3721
     5.3753   5.4356   5.5726   5.7114   5.7529   5.8600   5.9600   5.9927
     6.1283   6.2030   6.2364   6.3222   6.4988   6.5141   6.5618   6.6350
     6.6563   6.7629   6.7892   6.8332   6.9488   7.0158   7.1459   7.2436
     7.2452   7.2674   7.2676   7.2718   7.3248   7.3329   7.3508   7.3646
     7.3754   7.4063   7.4262   7.4298   7.4369   7.4543   7.5176   7.5178
     7.5500   7.6490   7.6808   7.6897   7.8320   7.8358   7.8884   7.8896
     7.9084   7.9829   8.0326   8.0577   8.0915   8.1243   8.1316   8.1381
     8.1675   8.2563   8.3163   8.3665   8.3778   8.4440   8.4493   8.5299
     8.5303   8.6332   8.6724   8.6797   8.7701   8.7946   8.8057   8.8248
     8.8683   8.8807   8.9361   8.9513   9.0104   9.0122   9.0876   9.1132
     9.1669   9.1677   9.1893   9.2177   9.3072   9.3335   9.3856   9.4268
     9.4274   9.4579   9.4916   9.4973   9.5086   9.5374   9.5478   9.5493
     9.5626   9.5927   9.6397   9.6774   9.7043   9.7687   9.8104   9.8117
     9.8501   9.8694   9.8721   9.8889   9.9710  10.0343  10.0788  10.1118
    10.1215  10.1399  10.1467  10.1477  10.2045  10.2438  10.2655  10.2798
    10.2855  10.3499  10.3669  10.4681  10.4834  10.5224  10.5567  10.5941
    10.6194  10.6204  10.6273  10.6839  10.7062  10.7293  10.8017  10.9169
    10.9171  10.9174  11.0102  11.1021  11.1277  11.2006  11.2412  11.2555
    11.3065  11.4079  11.4112  11.4595  11.4975  11.5726  11.6009  11.6390
    11.6903  11.7040  11.7457  11.7818  11.7984  11.8025  11.8346  11.8597
    11.9272  11.9604  11.9624  11.9815  11.9958  12.0107  12.0461  12.0519
    12.0652  12.0677  12.0732  12.1067  12.1120  12.1932  12.2391  12.2416
    12.2798  12.2818  12.2960  12.3016  12.3257  12.3552  12.3755  12.3822
    12.4273  12.4821  12.5157  12.5441  12.5763  12.5832  12.5854  12.6137
    12.6234  12.6709  12.7175  12.7500  12.7663  12.7796  12.7897  12.8172
    12.8433  12.8611  12.8667  12.9025  12.9071  12.9273  12.9321  12.9504
    12.9569  12.9737  12.9935  13.0073  13.0697  13.0853  13.1830  13.2008
    13.2013  13.2458  13.2553  13.3024  13.3810  13.3995  13.4451  13.4961
    13.5537  13.6102  13.7235  13.7319  13.7949  13.8890  13.8899  13.9138
    13.9480  14.0322  14.0983  14.2246  14.2256  14.2308  14.3235  14.3679
    14.3765  14.3944  14.4024  14.4251  14.4274  14.4626  14.5896  14.6718
    14.6950  14.7348  14.7899  14.8570  14.8675  14.9102  14.9257  14.9557
    15.0429  15.0533  15.1333  15.1732  15.1790  15.2149  15.2356  15.2526
    15.2580  15.2980  15.3372  15.3411  15.3706  15.3715  15.4017  15.4037
    15.4194  15.4423  15.4506  15.4598  15.5008  15.5132  15.5400  15.5521
    15.6035  15.6682  15.6936  15.6945  15.7596  15.7668  15.7976  15.8441
    15.8506  15.9152  15.9821  16.0014  16.0031  16.0213  16.1453  16.1840
    16.1976  16.2144  16.2334  16.2747  16.3819  16.4298  16.4471  16.4645
    16.4731  16.4977  16.5118  16.5143  16.5397  16.5503  16.5942  16.6125
    16.6198  16.6375  16.7133  16.7194

          k = 0.0000 0.0000 0.0469 ( 61664 PWs)   bands (ev):

   -20.4114 -20.3539 -20.2687 -20.1531 -20.0039 -19.8226 -19.6115 -19.3702
   -19.0985 -18.7960 -18.4586 -18.0935 -17.7032 -17.2889 -16.9550 -16.9018
   -16.8543 -16.8198 -16.7080 -16.5760 -16.4028 -16.3973 -16.1999 -16.0090
   -15.9010 -15.7443 -15.4703 -15.4569 -15.1817 -15.0515 -14.9151 -14.8204
   -13.7445 -13.6761 -13.4435 -13.3347 -13.0142 -12.9202 -12.5734 -12.4681
   -12.4501 -12.4081 -12.3512 -12.2770 -12.2227 -12.1835 -12.1090 -12.0644
   -12.0362 -11.9471 -11.4651 -10.9533 -10.6031 -10.5846 -10.4602 -10.3820
   -10.3719 -10.2139 -10.0171  -9.9223  -9.8420  -9.6761  -9.4924  -9.3528
    -9.2722  -9.0118  -9.0040  -8.7163  -8.6590  -8.5243  -8.4561  -8.3906
    -8.2947  -8.2910  -8.2069  -8.1549  -8.0540  -7.9800  -7.9190  -7.8176
    -7.7683  -7.6062  -7.5414  -7.5222  -7.4884  -7.3725  -7.2445  -7.2420
    -6.9666  -6.9282  -6.9026  -6.5818  -6.5671  -6.4687  -6.2517  -6.2009
    -6.0340  -5.9406  -5.7929  -5.7301  -5.5941  -5.4929  -5.3624  -5.3083
    -5.2927  -5.1343  -5.1300  -5.0148  -4.9132  -4.9018  -4.7763  -4.6756
    -4.5750  -4.5128  -4.4524  -4.4173  -4.2873  -4.1251  -3.9877  -3.9280
    -3.7042  -3.5430  -3.4553  -3.2071  -3.1228  -2.9480  -2.7968  -2.7225
    -2.6034  -2.5863   0.2207   0.2526   0.3804   0.4453   0.6982   0.7236
     1.0181   1.1276   1.2928   1.5263   1.6334   1.7144   1.8552   1.9544
     2.0205   2.0601   2.0788   2.1896   2.2026   2.3235   2.3526   2.4480
     2.5245   2.6919   2.7823   2.8380   3.0747   3.2877   3.3944   3.5868
     3.6021   3.7803   3.8351   3.8499   3.9480   4.0249   4.0935   4.1392
     4.1504   4.3382   4.4191   4.4578   4.5951   4.6921   4.7614   4.8507
     4.8946   5.1429   5.2018   5.2213   5.2673   5.2803   5.3060   5.3339
     5.4326   5.4357   5.6327   5.7662   5.7853   5.9145   6.0203   6.0459
     6.1243   6.1767   6.2685   6.3769   6.4683   6.5232   6.6262   6.6735
     6.6906   6.7024   6.7157   6.8443   6.9663   7.0354   7.1677   7.1831
     7.1881   7.2033   7.2134   7.2204   7.2540   7.2738   7.2856   7.3085
     7.3250   7.3361   7.3388   7.3840   7.3909   7.4456   7.4587   7.4608
     7.4939   7.5009   7.5352   7.6234   7.6414   7.7117   7.7940   7.8376
     7.8582   7.8847   7.9258   8.0291   8.0518   8.0811   8.1335   8.1512
     8.1698   8.2418   8.2594   8.2860   8.3166   8.3625   8.4323   8.4571
     8.4729   8.5620   8.5683   8.6201   8.6806   8.7065   8.7090   8.7304
     8.7399   8.7888   8.7955   8.8171   8.8572   8.8749   8.9028   8.9579
     8.9788   8.9870   9.0921   9.1277   9.1475   9.2284   9.2418   9.3046
     9.3251   9.3370   9.3411   9.3991   9.4272   9.4908   9.5018   9.5203
     9.5621   9.5730   9.5985   9.6079   9.6226   9.6516   9.6968   9.7067
     9.8239   9.8507   9.8756   9.9273   9.9499   9.9651   9.9907  10.0162
    10.0287  10.0948  10.1150  10.1273  10.1471  10.1676  10.1750  10.1852
    10.2378  10.2439  10.2441  10.3991  10.4059  10.4073  10.5083  10.5474
    10.5664  10.6119  10.6168  10.6357  10.6526  10.6639  10.7386  10.7848
    10.8192  10.9061  10.9162  10.9503  10.9645  11.0294  11.1252  11.2722
    11.2917  11.2924  11.3553  11.4383  11.4691  11.5361  11.5849  11.6239
    11.6985  11.7198  11.7529  11.7921  11.7929  11.8255  11.8513  11.8567
    11.8722  11.8994  11.9399  11.9449  11.9499  11.9885  12.0310  12.0432
    12.0564  12.0965  12.1092  12.1122  12.1579  12.1668  12.2047  12.2350
    12.3148  12.3203  12.3237  12.3287  12.3577  12.3599  12.4038  12.4226
    12.4333  12.4765  12.4822  12.5337  12.5348  12.5534  12.6268  12.6436
    12.6697  12.6740  12.6911  12.6969  12.7969  12.8127  12.8288  12.8315
    12.8513  12.9014  12.9386  12.9643  13.0141  13.0197  13.0311  13.0502
    13.0735  13.1604  13.1673  13.1851  13.1982  13.2407  13.2418  13.2459
    13.2701  13.2975  13.3009  13.3525  13.3961  13.4035  13.4490  13.4498
    13.5295  13.6063  13.6102  13.7672  13.8158  13.8162  13.8345  13.8877
    13.9979  13.9993  14.1405  14.1935  14.2146  14.2174  14.2497  14.3667
    14.3847  14.3864  14.4501  14.4643  14.4714  14.5233  14.5330  14.5905
    14.6384  14.8050  14.8539  14.8874  14.9196  14.9608  14.9727  15.0315
    15.0352  15.1109  15.1591  15.1963  15.2019  15.2501  15.2657  15.3650
    15.3860  15.3871  15.3918  15.3939  15.4202  15.4362  15.4582  15.4701
    15.4794  15.4924  15.5221  15.5307  15.6270  15.6474  15.6588  15.6983
    15.7228  15.7389  15.7444  15.8329  15.8581  15.8636  15.8722  15.9133
    15.9503  15.9631  16.0152  16.0191  16.0895  16.0918  16.2193  16.2579
    16.2622  16.2717  16.2766  16.2907  16.2921  16.3065  16.3556  16.3963
    16.4203  16.4513  16.5163  16.5342  16.5654  16.5820  16.6030  16.6234
    16.6499  16.6925  16.7140  16.7140

          k = 0.0000 0.0000 0.0516 ( 61682 PWs)   bands (ev):

   -20.3618 -20.3043 -20.2191 -20.1036 -19.9545 -19.7734 -19.5624 -19.3214
   -19.0498 -18.7477 -18.4107 -18.0461 -17.6567 -17.2447 -17.1304 -17.0756
   -16.9936 -16.8927 -16.8034 -16.7460 -16.5711 -16.4078 -16.3206 -16.1605
   -15.9054 -15.8837 -15.6265 -15.4473 -15.3202 -15.0994 -15.0068 -14.9005
   -13.7787 -13.7733 -13.4572 -13.4278 -13.0494 -12.9717 -12.5941 -12.5064
   -12.2028 -12.1624 -12.1221 -12.1147 -12.0991 -12.0369 -11.9556 -11.8843
   -11.8686 -11.8370 -11.5948 -11.0833 -10.5705 -10.4121 -10.4078 -10.2825
   -10.2415 -10.0425  -9.9402  -9.9266  -9.7650  -9.5188  -9.4253  -9.3832
    -9.1869  -8.9610  -8.8676  -8.8046  -8.5253  -8.4935  -8.3968  -8.3314
    -8.2518  -8.2319  -8.1803  -8.0960  -8.0613  -7.9213  -7.8327  -7.7840
    -7.7101  -7.6245  -7.4943  -7.4871  -7.4644  -7.3272  -7.1929  -7.1848
    -7.0741  -6.8718  -6.8635  -6.5869  -6.5507  -6.5265  -6.2611  -6.1471
    -6.1416  -5.9894  -5.8018  -5.7413  -5.7101  -5.5740  -5.4508  -5.3927
    -5.3137  -5.2990  -5.2458  -5.1313  -5.0050  -4.8691  -4.8690  -4.7651
    -4.7475  -4.6852  -4.5901  -4.4649  -4.4108  -4.2981  -4.1018  -3.9640
    -3.8753  -3.6395  -3.5212  -3.3777  -3.1385  -3.1171  -2.8814  -2.8475
    -2.7212  -2.6991   0.2848   0.3590   0.3980   0.5899   0.6687   0.8910
     1.0676   1.2011   1.4889   1.5523   1.7361   1.9329   2.0831   2.0966
     2.1903   2.2610   2.2695   2.3043   2.3253   2.3901   2.4205   2.5154
     2.5924   2.6810   2.7596   2.9060   3.1424   3.2898   3.3557   3.6543
     3.6687   3.8500   3.8563   3.9180   4.0033   4.0153   4.1241   4.2066
     4.2177   4.4052   4.4873   4.5250   4.5827   4.6627   4.8282   4.9139
     4.9609   5.2098   5.2212   5.2688   5.2882   5.3278   5.3473   5.3697
     5.4995   5.5018   5.6988   5.7859   5.8229   5.9700   6.0795   6.0868
     6.1072   6.2105   6.2734   6.4181   6.4336   6.5277   6.5515   6.6687
     6.6964   6.7251   6.7751   6.8292   6.9644   6.9674   7.0446   7.0448
     7.0529   7.1185   7.1226   7.1285   7.1655   7.2033   7.2162   7.2633
     7.2668   7.2975   7.3185   7.3434   7.3897   7.4004   7.4086   7.4190
     7.4683   7.5025   7.5269   7.5719   7.6056   7.6140   7.6237   7.6579
     7.7378   7.8518   7.8793   7.9446   7.9487   7.9491   8.0787   8.0812
     8.0996   8.2309   8.2546   8.2725   8.2869   8.3870   8.3999   8.4232
     8.4461   8.4655   8.4838   8.5102   8.5300   8.5558   8.5744   8.5989
     8.6135   8.6253   8.7018   8.7686   8.7823   8.8020   8.8141   8.8750
     8.8823   8.9222   8.9790   8.9918   9.0107   9.0178   9.0877   9.1271
     9.1576   9.2392   9.2402   9.2823   9.3627   9.3925   9.4200   9.4424
     9.4830   9.5137   9.5483   9.5829   9.6435   9.6632   9.6856   9.7000
     9.7163   9.7422   9.7657   9.7681   9.8244   9.8379   9.8602   9.9334
     9.9898   9.9964  10.0083  10.0545  10.0907  10.1464  10.1567  10.1854
    10.1891  10.1989  10.2229  10.3323  10.3446  10.3676  10.4558  10.5076
    10.5308  10.5428  10.5428  10.6400  10.6415  10.6624  10.6840  10.7261
    10.7611  10.8036  10.8170  10.8681  10.9380  10.9486  10.9917  11.0814
    11.1635  11.3261  11.3325  11.3764  11.4196  11.5201  11.5317  11.5738
    11.6462  11.6884  11.7481  11.7699  11.7720  11.7823  11.8190  11.8713
    11.9055  11.9251  11.9348  11.9633  11.9650  12.0015  12.0352  12.0382
    12.0420  12.0647  12.0733  12.1611  12.1844  12.2019  12.2244  12.2504
    12.3219  12.3281  12.3525  12.3718  12.3741  12.3864  12.3876  12.4079
    12.4214  12.4303  12.4321  12.5008  12.5487  12.5755  12.5883  12.6321
    12.6801  12.6807  12.7103  12.7684  12.7688  12.8359  12.8785  12.8829
    12.9270  12.9386  12.9593  13.0082  13.0283  13.0385  13.0665  13.1164
    13.1190  13.1365  13.1406  13.2332  13.2733  13.2931  13.3029  13.3669
    13.3910  13.3981  13.4395  13.4697  13.4846  13.5093  13.5153  13.5386
    13.5451  13.5782  13.6373  13.6748  13.7413  13.8152  13.8623  13.9230
    13.9343  14.0533  14.1053  14.1187  14.1264  14.1531  14.2257  14.3579
    14.3663  14.3861  14.4420  14.4848  14.5220  14.5799  14.5854  14.6484
    14.7124  14.7769  14.8322  14.9179  14.9431  14.9564  14.9840  15.0931
    15.1137  15.1630  15.2151  15.2350  15.2611  15.2885  15.3086  15.3352
    15.3710  15.4438  15.4753  15.4761  15.4785  15.5050  15.5052  15.5435
    15.5555  15.5739  15.5993  15.6461  15.6824  15.7254  15.7323  15.7449
    15.8369  15.8603  15.8608  15.8968  15.9048  15.9413  15.9492  15.9557
    16.0117  16.0128  16.0532  16.0802  16.0931  16.1223  16.1345  16.1615
    16.1860  16.2552  16.2620  16.3061  16.3161  16.3684  16.4127  16.4310
    16.4331  16.4990  16.5053  16.5355  16.5508  16.5793  16.6329  16.6358
    16.6780  16.6896  16.7343  16.7596

          k = 0.0000 0.0000 0.0563 ( 61696 PWs)   bands (ev):

   -20.3075 -20.2500 -20.1649 -20.0495 -19.9005 -19.7195 -19.5087 -19.2679
   -18.9967 -18.6949 -18.3584 -17.9945 -17.6064 -17.3029 -17.2471 -17.2048
   -17.1565 -17.0580 -16.9134 -16.7876 -16.7131 -16.5522 -16.3213 -16.3024
   -16.0622 -15.8714 -15.7600 -15.5203 -15.3731 -15.2181 -15.0385 -14.9936
   -13.8608 -13.8021 -13.5696 -13.4120 -13.1673 -12.9401 -12.7084 -12.4557
   -12.2227 -12.0215 -11.9521 -11.9136 -11.8602 -11.7975 -11.7458 -11.7275
   -11.7119 -11.6541 -11.6199 -11.2119 -10.6833 -10.2629 -10.2284 -10.2103
   -10.0538 -10.0344  -9.8511  -9.8314  -9.5965  -9.4817  -9.4155  -9.2991
    -9.0303  -8.9219  -8.9056  -8.7100  -8.4459  -8.4030  -8.3399  -8.3319
    -8.2666  -8.1673  -8.0680  -8.0315  -8.0237  -7.8572  -7.8092  -7.7411
    -7.6548  -7.6463  -7.4467  -7.4214  -7.4011  -7.2756  -7.2262  -7.1222
    -7.1045  -6.8394  -6.8102  -6.7059  -6.5466  -6.4661  -6.2819  -6.2677
    -6.0883  -6.0387  -5.9127  -5.8101  -5.6849  -5.6774  -5.5985  -5.5149
    -5.4682  -5.3701  -5.2608  -5.2519  -5.1120  -4.9665  -4.9217  -4.8594
    -4.8593  -4.8230  -4.7626  -4.6368  -4.4724  -4.3754  -4.2738  -4.0590
    -3.9258  -3.8115  -3.5495  -3.5120  -3.2844  -3.1562  -3.0373  -2.9064
    -2.8530  -2.7986   0.3529   0.4016   0.4854   0.6346   0.7410   1.0022
     1.0627   1.3831   1.4722   1.6865   1.9468   1.9996   2.1574   2.3161
     2.3426   2.4313   2.4630   2.4949   2.5078   2.5559   2.5759   2.5799
     2.5893   2.6669   2.8337   2.9805   3.1789   3.2165   3.4303   3.7283
     3.7415   3.7860   3.9264   3.9925   4.0395   4.0888   4.1951   4.2796
     4.2913   4.4671   4.4790   4.5619   4.5987   4.7365   4.9000   4.9855
     5.0331   5.1038   5.2831   5.3421   5.3612   5.3855   5.4204   5.4364
     5.5727   5.5729   5.7388   5.7705   5.8720   6.0189   6.0914   6.1593
     6.1753   6.1796   6.2381   6.4046   6.4246   6.4880   6.5276   6.6343
     6.6813   6.7720   6.7820   6.7857   6.8249   6.8540   6.9320   6.9404
     6.9750   6.9835   7.0235   7.0598   7.0714   7.1522   7.1540   7.1814
     7.2305   7.2373   7.2857   7.3396   7.3496   7.3759   7.3965   7.4293
     7.4486   7.4616   7.5158   7.5351   7.5457   7.5679   7.6071   7.6291
     7.6480   7.6694   7.7584   7.7941   7.8836   7.9283   7.9307   8.0125
     8.0634   8.0790   8.1904   8.1931   8.2243   8.2477   8.2783   8.2945
     8.3023   8.3760   8.3992   8.4372   8.4778   8.4941   8.5302   8.5503
     8.5932   8.6317   8.6520   8.6566   8.6601   8.7057   8.7692   8.7793
     8.8048   8.8684   8.8714   8.9059   8.9182   8.9767   8.9809   8.9918
     9.0690   9.0813   9.1295   9.1417   9.2117   9.2456   9.2927   9.3757
     9.4031   9.4548   9.4829   9.4948   9.5166   9.5460   9.5948   9.6481
     9.6637   9.6821   9.6860   9.7114   9.7595   9.7920   9.8054   9.8093
     9.8122   9.8989   9.9514  10.0018  10.0579  10.0810  10.1242  10.1505
    10.1570  10.1687  10.2049  10.2887  10.2999  10.3670  10.4091  10.4258
    10.4460  10.4823  10.5206  10.5816  10.6136  10.6799  10.6818  10.6907
    10.7407  10.7645  10.7880  10.8421  10.8449  10.8923  10.9661  11.0088
    11.0385  11.1732  11.2398  11.3768  11.4055  11.4144  11.4301  11.4790
    11.5984  11.6714  11.6741  11.7685  11.7717  11.7881  11.8371  11.8730
    11.8911  11.9615  11.9880  11.9980  11.9994  12.0071  12.0115  12.0317
    12.0489  12.0951  12.1265  12.1646  12.1720  12.1854  12.2514  12.2650
    12.2948  12.3017  12.3054  12.3352  12.3527  12.3720  12.3856  12.4087
    12.4243  12.4276  12.4659  12.5129  12.5299  12.5762  12.6092  12.6450
    12.6956  12.7016  12.7678  12.7773  12.7933  12.8507  12.8840  12.9076
    12.9333  12.9425  12.9524  12.9717  13.0677  13.0917  13.0977  13.1128
    13.1467  13.1539  13.1828  13.2024  13.3070  13.3272  13.3344  13.3752
    13.3897  13.3904  13.4225  13.4378  13.5364  13.5998  13.6413  13.6419
    13.6687  13.7251  13.7571  13.7700  13.7811  13.8023  13.8472  13.9458
    13.9656  14.0270  14.0548  14.0631  14.1406  14.1695  14.2583  14.2943
    14.3188  14.4012  14.4663  14.4812  14.5838  14.5856  14.5993  14.6299
    14.6897  14.7184  14.8399  14.8652  15.0161  15.0297  15.0630  15.1200
    15.1420  15.2105  15.2474  15.2593  15.3562  15.3566  15.3679  15.3752
    15.3985  15.4324  15.4973  15.4992  15.5018  15.5394  15.5408  15.6126
    15.6675  15.6863  15.6997  15.7031  15.7392  15.7532  15.7579  15.7735
    15.8008  15.8530  15.8552  15.9165  15.9320  15.9459  15.9468  15.9674
    16.0131  16.0340  16.0514  16.1108  16.1166  16.1312  16.1448  16.1822
    16.2368  16.2715  16.3425  16.3492  16.3756  16.3758  16.3763  16.4113
    16.4393  16.5108  16.5249  16.5916  16.6287  16.6390  16.6825  16.7029
    16.7123  16.7621  16.7953  16.8043

          k = 0.0000 0.0000 0.0610 ( 61696 PWs)   bands (ev):

   -20.2485 -20.1911 -20.1060 -19.9907 -19.8418 -19.6610 -19.4504 -19.2099
   -18.9390 -18.6376 -18.3017 -17.9388 -17.5534 -17.4713 -17.4145 -17.3361
   -17.2235 -17.1516 -17.0679 -16.9165 -16.7115 -16.7023 -16.4773 -16.2902
   -16.1880 -15.9687 -15.7777 -15.6593 -15.3600 -15.3521 -15.0960 -15.0672
   -13.9323 -13.8325 -13.6531 -13.4300 -13.2412 -12.9644 -12.7625 -12.4734
   -12.2660 -11.9829 -11.7992 -11.6991 -11.6629 -11.6119 -11.5989 -11.5479
   -11.4858 -11.4389 -11.4355 -11.3242 -10.8079 -10.2736 -10.0944 -10.0397
    -9.9598  -9.8623  -9.7991  -9.6445  -9.5804  -9.3940  -9.3527  -9.1444
    -9.0147  -8.8975  -8.8281  -8.5673  -8.4613  -8.3928  -8.2615  -8.2595
    -8.1964  -8.0971  -7.9724  -7.9691  -7.9616  -7.8944  -7.7876  -7.6552
    -7.6189  -7.5771  -7.4187  -7.3576  -7.3325  -7.3105  -7.2198  -7.0710
    -7.0544  -6.8693  -6.7856  -6.7433  -6.5574  -6.4005  -6.4003  -6.3162
    -6.0991  -6.0538  -6.0247  -5.9028  -5.8196  -5.7335  -5.6867  -5.6239
    -5.6114  -5.5019  -5.3764  -5.2223  -5.2041  -5.0962  -5.0680  -5.0336
    -4.9577  -4.9402  -4.8109  -4.7701  -4.6450  -4.4559  -4.3247  -4.2309
    -3.9836  -3.8983  -3.7185  -3.5094  -3.4421  -3.2121  -3.1561  -3.0054
    -2.9494  -2.9011   0.4246   0.4248   0.5986   0.6114   0.8847   0.9456
     1.2261   1.3863   1.5694   1.8777   1.9092   2.1594   2.3828   2.4220
     2.4645   2.5422   2.5553   2.5757   2.6695   2.6773   2.7478   2.7619
     2.8135   2.8401   2.9143   3.0615   3.0637   3.2972   3.5113   3.6758
     3.8087   3.8204   4.0054   4.0735   4.1142   4.1682   4.2750   4.3343
     4.3712   4.3757   4.5588   4.6431   4.6786   4.8163   4.9516   5.0077
     5.0631   5.1108   5.3627   5.4202   5.4217   5.4399   5.4997   5.5056
     5.6466   5.6516   5.6809   5.8454   5.8724   6.0545   6.0743   6.1443
     6.2200   6.2384   6.2394   6.3056   6.3926   6.4519   6.4804   6.5584
     6.5963   6.6387   6.7328   6.7424   6.8064   6.8285   6.8622   6.8780
     6.9052   6.9187   6.9387   6.9461   7.0102   7.0891   7.0943   7.1204
     7.1354   7.1916   7.2745   7.2912   7.3393   7.3463   7.3780   7.3833
     7.3904   7.4361   7.4771   7.4899   7.5056   7.5506   7.5784   7.6140
     7.6149   7.6757   7.7024   7.7155   7.7638   7.7742   7.8887   7.9090
     7.9631   7.9751   7.9962   8.0068   8.0792   8.0946   8.1036   8.1526
     8.2057   8.2859   8.3221   8.3691   8.3734   8.4445   8.4590   8.4747
     8.5019   8.5268   8.5303   8.6213   8.6228   8.7035   8.7104   8.7357
     8.7559   8.8119   8.8487   8.8612   8.8884   8.9392   8.9455   8.9554
     8.9755   9.0365   9.0536   9.0656   9.0857   9.1312   9.1573   9.2135
     9.2352   9.2824   9.3207   9.3320   9.4047   9.4197   9.4937   9.5535
     9.5768   9.6232   9.6344   9.6720   9.6993   9.7339   9.7421   9.7615
     9.8351   9.8727   9.8728   9.9367  10.0263  10.0611  10.0642  10.0764
    10.1041  10.1334  10.1450  10.2276  10.2458  10.2463  10.3614  10.3754
    10.4224  10.4845  10.5169  10.5365  10.5886  10.6298  10.6299  10.7118
    10.7401  10.7592  10.7783  10.8271  10.8419  10.8865  10.8954  10.9692
    11.0599  11.0765  11.0914  11.2185  11.2349  11.3190  11.4261  11.4855
    11.5334  11.6497  11.6645  11.7078  11.7551  11.7798  11.8433  11.8955
    11.9102  11.9230  11.9691  12.0077  12.0319  12.0319  12.0559  12.0776
    12.0879  12.0881  12.1292  12.1429  12.1511  12.1833  12.2077  12.2378
    12.2550  12.2705  12.2744  12.3669  12.3852  12.3893  12.3985  12.4174
    12.4303  12.4614  12.5117  12.5210  12.5306  12.5744  12.5930  12.6131
    12.6593  12.7309  12.7567  12.7589  12.7864  12.8566  12.8856  12.9019
    12.9426  12.9735  12.9820  13.0363  13.0492  13.1113  13.1127  13.1484
    13.1554  13.1771  13.2178  13.2364  13.2405  13.2878  13.2918  13.3036
    13.3460  13.4322  13.4478  13.5139  13.5199  13.5662  13.5908  13.6439
    13.7351  13.7693  13.8122  13.8977  13.9420  13.9688  14.0168  14.0217
    14.0261  14.0334  14.0704  14.0811  14.2025  14.2072  14.2305  14.2859
    14.3678  14.4036  14.4310  14.4856  14.5235  14.5740  14.5949  14.6196
    14.6564  14.7350  14.7541  14.9027  14.9884  15.0367  15.0903  15.1014
    15.1472  15.2157  15.2668  15.2952  15.3655  15.4008  15.4502  15.4549
    15.4682  15.5211  15.5340  15.5413  15.5692  15.5837  15.5852  15.6026
    15.6046  15.6210  15.6558  15.6573  15.6943  15.7573  15.7700  15.7855
    15.7908  15.8680  15.8762  15.9082  15.9557  15.9616  15.9825  16.0066
    16.0490  16.0604  16.0952  16.1046  16.1111  16.1345  16.1600  16.1883
    16.2209  16.2292  16.4034  16.4165  16.4185  16.4324  16.4701  16.4704
    16.5263  16.5443  16.5980  16.6358  16.6385  16.6722  16.7092  16.7337
    16.7725  16.7801  16.8215  16.8493

          k = 0.0000 0.0000 0.0657 ( 61712 PWs)   bands (ev):

   -20.1848 -20.1274 -20.0424 -19.9272 -19.7785 -19.5979 -19.3875 -19.1473
   -18.8767 -18.5759 -18.2407 -17.8793 -17.6360 -17.5829 -17.4987 -17.4960
   -17.3820 -17.2517 -17.0777 -17.0738 -16.8663 -16.6902 -16.5956 -16.4013
   -16.1831 -16.1134 -15.8031 -15.7450 -15.4856 -15.3467 -15.2005 -15.1081
   -13.9843 -13.8943 -13.6838 -13.5121 -13.2410 -13.0609 -12.7391 -12.5722
   -12.2268 -12.0599 -11.7551 -11.5514 -11.4435 -11.4074 -11.3725 -11.3623
   -11.3048 -11.2619 -11.2434 -11.2088 -10.9271 -10.3860  -9.9318  -9.8670
    -9.8220  -9.8064  -9.6682  -9.5553  -9.4558  -9.3268  -9.2167  -9.1029
    -8.9524  -8.8338  -8.7025  -8.5455  -8.4310  -8.3406  -8.1857  -8.1392
[...]
     3.4080   3.5217   3.5932   3.6349   3.6418   3.6772   3.7654   3.9252
     4.0613   4.0802   4.1962   4.2890   4.3692   4.4212   4.4228   4.5357
     4.5595   4.6350   4.7144   4.7320   4.7353   4.8300   4.8385   4.8996
     4.9320   5.0493   5.0967   5.0987   5.1250   5.1729   5.1967   5.2271
     5.2727   5.2790   5.2829   5.3355   5.3803   5.3842   5.5015   5.5848
     5.6674   5.6679   5.6821   5.7247   5.7906   5.8595   6.0058   6.0065
     6.0652   6.1021   6.1046   6.1200   6.1940   6.2127   6.3230   6.3311
     6.3401   6.3619   6.4184   6.4250   6.4275   6.4400   6.4994   6.5022
     6.5189   6.5230   6.5293   6.5576   6.5698   6.5956   6.6332   6.6345
     6.6427   6.6888   6.7362   6.7417   6.7798   6.8536   6.8696   6.8888
     6.9129   6.9158   6.9402   6.9978   7.0061   7.0218   7.0679   7.1197
     7.1213   7.1259   7.1692   7.2159   7.2280   7.2389   7.2511   7.3943
     7.3948   7.4045   7.4238   7.4374   7.4647   7.4683   7.4784   7.4881
     7.5158   7.5496   7.6112   7.6420   7.6941   7.7163   7.7947   7.7970
     7.8585   7.8609   7.9488   7.9554   7.9936   8.0250   8.0422   8.1239
     8.1242   8.1655   8.2012   8.2169   8.2634   8.2775   8.3203   8.3379
     8.4407   8.4605   8.4787   8.4908   8.5458   8.6541   8.6675   8.7457
     8.7647   8.7718   8.7747   8.8548   8.8660   9.0213   9.0903   9.1093
     9.1626   9.2328   9.2716   9.2919   9.3812   9.3833   9.4734   9.5138
     9.5881   9.6027   9.6132   9.6348   9.7020   9.7470   9.7816   9.9943
    10.0042  10.0422  10.0759  10.1826  10.2297  10.3059  10.3204  10.3225
    10.3689  10.5182  10.5404  10.5672  10.5718  10.6658  10.6954  10.7076
    10.7344  10.8150  10.8370  10.8401  10.8404  10.8824  10.9335  10.9804
    10.9827  11.0057  11.0106  11.0552  11.1102  11.1575  11.1846  11.2516
    11.2720  11.3200  11.4112  11.4394  11.4850  11.5240  11.5580  11.6248
    11.6481  11.6998  11.7502  11.7562  11.7764  11.8171  11.8308  11.8410
    11.8584  11.8640  11.8833  11.8851  11.8957  11.9544  11.9862  11.9950
    12.0331  12.0487  12.1339  12.1498  12.2443  12.2705  12.3062  12.3081
    12.4482  12.4726  12.5265  12.5827  12.6355  12.6528  12.6634  12.7929
    12.7939  12.8030  12.8112  12.8161  12.8396  12.8730  12.8812  12.9055
    12.9301  12.9346  12.9411  12.9731  12.9818  13.0084  13.0493  13.0581
    13.0837  13.1641  13.1672  13.2067  13.2253  13.2523  13.3702  13.4366
    13.4486  13.5132  13.5590  13.5687  13.7568  13.7703  13.8031  13.8075
    13.8301  13.8345  13.8642  13.8701  13.9097  13.9289  13.9732  13.9944
    14.0662  14.0794  14.1390  14.1737  14.2269  14.2364  14.2402  14.2572
    14.3031  14.4132  14.4333  14.5251  14.6953  14.7215  14.7531  14.7623
    14.8240  14.8857  14.9194  14.9379  14.9609  14.9729  15.0071  15.0432
    15.0730  15.0894  15.0929  15.1199  15.1513  15.1888  15.1897  15.2282
    15.2889  15.3175  15.3674  15.3715  15.3964  15.4242  15.4686  15.4774
    15.5092  15.5355  15.6166  15.6179  15.6738  15.7412  15.7503  15.7844
    15.8514  15.8783  15.8844  15.9604  15.9831  15.9915  16.0691  16.1107
    16.1276  16.1402  16.1473  16.1904  16.2237  16.2914  16.3879  16.4284
    16.4690  16.5295  16.5554  16.5892  16.6556  16.6932  16.6976  16.7388
    16.7580  16.8006  16.8235  16.8336  16.8620  16.9561  16.9702  17.1383
    17.1544  17.1575  17.1964  17.2064

          k = 0.0000 0.0000 0.1080 ( 61694 PWs)   bands (ev):

   -19.4032 -19.3464 -19.2626 -19.1492 -19.0031 -18.9376 -18.8813 -18.8281
   -18.7962 -18.6894 -18.6169 -18.5437 -18.3808 -18.3639 -18.1541 -18.1158
   -17.9142 -17.8217 -17.6442 -17.4959 -17.3435 -17.1461 -17.0088 -16.7770
   -16.6477 -16.3925 -16.2676 -16.0036 -15.8839 -15.6451 -15.5447 -15.4262
   -14.2761 -14.1796 -13.9647 -13.7601 -13.5197 -13.2670 -13.0088 -12.7367
   -12.4633 -12.1816 -11.8980 -11.6106 -11.3213 -11.0344 -10.7477 -10.4664
   -10.1928  -9.9240  -9.6786  -9.4681  -9.2240  -9.2009  -9.0958  -9.0839
    -9.0702  -9.0652  -8.7834  -8.4405  -8.2304  -8.1730  -8.1538  -8.1144
    -8.1064  -8.0649  -8.0428  -8.0386  -8.0088  -7.9792  -7.8926  -7.8171
    -7.7948  -7.7207  -7.6420  -7.5780  -7.5210  -7.5209  -7.4774  -7.4551
    -7.4453  -7.4394  -7.4299  -7.4286  -7.3795  -7.3517  -7.2625  -7.1986
    -7.1820  -7.1314  -7.1016  -7.0918  -7.0897  -6.9693  -6.9131  -6.8213
    -6.8000  -6.7214  -6.6583  -6.6210  -6.5967  -6.5738  -6.5619  -6.4332
    -6.4260  -6.3591  -6.3585  -6.2661  -6.1551  -6.0919  -6.0637  -6.0245
    -5.8299  -5.7961  -5.5668  -5.4745  -5.2770  -5.1288  -4.9646  -4.7716
    -4.6338  -4.4154  -4.3008  -4.0774  -3.9840  -3.7845  -3.7109  -3.5735
    -3.5211  -3.4731   0.6140   0.6818   0.7385   0.9454   1.0034   1.3336
     1.3868   1.8027   1.8505   2.3155   2.3672   2.8409   2.9179   3.3495
     3.4822   3.5444   3.6548   3.7383   3.8198   3.8279   3.9102   4.0333
     4.0631   4.1893   4.2200   4.2630   4.2837   4.3827   4.4616   4.4632
     4.5554   4.5584   4.6370   4.6785   4.7116   4.8720   4.9481   4.9723
     4.9726   5.0419   5.1055   5.1522   5.2421   5.2887   5.2964   5.3242
     5.3534   5.3784   5.4550   5.4812   5.4938   5.5002   5.5303   5.5311
     5.6086   5.6153   5.7355   5.8086   5.8137   5.8278   5.8872   5.9238
     5.9795   6.0474   6.0612   6.1372   6.1437   6.1659   6.1729   6.2353
     6.2613   6.2827   6.3583   6.4078   6.4087   6.4592   6.4619   6.4911
     6.4950   6.4970   6.5050   6.5594   6.5794   6.5842   6.6365   6.6398
     6.6570   6.6719   6.6882   6.6939   6.7318   6.7821   6.7869   6.8165
     6.8529   6.8562   6.9032   6.9038   6.9226   6.9993   7.1127   7.1130
     7.1336   7.1358   7.1999   7.2473   7.2526   7.2685   7.2710   7.3056
     7.3079   7.3180   7.3602   7.3668   7.4116   7.4129   7.4398   7.4590
     7.4849   7.5377   7.6007   7.6266   7.6844   7.7068   7.7240   7.7417
     7.8553   7.8703   7.8737   7.9412   7.9618   7.9823   7.9986   8.0544
     8.1025   8.1146   8.2074   8.2140   8.2375   8.3021   8.3463   8.3596
     8.4180   8.4391   8.4963   8.4999   8.5827   8.5942   8.6235   8.7056
     8.7422   8.7989   8.8227   8.8653   8.8841   8.9108   8.9942   9.0880
     9.1175   9.1185   9.2091   9.2540   9.3463   9.3607   9.4390   9.4767
     9.5278   9.5339   9.5535   9.7333   9.7407   9.7698   9.8848   9.9229
    10.0913  10.1267  10.1288  10.1503  10.1601  10.1791  10.3009  10.3656
    10.3832  10.4456  10.4575  10.5404  10.5869  10.6718  10.6782  10.7652
    10.7699  10.7916  10.8348  10.8470  10.9389  10.9681  10.9774  11.0205
    11.0564  11.0853  11.0886  11.1383  11.1406  11.1817  11.2821  11.2825
    11.3479  11.3506  11.4003  11.4384  11.4893  11.4957  11.5515  11.5885
    11.6161  11.6199  11.6539  11.6669  11.7018  11.7031  11.7281  11.7430
    11.8307  11.8833  11.9086  11.9217  11.9451  11.9700  12.0085  12.0321
    12.0665  12.0889  12.0897  12.1354  12.1540  12.2424  12.2923  12.3680
    12.4274  12.4742  12.4940  12.5064  12.5322  12.5345  12.6086  12.6271
    12.6593  12.6626  12.7006  12.7868  12.8150  12.8471  12.9363  12.9465
    12.9964  12.9984  13.0218  13.0478  13.0812  13.0857  13.1019  13.1329
    13.1709  13.1957  13.1974  13.2248  13.2444  13.3138  13.4491  13.4793
    13.5006  13.5007  13.5339  13.5898  13.6403  13.6408  13.6748  13.7025
    13.7333  13.7771  13.8078  13.8565  13.8860  13.9150  13.9615  13.9836
    14.0046  14.0955  14.1230  14.1880  14.2135  14.2271  14.2731  14.3130
    14.3334  14.3880  14.5531  14.5597  14.6491  14.6552  14.7759  14.8007
    14.8293  14.8481  14.9155  14.9692  14.9865  14.9874  15.0124  15.0236
    15.0474  15.0995  15.1010  15.1045  15.1453  15.2073  15.2163  15.2591
    15.2699  15.2761  15.3909  15.4210  15.4579  15.4583  15.4641  15.5224
    15.5416  15.6274  15.6298  15.6389  15.6957  15.7675  15.7901  15.8025
    15.8159  15.8536  15.8858  15.9706  15.9997  16.0506  16.1009  16.1021
    16.1234  16.1384  16.1401  16.2683  16.2836  16.2993  16.3928  16.3996
    16.4793  16.5039  16.5321  16.5344  16.5925  16.6241  16.6747  16.6754
    16.8192  16.8656  16.8673  16.8901  16.9054  16.9107  16.9430  16.9999
    17.0521  17.0864  17.1074  17.1530

          k = 0.0000 0.0000 0.1127 ( 61704 PWs)   bands (ev):

   -19.2935 -19.2369 -19.1533 -19.0608 -19.0403 -19.0044 -18.9212 -18.8951
   -18.8080 -18.7217 -18.6589 -18.5284 -18.4672 -18.3102 -18.2396 -18.0668
   -17.9778 -17.7960 -17.6842 -17.4966 -17.3569 -17.1671 -17.0020 -16.8138
   -16.6252 -16.4412 -16.2337 -16.0586 -15.8458 -15.6951 -15.5202 -15.4464
   -14.2706 -14.2114 -13.9344 -13.8130 -13.4748 -13.3285 -12.9571 -12.8017
   -12.4081 -12.2483 -11.8402 -11.6775 -11.2619 -11.0977 -10.6889 -10.5231
   -10.1341  -9.9628  -9.6238  -9.4419  -9.2027  -9.0320  -8.8994  -8.8716
    -8.8242  -8.8107  -8.8086  -8.6041  -8.4219  -8.3349  -8.2989  -8.2913
    -7.9789  -7.9724  -7.9402  -7.8917  -7.8794  -7.8256  -7.7605  -7.7074
    -7.6944  -7.6407  -7.6055  -7.6031  -7.5933  -7.5933  -7.5699  -7.5612
    -7.5485  -7.5375  -7.5345  -7.5308  -7.4953  -7.4306  -7.2609  -7.1480
    -7.1370  -7.1343  -7.1235  -7.0706  -6.9739  -6.9445  -6.8637  -6.8421
    -6.8083  -6.8004  -6.7042  -6.6736  -6.6499  -6.5731  -6.5195  -6.4717
    -6.4236  -6.4042  -6.3348  -6.2546  -6.2435  -6.1946  -6.1278  -5.9923
    -5.9454  -5.7211  -5.6581  -5.4268  -5.3413  -5.1105  -5.0002  -4.7757
    -4.6482  -4.4369  -4.2995  -4.1100  -3.9740  -3.8192  -3.7023  -3.6002
    -3.5237  -3.4884   0.6230   0.6633   0.7741   0.8919   1.0714   1.2532
     1.4794   1.7070   1.9575   2.2188   2.4754   2.7639   3.0080   3.3205
     3.5266   3.6821   3.7800   3.8622   3.8896   3.9606   4.0175   4.0446
     4.0584   4.1317   4.2120   4.2284   4.2935   4.3766   4.3802   4.3851
     4.4671   4.5436   4.6114   4.7017   4.8298   4.8391   4.8658   4.9300
     5.1146   5.1190   5.1557   5.1707   5.2655   5.3466   5.3930   5.4106
     5.4359   5.4478   5.4559   5.5433   5.5589   5.5958   5.6289   5.6491
     5.6692   5.6830   5.6918   5.7174   5.7591   5.8710   5.9110   5.9651
     5.9734   6.0032   6.0080   6.0314   6.0533   6.0880   6.1210   6.1749
     6.2773   6.2826   6.2907   6.3049   6.3824   6.3832   6.3929   6.3964
     6.3968   6.4492   6.4810   6.4928   6.4951   6.6038   6.6222   6.6310
     6.6496   6.6822   6.6897   6.7315   6.7691   6.7806   6.8195   6.8363
     6.8476   6.8484   6.8823   6.9581   6.9710   7.0175   7.0443   7.0708
     7.1168   7.1237   7.1390   7.1564   7.1694   7.1866   7.1971   7.2758
     7.2962   7.3020   7.3887   7.4024   7.4051   7.4344   7.4388   7.5077
     7.5118   7.5395   7.5438   7.5921   7.7108   7.7279   7.7283   7.7483
     7.7602   7.8033   7.8070   7.8364   7.8948   7.9197   8.0537   8.0873
     8.1020   8.1400   8.1940   8.2184   8.2232   8.2459   8.3227   8.3845
     8.4155   8.4401   8.4774   8.5486   8.5642   8.6130   8.6504   8.6723
     8.7248   8.8066   8.8539   8.8564   8.9163   8.9497   8.9695   9.0103
     9.0268   9.1065   9.1594   9.2041   9.2791   9.2872   9.3247   9.4094
     9.4320   9.6539   9.6750   9.7369   9.8374   9.8406   9.8736   9.9749
    10.0000  10.0631  10.0778  10.1256  10.1833  10.2880  10.2983  10.2987
    10.3930  10.4409  10.4680  10.5027  10.5760  10.5788  10.5985  10.6995
    10.8064  10.8124  10.8860  10.9479  10.9582  11.0359  11.0651  11.0672
    11.1183  11.1631  11.1778  11.2173  11.2438  11.2730  11.2734  11.2746
    11.3247  11.3335  11.4096  11.4288  11.4628  11.4761  11.4836  11.4846
    11.5222  11.5477  11.5607  11.5959  11.6705  11.6849  11.7647  11.7706
    11.7767  11.8222  11.9233  11.9851  12.0097  12.0142  12.0604  12.0751
    12.1528  12.1671  12.1727  12.2075  12.2092  12.2285  12.2333  12.2457
    12.3419  12.4105  12.4430  12.4454  12.4758  12.4771  12.4956  12.5173
    12.5730  12.6021  12.6061  12.7003  12.7632  12.7742  12.8152  12.8912
    13.0083  13.0568  13.1339  13.1768  13.1953  13.1972  13.2052  13.2389
    13.2649  13.2741  13.2962  13.3057  13.3390  13.4032  13.4152  13.4259
    13.4572  13.4584  13.4827  13.5403  13.5471  13.5500  13.6286  13.6420
    13.6506  13.6933  13.7580  13.7931  13.8598  13.8743  13.9469  13.9583
    14.0071  14.1039  14.1385  14.1997  14.2053  14.2260  14.3284  14.3959
    14.4223  14.4465  14.5286  14.5506  14.6079  14.6976  14.7204  14.7715
    14.8534  14.8540  14.8728  14.9422  14.9594  14.9849  15.0050  15.0249
    15.0483  15.0823  15.1117  15.1589  15.1639  15.2102  15.2300  15.2537
    15.2923  15.3024  15.4149  15.4704  15.4729  15.4847  15.4931  15.5098
    15.6076  15.6138  15.6197  15.6877  15.7063  15.7884  15.8113  15.8235
    15.8304  15.8516  15.9105  15.9213  15.9608  15.9814  16.0809  16.1143
    16.1749  16.1950  16.2341  16.2510  16.3062  16.3343  16.3627  16.3893
    16.4118  16.4688  16.5376  16.5718  16.6073  16.6303  16.6977  16.7346
    16.7490  16.8375  16.8424  16.8762  16.9066  16.9137  16.9446  16.9767
    17.0069  17.0628  17.0639  17.0853

          k = 0.0000 0.0000-0.1174 ( 61740 PWs)   bands (ev):

   -19.1793 -19.1793 -19.1229 -19.1229 -19.0396 -19.0396 -18.9269 -18.9269
   -18.7817 -18.7817 -18.6052 -18.6052 -18.3969 -18.3968 -18.1590 -18.1589
   -17.8913 -17.8913 -17.5943 -17.5942 -17.2648 -17.2648 -16.9103 -16.9103
   -16.5354 -16.5354 -16.1479 -16.1478 -15.7707 -15.7707 -15.4797 -15.4796
   -14.2467 -14.2467 -13.8780 -13.8779 -13.4044 -13.4044 -12.8816 -12.8815
   -12.3301 -12.3301 -11.7604 -11.7604 -11.1808 -11.1807 -10.6064 -10.6063
   -10.0473 -10.0473  -9.5270  -9.5270  -9.0867  -9.0866  -8.7903  -8.7903
    -8.6392  -8.6392  -8.5764  -8.5764  -8.5538  -8.5537  -8.5491  -8.5490
    -7.8065  -7.8065  -7.7839  -7.7838  -7.7707  -7.7706  -7.7262  -7.7262
    -7.7089  -7.7088  -7.6790  -7.6789  -7.6427  -7.6427  -7.6042  -7.6041
    -7.5762  -7.5761  -7.5623  -7.5623  -7.5088  -7.5088  -7.2129  -7.2129
    -7.1511  -7.1507  -7.0013  -7.0013  -6.9379  -6.9379  -6.8801  -6.8800
    -6.8415  -6.8415  -6.7101  -6.7101  -6.5828  -6.5828  -6.5421  -6.5421
    -6.3603  -6.3601  -6.3398  -6.3398  -6.2277  -6.2277  -6.1047  -6.1047
    -5.8396  -5.8395  -5.5465  -5.5465  -5.2292  -5.2291  -4.8905  -4.8904
    -4.5446  -4.5445  -4.2062  -4.2062  -3.8972  -3.8971  -3.6508  -3.6507
    -3.5061  -3.5061   0.6399   0.6400   0.8293   0.8294   1.1599   1.1599
     1.5918   1.5919   2.0875   2.0875   2.6196   2.6196   3.1646   3.1647
     3.6954   3.6954   3.8022   3.8022   4.0005   4.0006   4.0491   4.0491
     4.1332   4.1332   4.1988   4.1988   4.2218   4.2218   4.3816   4.3816
     4.5373   4.5373   4.6610   4.6610   4.7677   4.7677   4.9885   4.9885
     5.0597   5.0597   5.2412   5.2412   5.3005   5.3005   5.3859   5.3859
     5.5200   5.5200   5.5524   5.5524   5.5730   5.5730   5.6112   5.6113
     5.7166   5.7166   5.7497   5.7498   5.8329   5.8329   5.8425   5.8425
     5.9991   5.9991   6.0915   6.0915   6.1252   6.1252   6.1292   6.1293
     6.1673   6.1674   6.2395   6.2395   6.2688   6.2689   6.3948   6.3949
     6.4438   6.4438   6.4827   6.4827   6.5336   6.5336   6.5662   6.5663
     6.6422   6.6422   6.7611   6.7611   6.8132   6.8132   6.8499   6.8499
     6.9272   6.9272   6.9426   6.9426   6.9801   6.9801   7.0034   7.0035
     7.0676   7.0676   7.1073   7.1073   7.1703   7.1703   7.1828   7.1828
     7.3019   7.3019   7.4101   7.4102   7.4604   7.4605   7.4771   7.4771
     7.5553   7.5553   7.5812   7.5812   7.6550   7.6550   7.6896   7.6896
     7.7895   7.7895   7.8376   7.8376   7.9085   7.9085   8.0028   8.0028
     8.1433   8.1433   8.2208   8.2208   8.2873   8.2873   8.2969   8.2970
     8.3958   8.3958   8.5331   8.5332   8.5867   8.5869   8.7282   8.7283
     8.7611   8.7611   8.8127   8.8127   8.8793   8.8793   9.0500   9.0502
     9.1215   9.1215   9.1433   9.1433   9.1747   9.1747   9.3266   9.3266
     9.5555   9.5555   9.8249   9.8249   9.8279   9.8279   9.8864   9.8864
    10.0482  10.0482  10.0506  10.0506  10.2210  10.2210  10.3585  10.3585
    10.4415  10.4415  10.4466  10.4466  10.5192  10.5194  10.6402  10.6402
    10.8140  10.8140  10.9740  10.9740  11.0080  11.0080  11.0781  11.0781
    11.1642  11.1642  11.2570  11.2571  11.2771  11.2771  11.3026  11.3026
    11.3482  11.3482  11.3946  11.3946  11.4167  11.4167  11.4566  11.4567
    11.4874  11.4875  11.5454  11.5454  11.6378  11.6378  11.7942  11.7942
    11.8250  11.8250  11.9367  11.9367  12.0295  12.0297  12.1427  12.1427
    12.1938  12.1938  12.2463  12.2463  12.2806  12.2806  12.2959  12.2959
    12.3130  12.3130  12.3276  12.3276  12.3805  12.3805  12.4102  12.4102
    12.5865  12.5865  12.6367  12.6367  12.7675  12.7675  12.7942  12.7942
    13.0541  13.0541  13.2647  13.2648  13.2702  13.2703  13.3020  13.3020
    13.3182  13.3182  13.3244  13.3244  13.3478  13.3478  13.3864  13.3864
    13.4231  13.4231  13.4479  13.4479  13.4901  13.4901  13.6019  13.6019
    13.6682  13.6682  13.8069  13.8069  13.8629  13.8629  13.8669  13.8670
    14.0485  14.0485  14.2194  14.2194  14.2509  14.2509  14.3264  14.3264
    14.4635  14.4636  14.5755  14.5755  14.6618  14.6619  14.6889  14.6889
    14.8344  14.8344  14.8813  14.8814  15.0007  15.0007  15.0440  15.0441
    15.0784  15.0784  15.0926  15.0926  15.1971  15.1972  15.2512  15.2512
    15.3510  15.3510  15.3762  15.3762  15.5060  15.5060  15.5371  15.5371
    15.5792  15.5793  15.6942  15.6942  15.7809  15.7810  15.7882  15.7882
    15.7996  15.7997  15.9580  15.9580  16.0136  16.0136  16.0715  16.0715
    16.1241  16.1241  16.2645  16.2645  16.3274  16.3274  16.3991  16.3991
    16.4228  16.4228  16.5670  16.5670  16.6695  16.6695  16.7100  16.7100
    16.7863  16.7863  16.8000  16.8000  16.8956  16.8956  16.9623  16.9623
    17.0026  17.0026  17.1350  17.1351

     the Fermi energy is    -1.0994 ev

     Writing output data file A32.save/

     init_run     :      9.55s CPU      9.87s WALL (       1 calls)
     electrons    :   6794.34s CPU   6871.54s WALL (       1 calls)

     Called by init_run:
     wfcinit      :      0.00s CPU      0.00s WALL (       1 calls)
     potinit      :      0.71s CPU      0.80s WALL (       1 calls)
     hinit0       :      7.65s CPU      7.72s WALL (       1 calls)

     Called by electrons:
     c_bands      :   6794.32s CPU   6871.48s WALL (       1 calls)
     v_of_rho     :      0.53s CPU      0.56s WALL (       1 calls)
     newd         :      0.34s CPU      0.46s WALL (       1 calls)

     Called by c_bands:
     init_us_2    :      0.25s CPU      0.27s WALL (      26 calls)
     cegterg      :   6669.62s CPU   6742.46s WALL (     137 calls)

     Called by sum_band:

     Called by *egterg:
     h_psi        :   1619.99s CPU   1654.94s WALL (    2805 calls)
     s_psi        :    141.65s CPU    141.97s WALL (    2805 calls)
     g_psi        :      6.94s CPU      6.95s WALL (    2642 calls)
     cdiaghg      :   3547.10s CPU   3553.59s WALL (    2668 calls)

     Called by h_psi:
     h_psi:pot    :   1616.49s CPU   1646.65s WALL (    2805 calls)
     h_psi:calbec :    157.13s CPU    159.18s WALL (    2805 calls)
     vloc_psi     :   1317.62s CPU   1345.25s WALL (    2805 calls)
     add_vuspsi   :    141.72s CPU    142.20s WALL (    2805 calls)

     General routines
     calbec       :    157.11s CPU    159.17s WALL (    2805 calls)
     fft          :      0.67s CPU      0.72s WALL (      14 calls)
     ffts         :      0.01s CPU      0.01s WALL (       1 calls)
     fftw         :   1241.08s CPU   1268.11s WALL (  606292 calls)
     interpolate  :      0.05s CPU      0.05s WALL (       1 calls)
     davcio       :      0.00s CPU      1.06s WALL (      52 calls)

     Parallel routines
     fft_scatt_xy :    115.54s CPU    116.13s WALL (  606307 calls)
     fft_scatt_yz :    743.08s CPU    767.13s WALL (  606307 calls)

     PWSCF        :     1h53m CPU       53h 2m WALL

       1h

   This run was terminated on:  21: 2:26   8Apr2022            

=------------------------------------------------------------------------------=
   JOB DONE.
=------------------------------------------------------------------------------=
