
     Program PWSCF v.6.3 starts on  8Apr2022 at 19:10:10 

     This program is part of the open-source Quantum ESPRESSO suite
     for quantum simulation of materials; please cite
         "P. Giannozzi et al., J. Phys.:Condens. Matter 21 395502 (2009);
         "P. Giannozzi et al., J. Phys.:Condens. Matter 29 465901 (2017);
          URL http://www.quantum-espresso.org", 
     in publications or presentations arising from this work. More details at
     http://www.quantum-espresso.org/quote

     Parallel version (MPI), running on    16 processors
     R & G space division:  proc/nbgrp/npool/nimage =      16
     Waiting for input...
     Reading input from standard input
     Message from routine read_cards :
     DEPRECATED: no units specified in CELL_PARAMETERS card

     Current dimensions of program PWSCF are:
     Max number of different atomic species (ntypx) = 10
     Max number of k-points (npk) =  40000
     Max angular momentum in pseudopotentials (lmaxx) =  3

     Atomic positions and unit cell read from directory:
     /home/zfwang/scratch/GNRDATASET/AGNR/A33/A33.save/


     Subspace diagonalization in iterative solution of the eigenvalue problem:
     a serial algorithm will be used


     Parallelization info
     --------------------
     sticks:   dense  smooth     PW     G-vecs:    dense   smooth      PW
     Min        4384    1460    412               164138    31590    4730
     Max        4386    1462    413               164139    31591    4731
     Sum       70149   23379   6607              2626209   505443   75695



     bravais-lattice index     =            0
     lattice parameter (alat)  =       1.8897  a.u.
     unit-cell volume          =   14790.7971 (a.u.)^3
     number of atoms/cell      =           70
     number of atomic types    =            2
     number of electrons       =       268.00
     number of Kohn-Sham states=          500
     kinetic-energy cutoff     =      40.0000  Ry
     charge density cutoff     =     480.0000  Ry
     Exchange-correlation      = PBE ( 1  4  3  4 0 0)

     celldm(1)=  18.897261  celldm(2)=   5.145000  celldm(3)=   0.426000
     celldm(4)=   0.000000  celldm(5)=   0.000000  celldm(6)=   0.000000

     crystal axes: (cart. coord. in units of alat)
               a(1) = (  10.000000   0.000000   0.000000 )  
               a(2) = (   0.000000  51.450000   0.000000 )  
               a(3) = (   0.000000   0.000000   4.260000 )  

     reciprocal axes: (cart. coord. in units 2 pi/alat)
               b(1) = (  0.100000  0.000000  0.000000 )  
               b(2) = (  0.000000  0.019436  0.000000 )  
               b(3) = (  0.000000  0.000000  0.234742 )  


     PseudoPot. # 1 for C  read from file:
     /home/zfwang/hp_home/MySoftware/qe-6.3/pseudo/C.pbe-n-rrkjus_psl.0.1.UPF
     MD5 check sum: fff530ed632a789b3b184014e67dd7f1
     Pseudo is Ultrasoft + core correction, Zval =  4.0
     Generated using "atomic" code by A. Dal Corso v.5.0.2 svn rev. 9415
     Using radial grid of 1073 points,  4 beta functions with: 
                l(1) =   0
                l(2) =   0
                l(3) =   1
                l(4) =   1
     Q(r) pseudized with 0 coefficients 


     PseudoPot. # 2 for H  read from file:
     /home/zfwang/hp_home/MySoftware/qe-6.3/pseudo/H.pbe-rrkjus_psl.0.1.UPF
     MD5 check sum: e164a6907b691c6980f16942be34de84
     Pseudo is Ultrasoft, Zval =  1.0
     Generated using "atomic" code by A. Dal Corso v.5.0.2 svn rev. 9415
     Using radial grid of  929 points,  2 beta functions with: 
                l(1) =   0
                l(2) =   0
     Q(r) pseudized with 0 coefficients 


     atomic species   valence    mass     pseudopotential
        C              4.00    12.01070     C ( 1.00)
        H              1.00     1.00794     H ( 1.00)

     No symmetry found



   Cartesian axes

     site n.     atom                  positions (alat units)
         1           C   tau(   1) = (   5.0000004   6.0619580   2.8133483  )
         2           C   tau(   2) = (   4.9999989   7.2678443   3.5441941  )
         3           C   tau(   3) = (   5.0000005   6.0619595   1.4466491  )
         4           C   tau(   4) = (   4.9999975   8.4968973   2.8409069  )
         5           C   tau(   5) = (   4.9999970   9.7334732   3.5523191  )
         6           C   tau(   6) = (   4.9999986   7.2678420   0.7158039  )
         7           C   tau(   7) = (   4.9999973   8.4968988   1.4190921  )
         8           C   tau(   8) = (   4.9999984  10.9624612   2.8420273  )
         9           C   tau(   9) = (   5.0000000  12.1913778   3.5495325  )
        10           C   tau(  10) = (   4.9999972   9.7334726   0.7076799  )
        11           C   tau(  11) = (   4.9999986  10.9624616   1.4179720  )
        12           C   tau(  12) = (   5.0000006  13.4247413   2.8394514  )
        13           C   tau(  13) = (   5.0000006  14.6554230   3.5487327  )
        14           C   tau(  14) = (   5.0000002  12.1913773   0.7104678  )
        15           C   tau(  15) = (   5.0000009  13.4247410   1.4205494  )
        16           C   tau(  16) = (   4.9999999  15.8851282   2.8402307  )
        17           C   tau(  17) = (   4.9999995  17.1167955   3.5503413  )
        18           C   tau(  18) = (   5.0000004  14.6554236   0.7112683  )
        19           C   tau(  19) = (   5.0000000  15.8851278   1.4197704  )
        20           C   tau(  20) = (   4.9999994  18.3464827   2.8408261  )
        21           C   tau(  21) = (   4.9999988  19.5755956   3.5499268  )
        22           C   tau(  22) = (   4.9999997  17.1167961   0.7096601  )
        23           C   tau(  23) = (   4.9999992  18.3464821   1.4191746  )
        24           C   tau(  24) = (   4.9999990  20.8063910   2.8398241  )
        25           C   tau(  25) = (   4.9999994  22.0358116   3.5492774  )
        26           C   tau(  26) = (   4.9999990  19.5755964   0.7100738  )
        27           C   tau(  27) = (   4.9999991  20.8063901   1.4201776  )
        28           C   tau(  28) = (   5.0000004  23.2650247   2.8400101  )
        29           C   tau(  29) = (   5.0000015  24.4956796   3.5500681  )
        30           C   tau(  30) = (   4.9999995  22.0358119   0.7107238  )
        31           C   tau(  31) = (   5.0000003  23.2650239   1.4199907  )
        32           C   tau(  32) = (   5.0000024  25.7250123   2.8406970  )
        33           C   tau(  33) = (   5.0000026  26.9543445   3.5500682  )
        34           C   tau(  34) = (   5.0000013  24.4956800   0.7099327  )
        35           C   tau(  35) = (   5.0000021  25.7250128   1.4193043  )
        36           C   tau(  36) = (   5.0000023  28.1849968   2.8400093  )
        37           C   tau(  37) = (   5.0000014  29.4142096   3.5492763  )
        38           C   tau(  38) = (   5.0000025  26.9543436   0.7099321  )
        39           C   tau(  39) = (   5.0000026  28.1849984   1.4199904  )
        40           C   tau(  40) = (   5.0000000  30.6436256   2.8398219  )
        41           C   tau(  41) = (   4.9999988  31.8744156   3.5499262  )
        42           C   tau(  42) = (   5.0000015  29.4142086   0.7107233  )
        43           C   tau(  43) = (   5.0000001  30.6436259   1.4201782  )
        44           C   tau(  44) = (   4.9999980  33.1035273   2.8408247  )
        45           C   tau(  45) = (   4.9999972  34.3332121   3.5503405  )
        46           C   tau(  46) = (   4.9999986  31.8744155   0.7100732  )
        47           C   tau(  47) = (   4.9999979  33.1035265   1.4191746  )
        48           C   tau(  48) = (   4.9999959  35.5648775   2.8402280  )
        49           C   tau(  49) = (   4.9999957  36.7945768   3.5487343  )
        50           C   tau(  50) = (   4.9999968  34.3332128   0.7096596  )
        51           C   tau(  51) = (   4.9999960  35.5648773   1.4197723  )
        52           C   tau(  52) = (   4.9999971  38.0252528   2.8394518  )
        53           C   tau(  53) = (   5.0000000  39.2586156   3.5495307  )
        54           C   tau(  54) = (   4.9999957  36.7945765   0.7112657  )
        55           C   tau(  55) = (   4.9999970  38.0252538   1.4205486  )
        56           C   tau(  56) = (   5.0000024  40.4875294   2.8420284  )
        57           C   tau(  57) = (   5.0000031  41.7165181   3.5523177  )
        58           C   tau(  58) = (   4.9999998  39.2586144   0.7104700  )
        59           C   tau(  59) = (   5.0000026  40.4875303   1.4179727  )
        60           C   tau(  60) = (   5.0000028  42.9530915   2.8409098  )
        61           C   tau(  61) = (   5.0000026  44.1821398   3.5441947  )
        62           C   tau(  62) = (   5.0000032  41.7165176   0.7076832  )
        63           C   tau(  63) = (   5.0000033  42.9530906   1.4190910  )
        64           C   tau(  64) = (   5.0000022  45.3880231   2.8133608  )
        65           C   tau(  65) = (   5.0000030  44.1821415   0.7158062  )
        66           C   tau(  66) = (   5.0000026  45.3880220   1.4466399  )
        67           H   tau(  67) = (   5.0000014   5.1063642   3.3304448  )
        68           H   tau(  68) = (   5.0000023   5.1063639   0.9295536  )
        69           H   tau(  69) = (   5.0000017  46.3436091   3.3304438  )
        70           H   tau(  70) = (   5.0000031  46.3436100   0.9295568  )

     number of k points=    26  Marzari-Vanderbilt smearing, width (Ry)=  0.0100
                       cart. coord. in units 2pi/alat
        k(    1) = (   0.0000000   0.0000000   0.0000000), wk =   0.0400000
        k(    2) = (   0.0000000   0.0000000   0.0046948), wk =   0.0800000
        k(    3) = (   0.0000000   0.0000000   0.0093897), wk =   0.0800000
        k(    4) = (   0.0000000   0.0000000   0.0140845), wk =   0.0800000
        k(    5) = (   0.0000000   0.0000000   0.0187793), wk =   0.0800000
        k(    6) = (   0.0000000   0.0000000   0.0234742), wk =   0.0800000
        k(    7) = (   0.0000000   0.0000000   0.0281690), wk =   0.0800000
        k(    8) = (   0.0000000   0.0000000   0.0328638), wk =   0.0800000
        k(    9) = (   0.0000000   0.0000000   0.0375587), wk =   0.0800000
        k(   10) = (   0.0000000   0.0000000   0.0422535), wk =   0.0800000
        k(   11) = (   0.0000000   0.0000000   0.0469484), wk =   0.0800000
        k(   12) = (   0.0000000   0.0000000   0.0516432), wk =   0.0800000
        k(   13) = (   0.0000000   0.0000000   0.0563380), wk =   0.0800000
        k(   14) = (   0.0000000   0.0000000   0.0610329), wk =   0.0800000
        k(   15) = (   0.0000000   0.0000000   0.0657277), wk =   0.0800000
        k(   16) = (   0.0000000   0.0000000   0.0704225), wk =   0.0800000
        k(   17) = (   0.0000000   0.0000000   0.0751174), wk =   0.0800000
        k(   18) = (   0.0000000   0.0000000   0.0798122), wk =   0.0800000
        k(   19) = (   0.0000000   0.0000000   0.0845070), wk =   0.0800000
        k(   20) = (   0.0000000   0.0000000   0.0892019), wk =   0.0800000
        k(   21) = (   0.0000000   0.0000000   0.0938967), wk =   0.0800000
        k(   22) = (   0.0000000   0.0000000   0.0985915), wk =   0.0800000
        k(   23) = (   0.0000000   0.0000000   0.1032864), wk =   0.0800000
        k(   24) = (   0.0000000   0.0000000   0.1079812), wk =   0.0800000
        k(   25) = (   0.0000000   0.0000000   0.1126761), wk =   0.0800000
        k(   26) = (   0.0000000   0.0000000  -0.1173709), wk =   0.0400000

     Dense  grid:  2626209 G-vectors     FFT dimensions: ( 135, 720,  60)

     Smooth grid:   505443 G-vectors     FFT dimensions: (  80, 400,  36)

     Estimated max dynamical RAM per process >     664.87 MB

     Estimated total dynamical RAM >      10.39 GB

     The potential is recalculated from file :
     /home/zfwang/scratch/GNRDATASET/AGNR/A33/A33.save/charge-density.dat


     negative rho (up, down):  9.019E-05 0.000E+00
     Starting wfcs are  268 randomized atomic wfcs +  232 random wfcs

     Band Structure Calculation
     Davidson diagonalization with overlap
     c_bands:  1 eigenvalues not converged
     c_bands:  2 eigenvalues not converged
     c_bands:  1 eigenvalues not converged
     c_bands:  1 eigenvalues not converged
     c_bands:  1 eigenvalues not converged
     c_bands:  3 eigenvalues not converged
     c_bands:  1 eigenvalues not converged
     c_bands:  2 eigenvalues not converged
     c_bands:  1 eigenvalues not converged
     c_bands:  1 eigenvalues not converged
     c_bands:  1 eigenvalues not converged
     c_bands:  1 eigenvalues not converged

     ethr =  3.73E-09,  avg # of iterations = 91.8

     total cpu time spent up to now is     6687.3 secs

     End of band structure calculation

          k = 0.0000 0.0000 0.0000 ( 63009 PWs)   bands (ev):

   -20.6330 -20.5788 -20.4979 -20.3889 -20.2482 -20.0767 -19.8765 -19.6480
   -19.3906 -19.1041 -18.7881 -18.4377 -18.0656 -17.6687 -17.2486 -16.8073
   -16.3477 -15.8736 -15.3909 -15.3653 -15.3167 -15.2463 -15.1523 -15.0305
   -14.9088 -14.8817 -14.7083 -14.5104 -14.4444 -14.3537 -14.3073 -14.2873
   -14.2376 -14.1516 -14.0383 -14.0353 -14.0235 -13.8965 -13.7746 -13.7622
   -13.6750 -13.6311 -13.5211 -13.5155 -13.4490 -13.1187 -12.7651 -12.3887
   -11.9899 -11.6567 -11.6134 -11.5699 -11.4787 -11.3831 -11.1612 -11.1298
   -11.0840 -10.7369 -10.7344 -10.6711 -10.3516 -10.2551 -10.1952  -9.9369
    -9.7630  -9.7037  -9.4990  -9.2799  -9.1984  -9.0467  -8.8163  -8.7245
    -8.6706  -8.6625  -8.5941  -8.5678  -8.4388  -8.3863  -8.2730  -8.1520
    -8.1448  -8.0716  -8.0219  -7.8369  -7.7548  -7.7183  -7.6187  -7.5931
    -7.5694  -7.2693  -7.2630  -7.0956  -6.9371  -6.8189  -6.5815  -6.5732
    -6.3856  -6.1745  -6.0848  -5.9706  -5.7532  -5.6168  -5.5809  -5.3074
    -5.2241  -5.1903  -4.9076  -4.8405  -4.8208  -4.6377  -4.5256  -4.4199
    -4.3559  -4.3165  -4.2623  -4.1940  -4.1708  -3.8585  -3.4317  -3.3683
    -3.3536  -3.2707  -3.1372  -2.9657  -2.8478  -2.7572  -2.5136  -2.3489
    -2.2350  -1.9213  -1.8654  -1.5721  -1.4064  -1.1859  -0.9706  -0.7504
    -0.5960  -0.2958  -0.2780  -0.0176   0.1865   0.1884   0.3392   0.4480
     0.5218   0.5692   0.5966   0.6083   0.7013   1.2417   1.8078   1.8973
     2.0195   2.0442   2.1363   2.2065   2.3673   2.3975   2.5035   2.7305
     2.9308   3.0080   3.2190   3.2933   3.4145   3.4698   3.5058   3.6362
     3.6411   3.7277   3.7731   3.8204   4.0007   4.0339   4.1261   4.2165
     4.2781   4.4100   4.4966   4.5107   4.7913   4.8394   4.8945   4.8959
     4.9294   4.9433   4.9559   5.0503   5.1122   5.2865   5.4255   5.4378
     5.5429   5.5764   5.5912   5.6155   5.8075   5.9054   6.0244   6.1508
     6.2400   6.2420   6.3027   6.4091   6.4700   6.5524   6.6637   6.6998
     6.7024   6.8525   6.8803   6.9883   6.9890   7.0735   7.2230   7.2920
     7.3214   7.3289   7.3869   7.4098   7.4847   7.4960   7.4993   7.5310
     7.5801   7.6338   7.6713   7.7374   7.7795   7.8268   7.8348   7.9239
     7.9837   8.0333   8.0550   8.0902   8.1744   8.2242   8.2428   8.2524
     8.4098   8.4881   8.5130   8.6427   8.6516   8.7431   8.7787   8.8165
     8.8193   8.9137   9.0498   9.0568   9.0979   9.1296   9.1389   9.1447
     9.1759   9.2754   9.4575   9.5052   9.5636   9.5668   9.5725   9.5811
     9.5848   9.6078   9.6240   9.6437   9.6742   9.6894   9.7106   9.7335
     9.8631   9.8669   9.8753   9.9366   9.9389   9.9402   9.9442   9.9670
     9.9708  10.0026  10.0240  10.0457  10.0605  10.0624  10.1107  10.1355
    10.1687  10.1748  10.2010  10.2032  10.2070  10.2196  10.2890  10.3158
    10.3306  10.3584  10.3609  10.3734  10.4270  10.4613  10.5131  10.5255
    10.5397  10.5512  10.5538  10.5827  10.6759  10.7343  10.7461  10.7659
    10.7798  10.8337  10.9046  10.9495  10.9621  10.9843  10.9986  11.0388
    11.0671  11.0762  11.0777  11.1072  11.1319  11.1629  11.1683  11.1831
    11.1903  11.2172  11.2543  11.2595  11.3360  11.3484  11.3941  11.3956
    11.3969  11.4037  11.4474  11.5358  11.5439  11.5774  11.5971  11.6053
    11.6300  11.6404  11.6554  11.6650  11.6658  11.6708  11.6904  11.6941
    11.7014  11.7109  11.7428  11.7823  11.7862  11.8300  11.8466  11.8528
    11.8645  11.8694  11.8766  11.9092  11.9513  11.9617  11.9945  12.0023
    12.0295  12.0424  12.0586  12.0622  12.0868  12.1426  12.1455  12.1778
    12.1835  12.1873  12.2564  12.2720  12.2963  12.3302  12.3359  12.3834
    12.3907  12.3999  12.4037  12.4131  12.4166  12.4683  12.5207  12.5218
    12.5416  12.5941  12.6163  12.7358  12.7761  12.8160  12.8540  12.8739
    12.8821  12.8856  12.8953  12.9595  13.0076  13.0109  13.0204  13.0244
    13.0276  13.0439  13.0874  13.1086  13.1220  13.1918  13.2070  13.2361
    13.2694  13.4028  13.4052  13.4106  13.4352  13.4458  13.5376  13.5498
    13.5888  13.6256  13.6616  13.6678  13.6788  13.7971  13.8171  13.8498
    13.8600  13.9742  14.0185  14.0381  14.0588  14.0783  14.1576  14.2036
    14.2209  14.2241  14.2487  14.2564  14.3080  14.3194  14.3229  14.3744
    14.3848  14.4169  14.4273  14.4395  14.5061  14.5374  14.5753  14.6042
    14.6481  14.6721  14.7230  14.8225  14.8287  14.8559  14.8821  14.9526
    15.0104  15.0251  15.0695  15.0856  15.1194  15.1975  15.2411  15.2427
    15.2580  15.2840  15.3255  15.3421  15.4771  15.5075  15.5113  15.5459
    15.5666  15.6462  15.7299  15.7555  15.7840  15.8044  15.8288  15.8536
    15.8575  15.9664  15.9849  16.0111  16.0555  16.0802  16.1373  16.1419
    16.1589  16.2099  16.2206  16.2731

          k = 0.0000 0.0000 0.0047 ( 63027 PWs)   bands (ev):

   -20.6306 -20.5764 -20.4956 -20.3865 -20.2458 -20.0743 -19.8742 -19.6456
   -19.3882 -19.1018 -18.7858 -18.4354 -18.0633 -17.6664 -17.2464 -16.8051
   -16.3456 -15.8718 -15.4097 -15.3895 -15.3610 -15.2902 -15.1960 -15.0737
   -14.9279 -14.9048 -14.7515 -14.5538 -14.4458 -14.3314 -14.3058 -14.2597
   -14.1905 -14.1089 -14.0906 -14.0270 -13.9896 -13.8620 -13.8541 -13.7223
   -13.5917 -13.5872 -13.4762 -13.4690 -13.4497 -13.1347 -12.7848 -12.4094
   -12.0110 -11.6422 -11.5960 -11.5897 -11.4663 -11.3631 -11.1525 -11.1499
   -11.0627 -10.7275 -10.7176 -10.6884 -10.3325 -10.2485 -10.2126  -9.9195
    -9.7558  -9.7202  -9.4839  -9.2722  -9.2141  -9.0338  -8.8090  -8.7216
    -8.6855  -8.6597  -8.5825  -8.5650  -8.4360  -8.3806  -8.2702  -8.1592
    -8.1406  -8.0688  -8.0176  -7.8341  -7.7524  -7.7073  -7.6314  -7.5902
    -7.5666  -7.2666  -7.2524  -7.1081  -6.9344  -6.8099  -6.5934  -6.5705
    -6.3783  -6.1720  -6.0965  -5.9648  -5.7508  -5.6294  -5.5755  -5.3052
    -5.2284  -5.1944  -4.9108  -4.8384  -4.8274  -4.6423  -4.5318  -4.4262
    -4.3542  -4.3220  -4.2701  -4.1987  -4.1796  -3.8572  -3.4474  -3.3842
    -3.3531  -3.2868  -3.1537  -2.9827  -2.8486  -2.7751  -2.5327  -2.3523
    -2.2562  -1.9465  -1.8746  -1.6074  -1.4372  -1.2784  -0.8790  -0.7211
    -0.5609  -0.2886  -0.2523   0.0048   0.1891   0.2075   0.3594   0.4678
     0.5415   0.5888   0.6160   0.6277   0.6991   1.2378   1.8028   1.9005
     2.0227   2.0474   2.1395   2.2097   2.3705   2.3917   2.5067   2.7337
     2.9340   3.0016   3.2222   3.2965   3.4183   3.4731   3.5088   3.6301
     3.6443   3.7311   3.7763   3.8236   4.0040   4.0372   4.1293   4.2198
     4.2712   4.4132   4.4999   4.5140   4.7945   4.8426   4.8978   4.8991
     4.9221   4.9465   4.9591   5.0535   5.1153   5.2897   5.4286   5.4405
     5.5461   5.5790   5.5839   5.6187   5.8106   5.9085   6.0277   6.1552
     6.2329   6.2467   6.3057   6.4116   6.4718   6.5551   6.6656   6.7028
     6.7054   6.8565   6.8732   6.9912   6.9921   7.0758   7.2252   7.2989
     7.3125   7.3425   7.3855   7.4082   7.4888   7.4916   7.4924   7.5352
     7.5825   7.6232   7.6736   7.7387   7.7748   7.8305   7.8314   7.9279
     7.9662   8.0258   8.0670   8.0827   8.1711   8.2188   8.2279   8.2542
     8.4193   8.4792   8.4909   8.6347   8.6556   8.7400   8.7814   8.7878
     8.8222   8.9180   9.0536   9.0586   9.0848   9.1207   9.1367   9.1456
     9.1547   9.2746   9.4544   9.4669   9.5642   9.5717   9.5728   9.5816
     9.5889   9.6125   9.6269   9.6467   9.6799   9.6963   9.7057   9.7304
     9.7364   9.7700   9.8215   9.8613   9.8662   9.8689   9.9281   9.9327
     9.9380   9.9409   9.9797  10.0065  10.0109  10.0380  10.0595  10.0623
    10.1686  10.1948  10.2055  10.2165  10.2223  10.2819  10.3002  10.3648
    10.3650  10.3814  10.4146  10.4182  10.4561  10.4879  10.5204  10.5278
    10.5379  10.5391  10.5934  10.6369  10.6747  10.6773  10.7517  10.7817
    10.7865  10.8584  10.8628  10.9075  10.9083  11.0011  11.0070  11.0349
    11.0368  11.0460  11.0738  11.0909  11.0933  11.1230  11.1317  11.1472
    11.1698  11.2179  11.2256  11.2718  11.2898  11.3196  11.3962  11.4493
    11.4531  11.4878  11.4938  11.5249  11.5358  11.5470  11.5543  11.5877
    11.5896  11.6329  11.6668  11.6680  11.6904  11.6978  11.7078  11.7150
    11.7336  11.7853  11.7987  11.8055  11.8284  11.8514  11.8519  11.8779
    11.8804  11.8834  11.9083  11.9111  11.9530  11.9806  12.0217  12.0230
    12.0305  12.0406  12.0879  12.0994  12.1045  12.1165  12.1518  12.1637
    12.2119  12.2123  12.2745  12.2939  12.3087  12.3134  12.3265  12.3297
    12.4021  12.4049  12.4051  12.4159  12.4572  12.4677  12.4722  12.4737
    12.4827  12.5439  12.5766  12.5946  12.6068  12.6923  12.7434  12.8029
    12.8727  12.8772  12.8873  12.9274  12.9550  13.0406  13.0868  13.1004
    13.1260  13.1381  13.1435  13.1665  13.2107  13.2225  13.2308  13.2707
    13.2799  13.3823  13.3901  13.4465  13.4761  13.5054  13.5155  13.5219
    13.5855  13.6054  13.6504  13.6906  13.6934  13.7526  13.8107  13.8927
    13.9647  13.9869  14.0080  14.0457  14.0636  14.0668  14.0994  14.1517
    14.2215  14.2450  14.2455  14.2840  14.2967  14.3288  14.3795  14.4217
    14.4356  14.4539  14.4697  14.4822  14.5189  14.5514  14.5884  14.6063
    14.6640  14.6965  14.7237  14.8307  14.8561  14.8748  14.8834  14.9657
    15.0242  15.0271  15.0327  15.0443  15.0761  15.1071  15.1143  15.2714
    15.2837  15.3182  15.4320  15.4582  15.4767  15.5025  15.5245  15.5337
    15.5640  15.6321  15.6847  15.7157  15.7471  15.7661  15.8036  15.8654
    15.8756  15.9710  15.9774  16.0036  16.0073  16.0144  16.1347  16.1414
    16.1637  16.1833  16.2270  16.2498

          k = 0.0000 0.0000 0.0094 ( 63029 PWs)   bands (ev):

   -20.6235 -20.5693 -20.4885 -20.3794 -20.2387 -20.0673 -19.8672 -19.6386
   -19.3812 -19.0949 -18.7789 -18.4285 -18.0565 -17.6597 -17.2397 -16.7987
   -16.3395 -15.8662 -15.5241 -15.4751 -15.4058 -15.3833 -15.3087 -15.1851
   -15.0372 -14.9046 -14.8620 -14.6637 -14.4671 -14.4260 -14.2141 -14.1810
   -14.1356 -14.0682 -14.0676 -13.9995 -13.9759 -13.8675 -13.7383 -13.6065
   -13.4814 -13.4800 -13.4464 -13.3662 -13.3611 -13.1797 -12.8403 -12.4682
   -12.0704 -11.6534 -11.5918 -11.5467 -11.4297 -11.3066 -11.2050 -11.1274
   -11.0025 -10.7445 -10.7085 -10.6549 -10.2847 -10.2544 -10.2308  -9.8699
    -9.7660  -9.7371  -9.4398  -9.2581  -9.2521  -8.9955  -8.7898  -8.7279
    -8.7131  -8.6511  -8.5565  -8.5480  -8.4275  -8.3651  -8.2617  -8.2000
    -8.1072  -8.0604  -8.0059  -7.8258  -7.7465  -7.6764  -7.6666  -7.5811
    -7.5584  -7.2584  -7.2224  -7.1439  -6.9264  -6.7844  -6.6278  -6.5627
    -6.3579  -6.1644  -6.1296  -5.9497  -5.7435  -5.6617  -5.5650  -5.2983
    -5.2477  -5.2009  -4.9218  -4.8458  -4.8322  -4.6566  -4.5501  -4.4450
    -4.3489  -4.3384  -4.2931  -4.2132  -4.2057  -3.8534  -3.4938  -3.4309
    -3.3516  -3.3342  -3.2021  -3.0326  -2.8511  -2.8272  -2.5883  -2.3627
    -2.3170  -2.0179  -1.9018  -1.7012  -1.5173  -1.4330  -0.7269  -0.6454
    -0.4676  -0.2676  -0.1794   0.0696   0.1914   0.2686   0.4187   0.5262
     0.5994   0.6464   0.6736   0.6852   0.6924   1.2261   1.7878   1.9101
     2.0323   2.0571   2.1491   2.2194   2.3745   2.3802   2.5164   2.7433
     2.9437   2.9824   3.2319   3.3062   3.4298   3.4828   3.5170   3.6131
     3.6539   3.7411   3.7860   3.8333   4.0139   4.0469   4.1389   4.2296
     4.2504   4.4229   4.5097   4.5236   4.8042   4.8521   4.9004   4.9079
     4.9086   4.9560   4.9688   5.0632   5.1248   5.2991   5.4379   5.4481
     5.5558   5.5631   5.5865   5.6284   5.8199   5.9178   6.0373   6.1679
     6.2138   6.2587   6.3145   6.4189   6.4775   6.5632   6.6715   6.7115
     6.7144   6.8520   6.8685   6.9977   7.0033   7.0826   7.2318   7.3060
     7.3178   7.3611   7.3802   7.4115   7.4692   7.4715   7.5076   7.5472
     7.5900   7.5970   7.6808   7.7155   7.7800   7.8300   7.8416   7.9102
     7.9398   8.0222   8.0607   8.0885   8.1232   8.1959   8.2392   8.2582
     8.3926   8.4363   8.4995   8.6110   8.6675   8.6680   8.7561   8.7996
     8.8310   8.9308   9.0000   9.0612   9.0646   9.1060   9.1131   9.1248
     9.1669   9.2720   9.3465   9.4289   9.4564   9.4946   9.5399   9.5617
     9.5850   9.5885   9.5954   9.6024   9.6264   9.6347   9.6554   9.6710
     9.6904   9.6970   9.7164   9.7190   9.7450   9.8567   9.8739   9.8755
     9.9031   9.9306   9.9356   9.9370   9.9890   9.9901  10.0203  10.0667
    10.0850  10.1104  10.1364  10.1697  10.2005  10.2303  10.2694  10.3387
    10.3747  10.3832  10.3889  10.4017  10.4782  10.4885  10.5264  10.5327
    10.6081  10.6458  10.6622  10.6658  10.6814  10.7221  10.7426  10.7593
    10.8028  10.8110  10.8226  10.8238  10.8241  10.8556  10.9229  10.9658
    11.0254  11.0615  11.0844  11.0950  11.0983  11.1274  11.1281  11.1549
    11.1587  11.2373  11.2682  11.2962  11.3106  11.3528  11.4055  11.4436
    11.4540  11.4542  11.4607  11.5177  11.5209  11.5479  11.5642  11.6204
    11.6309  11.6567  11.6635  11.6761  11.6937  11.7129  11.7199  11.7399
    11.7415  11.8322  11.8347  11.8797  11.8931  11.8960  11.9086  11.9397
    11.9419  11.9565  11.9653  11.9884  12.0372  12.0502  12.0593  12.0664
    12.1106  12.1144  12.1321  12.1409  12.1602  12.1741  12.1757  12.1881
    12.2117  12.2256  12.2271  12.2364  12.2624  12.2750  12.2848  12.3077
    12.3109  12.3241  12.3603  12.3746  12.3897  12.3925  12.4110  12.4344
    12.4660  12.4821  12.4887  12.5546  12.5862  12.6129  12.6499  12.7319
    12.7475  12.7748  12.7909  12.8855  12.9227  13.0101  13.0126  13.0940
    13.1718  13.1724  13.2294  13.2324  13.2635  13.2796  13.3264  13.3805
    13.3981  13.4440  13.4478  13.4958  13.5202  13.5240  13.5259  13.5880
    13.6247  13.6335  13.6718  13.6824  13.7210  13.8522  13.8704  13.9040
    13.9154  13.9461  13.9525  14.0694  14.0873  14.1155  14.1362  14.1758
    14.2583  14.2736  14.3451  14.3555  14.3608  14.3875  14.3947  14.4567
    14.4599  14.5012  14.5056  14.5481  14.5869  14.5980  14.6362  14.6914
    14.6975  14.7568  14.7647  14.8337  14.8471  14.8815  14.8863  14.9361
    14.9412  14.9561  15.0336  15.0552  15.0980  15.1217  15.1819  15.2742
    15.2781  15.3367  15.4188  15.4192  15.4439  15.4645  15.5151  15.5566
    15.5725  15.5777  15.6911  15.6999  15.7348  15.7600  15.8162  15.8319
    15.9046  15.9095  15.9325  15.9606  15.9650  16.0075  16.0269  16.0328
    16.1088  16.1572  16.2106  16.2635

          k = 0.0000 0.0000 0.0141 ( 62997 PWs)   bands (ev):

   -20.6116 -20.5574 -20.4766 -20.3676 -20.2269 -20.0555 -19.8554 -19.6269
   -19.3696 -19.0833 -18.7674 -18.4171 -18.0451 -17.6485 -17.2287 -16.7880
   -16.3293 -15.8572 -15.6772 -15.6278 -15.5563 -15.4597 -15.3816 -15.3312
   -15.1855 -15.0092 -14.9055 -14.8062 -14.5977 -14.4510 -14.3623 -14.1450
   -14.1289 -14.0103 -13.9645 -13.8983 -13.8112 -13.7032 -13.5784 -13.4560
   -13.4519 -13.3768 -13.3189 -13.2457 -13.2324 -13.2226 -12.9235 -12.5565
   -12.1598 -11.7401 -11.5206 -11.4738 -11.3746 -11.2800 -11.2231 -11.0860
   -10.9108 -10.8225 -10.6805 -10.5638 -10.3417 -10.2066 -10.1854  -9.8487
    -9.7783  -9.7126  -9.3774  -9.3164  -9.2259  -8.9347  -8.7907  -8.7641
    -8.6989  -8.6370  -8.5423  -8.4925  -8.4134  -8.3433  -8.2613  -8.2477
    -8.0545  -8.0464  -7.9887  -7.8119  -7.7514  -7.7063  -7.6314  -7.5638
    -7.5446  -7.2448  -7.1995  -7.1772  -6.9130  -6.7466  -6.6814  -6.5496
    -6.3286  -6.1807  -6.1517  -5.9292  -5.7313  -5.7099  -5.5539  -5.2873
    -5.2869  -5.2050  -4.9453  -4.8721  -4.8219  -4.6819  -4.5800  -4.4764
    -4.3666  -4.3402  -4.3303  -4.2481  -4.2377  -3.8471  -3.5682  -3.5059
    -3.4101  -3.3493  -3.2794  -3.1122  -2.9099  -2.8555  -2.6756  -2.4131
    -2.3783  -2.1251  -1.9457  -1.8315  -1.6263  -1.5972  -0.5667  -0.5436
    -0.3380  -0.2339  -0.0694   0.1705   0.1955   0.3652   0.5133   0.6198
     0.6818   0.6926   0.7394   0.7665   0.7781   1.2069   1.7633   1.9261
     2.0483   2.0733   2.1652   2.2356   2.3461   2.3963   2.5326   2.7594
     2.9510   2.9599   3.2479   3.3222   3.4487   3.4990   3.5246   3.5911
     3.6700   3.7577   3.8021   3.8494   4.0303   4.0631   4.1549   4.2164
     4.2459   4.4390   4.5261   4.5396   4.8204   4.8648   4.8681   4.9245
     4.9245   4.9717   4.9848   5.0794   5.1407   5.3149   5.4533   5.4566
     5.5336   5.5719   5.5986   5.6445   5.8353   5.9332   6.0533   6.1830
     6.1885   6.2783   6.3292   6.4301   6.4874   6.5761   6.6814   6.7256
     6.7292   6.8172   6.8884   7.0083   7.0219   7.0930   7.2428   7.3055
     7.3381   7.3760   7.3827   7.4224   7.4325   7.4544   7.5118   7.5667
     7.5766   7.6008   7.6632   7.6929   7.7984   7.8284   7.8366   7.8594
     7.9585   8.0239   8.0248   8.0254   8.1036   8.2011   8.2414   8.2577
     8.3038   8.4259   8.5144   8.5497   8.5720   8.6872   8.7607   8.7611
     8.8422   8.8997   8.9521   9.0372   9.0663   9.0902   9.0907   9.1097
     9.1198   9.1347   9.1810   9.2674   9.2733   9.2863   9.3743   9.4630
     9.4967   9.5372   9.5851   9.6036   9.6123   9.6206   9.6279   9.6469
     9.6481   9.6697   9.6978   9.7249   9.7485   9.7485   9.7593   9.7960
     9.8570   9.8852   9.8905   9.9167   9.9424   9.9661  10.0018  10.0033
    10.0706  10.0760  10.1129  10.1282  10.1826  10.1914  10.2335  10.2397
    10.2414  10.2939  10.3040  10.3781  10.4013  10.4602  10.4664  10.5199
    10.5250  10.5323  10.5546  10.5561  10.5659  10.5723  10.5802  10.6256
    10.6881  10.7117  10.8598  10.9205  10.9517  10.9961  11.0194  11.0352
    11.0708  11.0947  11.0983  11.1030  11.1143  11.1460  11.1467  11.1701
    11.2333  11.2495  11.2543  11.2624  11.3413  11.3973  11.4110  11.4223
    11.4764  11.4776  11.5135  11.5261  11.5397  11.5527  11.5721  11.6218
    11.6598  11.6643  11.6919  11.7141  11.7312  11.7430  11.7577  11.7620
    11.8114  11.8495  11.8734  11.8820  11.8878  11.9240  11.9284  11.9499
    11.9786  11.9842  11.9907  12.0107  12.0182  12.0357  12.0645  12.0735
    12.0854  12.1354  12.1480  12.1556  12.1867  12.1918  12.2108  12.2182
    12.2205  12.2481  12.2858  12.2929  12.2964  12.3023  12.3030  12.3227
    12.3258  12.3277  12.3361  12.3500  12.3647  12.3811  12.3980  12.3987
    12.4258  12.4714  12.5059  12.5139  12.5277  12.5991  12.6062  12.6109
    12.6119  12.7032  12.8224  12.8345  12.9013  12.9478  13.0309  13.0754
    13.0773  13.0967  13.1384  13.2303  13.2356  13.2755  13.3380  13.4180
    13.4245  13.4852  13.5272  13.5482  13.5596  13.5976  13.6132  13.6292
    13.7120  13.7572  13.7634  13.7832  13.8138  13.8522  13.8818  13.9487
    13.9709  14.0554  14.0618  14.0939  14.1052  14.1819  14.2635  14.2671
    14.2795  14.3008  14.3797  14.4135  14.4240  14.4569  14.4724  14.4834
    14.5007  14.5154  14.5511  14.6405  14.6463  14.6738  14.7090  14.7265
    14.7388  14.7638  14.8178  14.8242  14.8583  14.8763  14.9490  14.9549
    14.9875  14.9928  15.0197  15.0865  15.1202  15.2170  15.2556  15.2763
    15.2808  15.2882  15.3383  15.3396  15.3562  15.3801  15.5047  15.5301
    15.5378  15.6129  15.6713  15.6752  15.6860  15.7591  15.7864  15.7969
    15.8406  15.8761  15.8878  15.9351  16.0134  16.0277  16.0312  16.0512
    16.0924  16.1028  16.2857  16.3215

          k = 0.0000 0.0000 0.0188 ( 63031 PWs)   bands (ev):

   -20.5951 -20.5409 -20.4601 -20.3511 -20.2104 -20.0390 -19.8390 -19.6106
   -19.3533 -19.0670 -18.7512 -18.4010 -18.0293 -17.6328 -17.2134 -16.7731
   -16.3152 -15.8491 -15.8456 -15.7986 -15.7269 -15.6290 -15.5062 -15.3666
   -15.3522 -15.1731 -14.9847 -14.8873 -14.7583 -14.5218 -14.4698 -14.2944
   -14.2142 -13.8139 -13.7691 -13.7042 -13.6197 -13.5141 -13.4593 -13.3862
   -13.3415 -13.2967 -13.2413 -13.1521 -13.0997 -13.0668 -13.0220 -12.6651
   -12.2702 -11.8491 -11.4242 -11.4223 -11.3735 -11.2560 -11.1323 -11.0284
   -10.9072 -10.7989 -10.6458 -10.4485 -10.4306 -10.1805 -10.0746  -9.9312
    -9.6875  -9.6786  -9.4195  -9.2633  -9.1991  -8.8974  -8.8249  -8.7367
    -8.6790  -8.6171  -8.5225  -8.4258  -8.3936  -8.3311  -8.3183  -8.2280
    -8.0269  -7.9878  -7.9673  -7.8100  -7.7925  -7.7021  -7.5853  -7.5311
    -7.5254  -7.2705  -7.2258  -7.1219  -6.8943  -6.7506  -6.7013  -6.5313
    -6.2945  -6.2470  -6.1340  -5.9072  -5.7728  -5.7143  -5.5446  -5.3441
    -5.2710  -5.2109  -4.9871  -4.9017  -4.8075  -4.7200  -4.6210  -4.5204
    -4.4086  -4.3808  -4.3280  -4.3044  -4.2721  -3.8384  -3.6671  -3.6054
    -3.5107  -3.3822  -3.3456  -3.2169  -3.0181  -2.8621  -2.7884  -2.5334
    -2.4024  -2.2577  -2.0045  -1.9822  -1.7643  -1.7509  -0.4290  -0.4051
    -0.1892  -0.1882   0.0671   0.2015   0.2999   0.4913   0.6381   0.6675
     0.7442   0.8169   0.8638   0.8910   0.9027   1.1808   1.7296   1.9485
     2.0706   2.0959   2.1877   2.2582   2.3072   2.4188   2.5552   2.7819
     2.9081   2.9825   3.2704   3.3446   3.4746   3.5083   3.5216   3.5882
     3.6925   3.7807   3.8247   3.8720   4.0533   4.0858   4.1697   4.1776
     4.2686   4.4615   4.5489   4.5621   4.8162   4.8430   4.8904   4.9468
     4.9474   4.9936   5.0072   5.1020   5.1629   5.3371   5.4451   5.4748
     5.5174   5.5944   5.6145   5.6671   5.8569   5.9544   6.0757   6.1416
     6.2163   6.3052   6.3495   6.4439   6.5020   6.5930   6.6955   6.7442
     6.7496   6.7691   6.9160   7.0229   7.0477   7.1058   7.2579   7.3104
     7.3449   7.3780   7.3821   7.4021   7.4375   7.4466   7.4937   7.5847
     7.5860   7.5936   7.6340   7.7092   7.7396   7.8048   7.8487   7.8822
     7.9203   7.9654   7.9979   8.0290   8.0611   8.1804   8.2106   8.2832
     8.2934   8.3239   8.4787   8.5182   8.5348   8.6289   8.7139   8.7679
     8.8330   8.8406   8.8691   8.9001   8.9118   8.9720   8.9814   9.0143
     9.0558   9.0879   9.1027   9.1066   9.1134   9.2661   9.2681   9.2911
     9.3291   9.4367   9.4689   9.5727   9.5908   9.6099   9.6259   9.6264
     9.6592   9.6644   9.6689   9.6764   9.6901   9.7547   9.7582   9.7799
     9.7895   9.8007   9.8572   9.8917   9.8935   9.9080   9.9130   9.9883
    10.0375  10.0632  10.0709  10.0966  10.1393  10.1685  10.1763  10.1861
    10.2101  10.2102  10.2283  10.2593  10.2682  10.2877  10.3007  10.3108
    10.3231  10.3374  10.3423  10.4013  10.4885  10.5329  10.5831  10.5919
    10.6622  10.6807  10.7703  10.8021  10.8356  10.9293  10.9782  11.0777
    11.0787  11.1101  11.1333  11.1374  11.1541  11.1993  11.2354  11.2441
    11.2462  11.3115  11.3493  11.3702  11.4039  11.4439  11.4741  11.4778
    11.4991  11.5270  11.5360  11.5461  11.5821  11.6007  11.6081  11.6427
    11.6589  11.6610  11.6996  11.7068  11.7224  11.7392  11.7553  11.7677
    11.7843  11.8067  11.8203  11.8624  11.8947  11.9174  11.9233  11.9311
    11.9487  11.9536  11.9578  11.9944  12.0197  12.0573  12.0693  12.0821
    12.1022  12.1151  12.1386  12.1620  12.1947  12.2089  12.2239  12.2334
    12.2412  12.2719  12.2859  12.3084  12.3256  12.3520  12.3559  12.3570
    12.3605  12.3815  12.4038  12.4244  12.4331  12.4475  12.4626  12.4873
    12.4919  12.5024  12.5199  12.5417  12.5433  12.5688  12.6025  12.6068
    12.6263  12.6913  12.7146  12.7984  12.8246  12.9078  12.9223  12.9690
    13.0771  13.0958  13.1966  13.2129  13.2181  13.2521  13.2785  13.3981
    13.4080  13.4292  13.4580  13.4773  13.5675  13.5817  13.6315  13.6487
    13.7976  13.8325  13.9060  13.9395  13.9996  14.0269  14.0701  14.0728
    14.0981  14.1174  14.1289  14.1645  14.2241  14.2287  14.2849  14.2859
    14.3524  14.4051  14.4358  14.4417  14.4417  14.4977  14.5439  14.5477
    14.5697  14.5984  14.6402  14.6434  14.6652  14.7082  14.8014  14.8023
    14.8182  14.8227  14.8315  14.8988  14.9074  14.9482  14.9674  15.0165
    15.0451  15.0533  15.0599  15.0814  15.1299  15.1350  15.1671  15.1965
    15.2958  15.3078  15.3546  15.3640  15.3971  15.4638  15.4964  15.5010
    15.5408  15.5759  15.5768  15.6118  15.6265  15.6893  15.7799  15.7880
    15.8589  15.8759  15.8767  15.9494  15.9634  16.0235  16.0355  16.0618
    16.1278  16.1363  16.2630  16.3363

          k = 0.0000 0.0000 0.0235 ( 63043 PWs)   bands (ev):

   -20.5737 -20.5196 -20.4388 -20.3298 -20.1892 -20.0179 -19.8179 -19.5895
   -19.3323 -19.0462 -18.7305 -18.3805 -18.0089 -17.6127 -17.1936 -16.7540
   -16.2973 -16.0293 -15.9795 -15.9059 -15.8356 -15.8005 -15.6821 -15.5268
   -15.3775 -15.3243 -15.1514 -14.9263 -14.8905 -14.6843 -14.5094 -14.4347
   -14.3188 -13.6022 -13.5584 -13.4949 -13.4541 -13.4166 -13.4083 -13.3113
   -13.2074 -13.1898 -13.1418 -13.0620 -12.9919 -12.9421 -12.9060 -12.7847
   -12.3938 -11.9722 -11.5304 -11.3074 -11.2824 -11.1387 -11.0956 -11.0108
   -10.8802 -10.6939 -10.6151 -10.4973 -10.3191 -10.1652 -10.0125  -9.9467
    -9.6716  -9.5581  -9.5021  -9.1774  -9.1540  -8.9725  -8.7372  -8.7109
    -8.6535  -8.5916  -8.4970  -8.4447  -8.3682  -8.3111  -8.2917  -8.2027
    -8.0017  -7.9422  -7.9335  -7.8700  -7.7675  -7.6804  -7.5509  -7.5006
    -7.4797  -7.3484  -7.2013  -7.0623  -6.8703  -6.8316  -6.6532  -6.5078
    -6.3259  -6.2599  -6.1112  -5.8870  -5.8484  -5.6925  -5.5397  -5.4149
    -5.2506  -5.2224  -5.0479  -4.9346  -4.7890  -4.7727  -4.6724  -4.5769
    -4.4679  -4.4430  -4.3702  -4.3164  -4.3125  -3.8274  -3.7863  -3.7252
    -3.6316  -3.5046  -3.3421  -3.3420  -3.1464  -2.9234  -2.8686  -2.6733
    -2.4329  -2.4072  -2.1439  -2.0762  -1.9323  -1.8844  -0.3080  -0.2439
    -0.1351  -0.0274   0.2101   0.2217   0.4508   0.6409   0.6504   0.7877
     0.8944   0.9677   1.0152   1.0429   1.0549   1.1485   1.6876   1.9773
     2.0994   2.1250   2.2167   2.2586   2.2873   2.4478   2.5843   2.8109
     2.8545   3.0116   3.2993   3.3735   3.4606   3.5073   3.5507   3.6123
     3.7214   3.8102   3.8537   3.9009   4.0827   4.1119   4.1150   4.2063
     4.2979   4.4903   4.5780   4.5910   4.7556   4.8721   4.9190   4.9755
     4.9764   5.0218   5.0361   5.1310   5.1915   5.3656   5.3952   5.5024
     5.5342   5.6232   5.6323   5.6961   5.8846   5.9812   6.0920   6.1044
     6.2505   6.3393   6.3748   6.4591   6.5215   6.6124   6.7087   6.7144
     6.7662   6.7749   6.9511   7.0410   7.0805   7.1191   7.2766   7.3186
     7.3200   7.3499   7.3713   7.3987   7.4340   7.4563   7.4799   7.5363
     7.6037   7.6276   7.6511   7.6705   7.7309   7.7549   7.8459   7.8838
     7.8851   7.9372   7.9406   8.0271   8.0312   8.1585   8.1648   8.2382
     8.2819   8.3148   8.4214   8.4509   8.4917   8.5523   8.5549   8.6081
     8.6930   8.7334   8.7465   8.7677   8.7911   8.8587   8.8793   8.9448
     8.9544   8.9827   9.0184   9.0894   9.1118   9.1411   9.1449   9.2554
     9.2755   9.3491   9.3599   9.3600   9.4210   9.5245   9.6106   9.6323
     9.6425   9.6542   9.6992   9.7004   9.7105   9.7132   9.7171   9.7187
     9.7461   9.7895   9.8190   9.8225   9.8836   9.8931   9.9062   9.9377
     9.9779   9.9911   9.9997  10.0162  10.0293  10.0402  10.0577  10.0581
    10.0658  10.1095  10.1185  10.1308  10.1324  10.1681  10.1739  10.1867
    10.2091  10.2371  10.2905  10.3322  10.4324  10.4511  10.5078  10.5504
    10.6005  10.6088  10.7188  10.7216  10.7458  10.8000  10.9011  10.9910
    10.9953  11.0949  11.1072  11.1261  11.1664  11.1790  11.2018  11.2245
    11.2835  11.2942  11.3088  11.3532  11.3904  11.4374  11.4728  11.5210
    11.5254  11.5301  11.5592  11.5735  11.5907  11.6308  11.6422  11.6568
    11.7008  11.7042  11.7191  11.7355  11.7533  11.7534  11.7741  11.7994
    11.8204  11.8215  11.8331  11.8555  11.8667  11.8953  11.9014  11.9162
    11.9272  11.9737  11.9935  12.0338  12.0718  12.0762  12.0946  12.1010
    12.1274  12.1416  12.1452  12.2019  12.2091  12.2308  12.2428  12.2536
    12.2711  12.2844  12.3144  12.3220  12.3317  12.3347  12.3656  12.3786
    12.4122  12.4384  12.4536  12.4684  12.4695  12.4800  12.5021  12.5261
    12.5268  12.5298  12.5685  12.5901  12.6261  12.6270  12.6457  12.6633
    12.6890  12.7282  12.7785  12.8356  12.8623  12.8708  12.8716  12.9500
    13.0209  13.0931  13.1059  13.1312  13.1788  13.1839  13.2955  13.3302
    13.3766  13.4143  13.4690  13.4803  13.5333  13.6266  13.6350  13.6547
    13.8877  13.9161  13.9552  14.0311  14.0439  14.0531  14.0912  14.1411
    14.1509  14.2200  14.2535  14.2695  14.3441  14.3797  14.4189  14.4355
    14.4687  14.4727  14.4887  14.4998  14.5133  14.5515  14.5540  14.6060
    14.6298  14.7129  14.7223  14.7328  14.7343  14.7893  14.7894  14.8539
    14.8655  14.8981  14.9183  14.9424  14.9655  14.9767  14.9876  15.0043
    15.0077  15.0178  15.0941  15.1038  15.1827  15.2103  15.2153  15.2533
    15.2909  15.3152  15.3379  15.3855  15.4085  15.4298  15.4739  15.5178
    15.5301  15.5986  15.6000  15.6519  15.6765  15.6838  15.7810  15.8052
    15.8430  15.8457  15.8632  15.8824  15.9393  16.0418  16.0458  16.1073
    16.1276  16.1895  16.2237  16.3047

          k = 0.0000 0.0000 0.0282 ( 63080 PWs)   bands (ev):

   -20.5477 -20.4935 -20.4128 -20.3038 -20.1633 -19.9920 -19.7921 -19.5638
   -19.3067 -19.0207 -18.7052 -18.3553 -17.9840 -17.5882 -17.1696 -16.7308
   -16.2762 -16.2127 -16.1626 -16.0880 -15.9908 -15.8619 -15.8114 -15.7017
   -15.5311 -15.3351 -15.3246 -15.0954 -14.9111 -14.8288 -14.6282 -14.5096
   -14.4376 -13.4949 -13.4445 -13.3803 -13.3369 -13.2755 -13.2540 -13.1933
   -13.1468 -13.0877 -12.9824 -12.9128 -12.8646 -12.8633 -12.7637 -12.7401
   -12.5238 -12.1039 -11.6584 -11.2098 -11.1735 -11.1579 -10.9963 -10.9483
   -10.7455 -10.7178 -10.5755 -10.4320 -10.2258 -10.1752 -10.0249  -9.8096
    -9.7030  -9.5430  -9.4266  -9.1836  -9.0379  -9.0323  -8.6955  -8.6279
    -8.6222  -8.5604  -8.5253  -8.4659  -8.3372  -8.2659  -8.2178  -8.1718
    -8.0005  -7.9710  -7.9139  -7.8113  -7.7370  -7.6516  -7.5224  -7.4767
    -7.4704  -7.3727  -7.1715  -7.0101  -6.9137  -6.8409  -6.6074  -6.4791
    -6.4134  -6.2285  -6.0833  -5.9343  -5.8719  -5.6659  -5.5417  -5.4977
    -5.2423  -5.2257  -5.1245  -4.9746  -4.8411  -4.7666  -4.7345  -4.6463
    -4.5482  -4.5157  -4.4402  -4.3701  -4.2937  -3.9219  -3.8614  -3.8144
    -3.7685  -3.6432  -3.4828  -3.3390  -3.2891  -3.0706  -2.8802  -2.8266
    -2.5674  -2.4705  -2.3113  -2.1596  -2.0995  -2.0233  -0.1838  -0.0862
    -0.0706   0.1393   0.2218   0.3882   0.6175   0.6312   0.8087   0.9573
     1.0657   1.1108   1.1407   1.1894   1.2179   1.2305   1.6380   2.0125
     2.1344   2.1606   2.2010   2.2521   2.3229   2.4832   2.6199   2.7912
     2.8463   3.0472   3.3347   3.3967   3.4087   3.5462   3.5863   3.6490
     3.7567   3.8461   3.8891   3.9357   4.0443   4.1185   4.1507   4.2416
     4.3336   4.5250   4.6135   4.6262   4.6846   4.9075   4.9540   5.0105
     5.0106   5.0562   5.0713   5.1664   5.2264   5.3268   5.4004   5.5360
     5.5656   5.6485   5.6583   5.7315   5.9181   6.0132   6.0386   6.1392
     6.2910   6.3802   6.4046   6.4744   6.5448   6.6322   6.6369   6.7385
     6.7901   6.8043   6.9934   7.0620   7.1202   7.1298   7.2428   7.2972
     7.3317   7.3616   7.3681   7.3755   7.4003   7.4403   7.4768   7.4869
     7.5681   7.6421   7.6687   7.6958   7.7039   7.7552   7.8163   7.8189
     7.8285   7.9118   7.9661   8.0161   8.0248   8.0688   8.1254   8.2324
     8.2399   8.2738   8.3305   8.3406   8.3549   8.3823   8.4358   8.4386
     8.4915   8.5444   8.6340   8.6979   8.7057   8.7785   8.8012   8.8361
     8.8662   8.9035   8.9862   8.9994   9.0437   9.0622   9.1247   9.1794
     9.2219   9.2659   9.2794   9.2974   9.3272   9.3549   9.4172   9.5429
     9.5498   9.6046   9.6558   9.6875   9.6931   9.7303   9.7328   9.7395
     9.7445   9.7647   9.7735   9.7779   9.7790   9.7876   9.8092   9.8103
     9.8566   9.8716   9.8778   9.8982   9.9081   9.9246   9.9321   9.9450
     9.9766   9.9922  10.0381  10.0499  10.0703  10.1008  10.1134  10.1740
    10.2055  10.2278  10.2362  10.2671  10.3141  10.3671  10.4473  10.4796
    10.5213  10.5702  10.6389  10.6850  10.6857  10.7412  10.7599  10.8061
    10.9412  10.9970  11.0268  11.0759  11.1011  11.1163  11.1613  11.2018
    11.2073  11.2134  11.2188  11.2422  11.3245  11.3327  11.3660  11.4316
    11.4847  11.5081  11.5631  11.5790  11.6053  11.6238  11.6711  11.6740
    11.6806  11.6821  11.7034  11.7049  11.7627  11.7736  11.7841  11.7876
    11.8070  11.8326  11.8948  11.9385  11.9412  11.9612  11.9773  12.0239
    12.0298  12.0666  12.0930  12.0989  12.1183  12.1232  12.1352  12.1592
    12.1595  12.1598  12.2007  12.2464  12.2528  12.2542  12.2611  12.2925
    12.3024  12.3160  12.3292  12.3331  12.3648  12.3890  12.4134  12.4135
    12.4354  12.4408  12.4471  12.4606  12.4931  12.5096  12.5290  12.5356
    12.5728  12.5964  12.6026  12.6240  12.6491  12.6726  12.6915  12.7271
    12.7758  12.7881  12.8515  12.8708  12.8960  12.9379  12.9405  12.9843
    13.0309  13.0354  13.0542  13.1173  13.1289  13.1456  13.2529  13.3132
    13.3288  13.4370  13.4541  13.5690  13.5891  13.6186  13.6448  13.6853
    13.8529  13.9169  13.9963  13.9987  14.0387  14.1089  14.1639  14.1639
    14.1742  14.2475  14.2915  14.3175  14.3440  14.3991  14.4715  14.5114
    14.5342  14.5905  14.6543  14.6635  14.6847  14.7095  14.7160  14.7382
    14.7464  14.7627  14.7681  14.7974  14.8272  14.8326  14.8772  14.8813
    14.9018  14.9190  14.9272  14.9403  14.9638  15.0141  15.0200  15.0285
    15.0327  15.1131  15.1149  15.1305  15.1334  15.2603  15.3037  15.3089
    15.3369  15.3409  15.4212  15.4273  15.4499  15.5052  15.5249  15.5371
    15.5508  15.5850  15.6029  15.6311  15.6799  15.7071  15.7663  15.8083
    15.8099  15.8108  15.8922  15.9442  16.0213  16.1282  16.1661  16.1817
    16.1874  16.1904  16.2491  16.2596

          k = 0.0000 0.0000 0.0329 ( 63098 PWs)   bands (ev):

   -20.5169 -20.4628 -20.3820 -20.2731 -20.1326 -19.9614 -19.7616 -19.5335
   -19.2765 -18.9906 -18.6753 -18.3257 -17.9546 -17.5592 -17.1413 -16.7037
   -16.3970 -16.3462 -16.2771 -16.2456 -16.1723 -16.0417 -15.8930 -15.7791
   -15.7067 -15.4977 -15.3391 -15.2486 -15.0396 -14.8680 -14.7825 -14.5661
   -14.5642 -13.5628 -13.4572 -13.3409 -13.1510 -13.1154 -13.1085 -13.0492
   -13.0037 -12.9701 -12.8712 -12.7873 -12.7481 -12.6600 -12.6456 -12.5826
   -12.5747 -12.2391 -11.7930 -11.3274 -11.0537 -11.0190 -10.8646 -10.8593
   -10.8063 -10.5875 -10.5141 -10.3216 -10.2889 -10.0831  -9.9417  -9.7980
    -9.6726  -9.5152  -9.2899  -9.2561  -9.0398  -8.9046  -8.7264  -8.5854
    -8.5673  -8.5236  -8.5122  -8.4292  -8.3006  -8.2507  -8.1353  -8.1162
    -8.0850  -7.9347  -7.8834  -7.7288  -7.7009  -7.6152  -7.5695  -7.4853
    -7.4347  -7.3103  -7.1362  -7.0458  -6.9173  -6.8062  -6.5795  -6.4955
    -6.4452  -6.2050  -6.0505  -6.0274  -5.8649  -5.6345  -5.5902  -5.5530
    -5.2725  -5.2142  -5.1963  -5.0247  -4.9254  -4.8077  -4.7402  -4.7299
    -4.6482  -4.5970  -4.5126  -4.4324  -4.2717  -4.0701  -4.0101  -3.9186
    -3.7989  -3.7941  -3.6353  -3.4465  -3.3324  -3.2289  -2.9888  -2.8943
    -2.7340  -2.5190  -2.4778  -2.2754  -2.2431  -2.1654  -0.0581  -0.0066
     0.0771   0.2358   0.3105   0.5624   0.6115   0.7956   0.9905   1.0687
     1.1426   1.2544   1.3320   1.3826   1.4125   1.4259   1.5820   2.0540
     2.1355   2.1759   2.2026   2.2939   2.3650   2.5251   2.6620   2.7191
     2.8881   3.0893   3.3217   3.3765   3.4502   3.5904   3.6284   3.6938
     3.7983   3.8885   3.9310   3.9592   3.9861   4.1606   4.1929   4.2833
     4.3758   4.5604   4.6094   4.6552   4.6678   4.9494   4.9955   5.0472
     5.0520   5.0967   5.1129   5.2082   5.2501   5.2678   5.4416   5.5754
     5.6048   5.6551   5.6996   5.7733   5.9575   5.9901   6.0498   6.1799
     6.3374   6.4276   6.4367   6.4896   6.5548   6.5701   6.6496   6.7681
     6.8140   6.8357   7.0419   7.0851   7.1334   7.1561   7.1665   7.3137
     7.3438   7.3535   7.3535   7.3808   7.3824   7.3864   7.4226   7.4663
     7.5091   7.5517   7.7008   7.7101   7.7163   7.7269   7.7720   7.7980
     7.8203   7.9142   7.9557   7.9729   7.9996   8.0100   8.0213   8.0732
     8.1177   8.1404   8.2040   8.2303   8.2667   8.2977   8.3124   8.3690
     8.4065   8.4365   8.4938   8.5225   8.5925   8.6622   8.7425   8.7464
     8.8353   8.8437   8.8655   8.9233   8.9755   8.9768   9.1058   9.1205
     9.1376   9.1596   9.2036   9.2050   9.3046   9.3072   9.3817   9.3978
     9.4083   9.4504   9.4624   9.4885   9.5317   9.5703   9.5841   9.6398
     9.6464   9.6593   9.7266   9.7382   9.7390   9.7454   9.7672   9.7751
     9.7802   9.8046   9.8126   9.8269   9.8352   9.8425   9.8813   9.8848
     9.9462   9.9733   9.9764   9.9999  10.0134  10.0421  10.0794  10.1328
    10.1858  10.2295  10.2387  10.2468  10.2698  10.2786  10.3137  10.4097
    10.4567  10.5280  10.5903  10.5918  10.5958  10.6820  10.6872  10.7521
    10.7870  10.7954  10.8392  10.8678  10.9098  10.9733  11.0306  11.1408
    11.1563  11.2105  11.2336  11.2430  11.2527  11.3042  11.3369  11.3768
    11.3873  11.4787  11.4914  11.5498  11.5721  11.5795  11.5873  11.6045
    11.6228  11.6537  11.6800  11.7037  11.7310  11.7510  11.7578  11.8210
    11.8414  11.8756  11.8890  11.9420  11.9725  11.9876  12.0111  12.0575
    12.0748  12.1011  12.1350  12.1568  12.1643  12.1768  12.1768  12.2027
    12.2251  12.2410  12.2843  12.3039  12.3046  12.3199  12.3365  12.3501
    12.3610  12.3873  12.3898  12.4001  12.4505  12.4572  12.4679  12.4690
    12.4880  12.5071  12.5092  12.5415  12.5508  12.5525  12.5647  12.5683
    12.5868  12.6000  12.6494  12.6681  12.7081  12.7086  12.7548  12.7674
    12.7826  12.8114  12.8246  12.8284  12.9234  12.9439  12.9783  12.9980
    13.0226  13.0871  13.1438  13.1458  13.1775  13.1839  13.2418  13.3281
    13.3538  13.4518  13.4690  13.5588  13.6423  13.6976  13.7209  13.7270
    13.7785  13.8857  13.9078  13.9131  14.0334  14.1380  14.1436  14.2023
    14.2241  14.2362  14.2565  14.3835  14.3867  14.4138  14.5083  14.5470
    14.5655  14.5668  14.6817  14.6904  14.7518  14.7614  14.8195  14.8621
    14.8757  14.8983  14.9189  14.9229  14.9235  14.9506  14.9595  14.9685
    14.9691  14.9730  14.9842  14.9845  15.0145  15.0268  15.0447  15.1266
    15.1367  15.1536  15.1914  15.2299  15.2317  15.2742  15.3179  15.3507
    15.3654  15.4058  15.4197  15.4582  15.4631  15.4855  15.5228  15.5412
    15.6290  15.6304  15.6331  15.6433  15.7488  15.7577  15.8619  15.8736
    15.8776  15.9773  15.9776  15.9832  16.1240  16.1294  16.1410  16.1809
    16.2180  16.2932  16.3090  16.3604

          k = 0.0000 0.0000 0.0376 ( 63132 PWs)   bands (ev):

   -20.4814 -20.4273 -20.3466 -20.2378 -20.0973 -19.9262 -19.7265 -19.4984
   -19.2416 -18.9559 -18.6408 -18.2915 -17.9208 -17.5259 -17.1089 -16.6732
   -16.5801 -16.5287 -16.4545 -16.3530 -16.2440 -16.1997 -16.0678 -15.8818
   -15.7689 -15.6605 -15.4584 -15.2839 -15.2024 -14.9398 -14.8781 -14.6991
   -14.6315 -13.6158 -13.5332 -13.3569 -13.2097 -12.9805 -12.9157 -12.8745
   -12.8238 -12.8151 -12.7415 -12.6472 -12.6307 -12.5403 -12.4718 -12.4293
   -12.3883 -12.3592 -11.9299 -11.4612 -10.9928 -10.8858 -10.8610 -10.7694
   -10.6618 -10.4581 -10.4487 -10.3972 -10.1272 -10.0185  -9.9108  -9.8010
    -9.5640  -9.4343  -9.3633  -9.1561  -9.0008  -8.8182  -8.7739  -8.5499
    -8.5429  -8.4811  -8.3952  -8.3868  -8.2854  -8.2583  -8.1217  -8.0932
    -8.0138  -7.8929  -7.8562  -7.6642  -7.6594  -7.6519  -7.5685  -7.4502
    -7.3936  -7.2391  -7.1460  -7.0956  -6.8661  -6.7663  -6.6402  -6.5019
    -6.4061  -6.2030  -6.1146  -6.0127  -5.8694  -5.6900  -5.5984  -5.5756
    -5.3152  -5.3145  -5.1626  -5.0867  -5.0257  -4.8928  -4.8317  -4.7601
    -4.7100  -4.6852  -4.5891  -4.5026  -4.2469  -4.2278  -4.1681  -4.0774
    -3.9539  -3.8013  -3.7774  -3.6094  -3.3943  -3.3290  -3.1565  -2.9249
    -2.8911  -2.6595  -2.5603  -2.4398  -2.3447  -2.3096   0.0666   0.0681
     0.2350   0.2549   0.4824   0.5902   0.7433   0.9812   1.0241   1.1827
     1.3403   1.4567   1.5205   1.5380   1.5914   1.6231   1.6377   2.0632
     2.1019   2.2236   2.2511   2.3421   2.4135   2.5735   2.6392   2.7105
     2.9364   3.1378   3.2377   3.4247   3.4981   3.6368   3.6769   3.7456
     3.8448   3.8858   3.9371   3.9792   4.0284   4.2086   4.2416   4.3314
     4.4243   4.5076   4.6207   4.7029   4.7156   4.9977   5.0432   5.0702
     5.0999   5.1433   5.1608   5.1835   5.2562   5.3155   5.4892   5.6206
     5.6381   5.6499   5.7470   5.8214   5.9613   6.0023   6.0900   6.2263
     6.3895   6.4640   6.4647   6.4814   6.5056   6.5948   6.6605   6.8022
     6.8364   6.8658   7.0506   7.1052   7.1082   7.1259   7.2192   7.3074
     7.3140   7.3162   7.3536   7.3590   7.3637   7.4006   7.4107   7.4206
     7.4417   7.4527   7.6245   7.6273   7.6693   7.7298   7.7697   7.7735
     7.7872   7.7960   7.8202   7.8678   7.9276   7.9349   7.9780   7.9884
     8.0602   8.0704   8.1291   8.1532   8.1609   8.1720   8.2245   8.3092
     8.3507   8.3715   8.4008   8.4558   8.4996   8.5364   8.5994   8.6349
     8.7052   8.7750   8.8508   8.8644   8.8706   8.9194   8.9765   9.0096
     9.0315   9.1220   9.1666   9.1750   9.2266   9.2279   9.2307   9.2465
     9.2979   9.3365   9.3426   9.3454   9.3783   9.3916   9.4229   9.4446
     9.4807   9.5453   9.5594   9.6050   9.6092   9.6589   9.6901   9.7112
     9.7182   9.7420   9.7709   9.7732   9.8241   9.8384   9.8565   9.8972
     9.9034   9.9146   9.9174   9.9943  10.0515  10.0654  10.0992  10.1100
    10.1329  10.1773  10.1815  10.2364  10.2723  10.2795  10.2900  10.3041
    10.4213  10.4260  10.4811  10.4828  10.4910  10.5376  10.5403  10.6199
    10.6340  10.6941  10.7285  10.7379  10.8200  10.8709  10.8798  10.9072
    11.0634  11.1635  11.1662  11.1782  11.2162  11.2851  11.2894  11.3139
    11.3889  11.4373  11.4386  11.4500  11.4745  11.5132  11.5548  11.5968
    11.6227  11.6519  11.6675  11.6987  11.7111  11.7556  11.7572  11.7846
    11.8677  11.9024  11.9120  11.9252  11.9891  12.0072  12.0358  12.0467
    12.0514  12.0755  12.0991  12.1309  12.1348  12.1435  12.2028  12.2250
    12.2361  12.2625  12.2848  12.2919  12.3590  12.3622  12.3790  12.3962
    12.4026  12.4665  12.4705  12.4956  12.5268  12.5420  12.5574  12.5584
    12.5668  12.5870  12.6048  12.6200  12.6284  12.6289  12.6666  12.6803
    12.6886  12.7343  12.7398  12.7401  12.7410  12.7488  12.7709  12.7769
    12.7775  12.7981  12.8727  12.9090  12.9218  12.9684  13.0030  13.0343
    13.0441  13.0602  13.0839  13.1646  13.2210  13.2533  13.4212  13.4310
    13.4465  13.4523  13.5274  13.5915  13.6109  13.6226  13.7545  13.7706
    13.7741  13.8295  13.8349  13.8412  14.0720  14.1633  14.1697  14.1811
    14.2075  14.2080  14.2381  14.2633  14.4493  14.4649  14.5216  14.5339
    14.5918  14.6121  14.6780  14.7095  14.7471  14.7852  14.8354  14.8588
    14.8688  14.9006  14.9301  14.9735  15.0110  15.0389  15.0592  15.0786
    15.0932  15.1104  15.1106  15.1275  15.1618  15.1845  15.2163  15.2227
    15.2295  15.2431  15.2713  15.2787  15.2898  15.3368  15.3491  15.3508
    15.4201  15.4417  15.4583  15.4832  15.4929  15.5416  15.5711  15.6130
    15.6143  15.6657  15.7352  15.8330  15.8620  15.8652  15.8997  15.9832
    15.9838  15.9896  16.0243  16.1440  16.1474  16.1522  16.1776  16.2176
    16.2804  16.2813  16.3268  16.4016

          k = 0.0000 0.0000 0.0423 ( 63132 PWs)   bands (ev):

   -20.4412 -20.3871 -20.3064 -20.1977 -20.0573 -19.8863 -19.6867 -19.4588
   -19.2021 -18.9167 -18.6018 -18.2528 -17.8826 -17.4884 -17.0725 -16.7611
   -16.7108 -16.6395 -16.6343 -16.5301 -16.4045 -16.2431 -16.1912 -16.0504
   -15.8635 -15.7119 -15.6231 -15.3659 -15.2752 -15.0930 -14.9065 -14.8212
   -14.7143 -13.6531 -13.6322 -13.3393 -13.3341 -12.9528 -12.9274 -12.6759
   -12.6360 -12.5787 -12.5478 -12.5298 -12.5012 -12.4189 -12.3216 -12.2816
   -12.2326 -12.2072 -12.0619 -11.5973 -11.1102 -10.7500 -10.7087 -10.6770
   -10.5345 -10.4876 -10.3782 -10.2339 -10.0403  -9.9618  -9.9420  -9.6445
    -9.4963  -9.4754  -9.3033  -9.0453  -8.9272  -8.9265  -8.6509  -8.5059
    -8.4948  -8.4331  -8.3795  -8.3388  -8.2788  -8.2105  -8.0981  -8.0456
    -7.9152  -7.8641  -7.8455  -7.7232  -7.6124  -7.5886  -7.5096  -7.4103
    -7.3470  -7.2525  -7.1709  -7.0496  -6.8164  -6.7460  -6.7211  -6.4765
    -6.3619  -6.2708  -6.1483  -5.9699  -5.8930  -5.7896  -5.6117  -5.5576
    -5.4256  -5.3697  -5.1616  -5.1415  -5.1246  -4.9895  -4.9580  -4.8737
    -4.7792  -4.6760  -4.6710  -4.5801  -4.3924  -4.3333  -4.2428  -4.2192
    -4.1197  -3.9650  -3.7779  -3.7630  -3.5639  -3.3451  -3.3085  -3.0828
    -2.9263  -2.8315  -2.6182  -2.6060  -2.4548  -2.4493   0.1439   0.1937
     0.2789   0.3916   0.5712   0.6552   0.9267   0.9754   1.1747   1.3824
     1.4551   1.5477   1.6701   1.7561   1.8130   1.8471   1.8632   1.9850
     2.1561   2.2777   2.3061   2.3968   2.4685   2.5526   2.6282   2.7655
     2.9912   3.1459   3.1929   3.4794   3.5522   3.6693   3.7320   3.8035
     3.8146   3.9025   3.9919   4.0339   4.0827   4.2608   4.2967   4.3859
     4.4149   4.4793   4.6736   4.7562   4.7698   5.0208   5.0523   5.0974
     5.1541   5.1874   5.1959   5.2150   5.3105   5.3696   5.5432   5.5869
     5.6712   5.6993   5.8003   5.8758   5.9638   6.0518   6.1317   6.2778
     6.3659   6.4482   6.4699   6.5280   6.5414   6.6189   6.6586   6.8355
     6.8577   6.8895   6.9458   7.1114   7.1254   7.1645   7.2533   7.2644
     7.2780   7.2849   7.3277   7.3342   7.3469   7.3493   7.3923   7.4026
     7.4407   7.4423   7.4703   7.5110   7.5311   7.5324   7.6028   7.6309
     7.6845   7.7337   7.7731   7.8269   7.8564   7.8828   7.8935   7.9630
     8.0443   8.0470   8.0534   8.0963   8.1131   8.1347   8.1604   8.2291
     8.2909   8.3115   8.3710   8.3877   8.4134   8.5079   8.5127   8.5429
     8.5721   8.6266   8.7371   8.7753   8.8428   8.8528   8.8660   8.8762
     8.9326   8.9712   9.0060   9.0556   9.0682   9.0878   9.0974   9.1279
     9.1990   9.2243   9.2498   9.2691   9.2856   9.2952   9.3441   9.3911
     9.3927   9.4109   9.4319   9.4518   9.4655   9.5189   9.5673   9.5880
     9.5926   9.6333   9.7022   9.7047   9.7206   9.8264   9.8277   9.8822
     9.8976   9.9470   9.9637   9.9968  10.0128  10.0398  10.0703  10.0922
    10.1146  10.1388  10.1963  10.2235  10.2304  10.2710  10.2860  10.2890
    10.2934  10.2984  10.3330  10.3405  10.3734  10.4434  10.4676  10.4688
    10.4998  10.5430  10.6388  10.6640  10.7269  10.7774  10.8447  10.8566
    10.8653  10.9860  10.9883  11.1216  11.1897  11.2018  11.2554  11.3257
    11.3339  11.3374  11.3960  11.3984  11.4575  11.4731  11.4836  11.5544
    11.5740  11.6519  11.6604  11.7070  11.7088  11.7409  11.7942  11.7977
    11.8936  11.9007  11.9229  11.9282  11.9583  11.9793  12.0220  12.0247
    12.0510  12.0789  12.0800  12.0913  12.1406  12.1626  12.2342  12.2396
    12.2506  12.2644  12.3105  12.3237  12.3267  12.3640  12.4051  12.4064
    12.4153  12.4866  12.4894  12.5043  12.5174  12.5466  12.5820  12.5919
    12.5965  12.6115  12.6476  12.6496  12.6516  12.6657  12.6763  12.7230
    12.7558  12.7760  12.8027  12.8441  12.8575  12.8604  12.8784  12.9168
    12.9345  12.9399  12.9490  12.9713  12.9767  13.0194  13.0881  13.1150
    13.1592  13.1896  13.2100  13.2276  13.2743  13.2778  13.3051  13.3701
    13.4607  13.5648  13.5747  13.5811  13.6212  13.6224  13.6354  13.7189
    13.8084  13.8229  13.8509  13.9000  14.0299  14.0963  14.1275  14.1288
    14.2317  14.2339  14.2760  14.3373  14.3865  14.4155  14.4489  14.4975
    14.6296  14.6534  14.6987  14.7421  14.7685  14.8088  14.8610  14.8890
    14.9299  14.9533  14.9758  15.0182  15.0518  15.0634  15.0717  15.0795
    15.1031  15.1518  15.1641  15.2181  15.2183  15.2736  15.2838  15.2900
    15.3499  15.3612  15.3785  15.3852  15.4037  15.4755  15.4819  15.5110
    15.5120  15.5182  15.5334  15.5773  15.5813  15.6459  15.6769  15.6811
    15.7598  15.7861  15.8762  15.8823  15.8939  15.9168  15.9246  15.9310
    15.9915  16.0252  16.0456  16.1575  16.1819  16.2607  16.2778  16.2873
    16.3566  16.3964  16.4162  16.4281

          k = 0.0000 0.0000 0.0469 ( 63170 PWs)   bands (ev):

   -20.3962 -20.3422 -20.2616 -20.1529 -20.0126 -19.8416 -19.6422 -19.4145
   -19.1580 -18.8728 -18.5582 -18.2096 -17.8400 -17.4466 -17.0328 -16.9395
   -16.8883 -16.8114 -16.7132 -16.5983 -16.5788 -16.4141 -16.2482 -16.1322
   -16.0274 -15.7882 -15.6944 -15.5226 -15.3032 -15.2052 -15.0094 -14.8797
   -14.8111 -13.7250 -13.6791 -13.4527 -13.3196 -13.0779 -12.8830 -12.6520
   -12.4665 -12.4321 -12.3925 -12.3384 -12.2679 -12.2058 -12.1920 -12.1451
   -12.0967 -12.0269 -12.0128 -11.7307 -11.2429 -10.7479 -10.5900 -10.5441
   -10.4538 -10.3386 -10.2948 -10.1232 -10.0543  -9.9086  -9.7730  -9.6010
    -9.4639  -9.4444  -9.1601  -9.0314  -8.9748  -8.8112  -8.5467  -8.4861
    -8.4411  -8.4371  -8.3794  -8.2853  -8.1732  -8.1571  -8.0493  -7.9925
    -7.9454  -7.8249  -7.7926  -7.7023  -7.5599  -7.5381  -7.4584  -7.3662
    -7.3434  -7.2950  -7.1102  -6.9983  -6.8590  -6.7744  -6.6706  -6.4567
    -6.3802  -6.3126  -6.1569  -5.9609  -5.9223  -5.8646  -5.6646  -5.5424
    -5.5122  -5.4391  -5.2720  -5.2501  -5.1073  -5.0969  -5.0824  -4.9870
    -4.8778  -4.7584  -4.6639  -4.6386  -4.5617  -4.5028  -4.4127  -4.2918
    -4.1876  -4.1360  -3.9496  -3.7583  -3.7218  -3.5065  -3.3180  -3.2563
    -3.0036  -2.9509  -2.7708  -2.6822  -2.5994  -2.5582   0.2249   0.2970
     0.3298   0.5381   0.5631   0.8273   0.9276   1.1121   1.3709   1.3850
     1.5897   1.7621   1.8921   1.9024   1.9841   2.0452   2.0822   2.1000
     2.2166   2.3381   2.3676   2.4578   2.4603   2.5300   2.6895   2.8271
     3.0474   3.0525   3.2544   3.5405   3.6127   3.6309   3.7935   3.8171
     3.8662   3.9629   4.0520   4.0949   4.1437   4.2852   4.3509   4.3584
     4.4468   4.5405   4.7341   4.8116   4.8302   4.9278   5.1133   5.1579
     5.2147   5.2370   5.2542   5.2755   5.3708   5.4301   5.5058   5.6035
     5.7266   5.7503   5.8592   5.9364   5.9944   6.1039   6.1705   6.2658
     6.3331   6.4359   6.5120   6.5524   6.6074   6.6353   6.6489   6.8290
     6.8514   6.8811   6.9111   7.1013   7.1181   7.1949   7.2186   7.2200
     7.2332   7.2344   7.2453   7.2785   7.2854   7.3260   7.3298   7.3409
     7.3849   7.3895   7.4015   7.4242   7.4431   7.4630   7.4720   7.4984
     7.5327   7.6189   7.6376   7.7637   7.8337   7.8541   7.8646   7.8709
     7.9052   7.9404   7.9553   8.0655   8.1337   8.1431   8.1498   8.1554
     8.2769   8.2904   8.3249   8.3568   8.3905   8.3990   8.4519   8.4708
     8.5380   8.6011   8.6125   8.6628   8.6960   8.6985   8.7346   8.7521
     8.7765   8.8169   8.8259   8.8670   8.8970   8.9942   9.0205   9.0772
     9.0860   9.0923   9.0950   9.1450   9.2020   9.2047   9.2456   9.2984
     9.3168   9.3246   9.3861   9.4226   9.4254   9.4447   9.4493   9.4497
     9.5095   9.5235   9.5589   9.5737   9.6389   9.7690   9.7932   9.8191
     9.8512   9.8851   9.9240   9.9384   9.9683  10.0215  10.0265  10.0618
    10.0674  10.0874  10.1299  10.1306  10.1682  10.1692  10.1744  10.2188
    10.2779  10.3032  10.3108  10.3377  10.3458  10.3555  10.3952  10.4015
    10.4523  10.5181  10.5205  10.5569  10.6121  10.6765  10.6919  10.7771
    10.8314  10.8954  10.9073  11.0138  11.0384  11.0866  11.1650  11.2072
    11.3189  11.3397  11.3929  11.3942  11.4057  11.4344  11.4349  11.4898
    11.5269  11.5801  11.6032  11.7111  11.7325  11.7674  11.7858  11.7990
    11.8486  11.8654  11.9255  11.9507  11.9827  11.9857  12.0109  12.0470
    12.0481  12.0763  12.1449  12.1525  12.1678  12.1902  12.1950  12.2053
    12.2372  12.2756  12.3070  12.3388  12.3474  12.3538  12.3917  12.4056
    12.4291  12.4572  12.4724  12.5038  12.5325  12.5394  12.5658  12.6051
    12.6059  12.6265  12.6428  12.6452  12.6566  12.6669  12.6745  12.7027
    12.7248  12.8529  12.8789  12.9038  12.9066  12.9283  12.9396  12.9493
    13.0823  13.1076  13.1474  13.1594  13.1750  13.1890  13.1944  13.2302
    13.2450  13.2457  13.2506  13.2613  13.2883  13.3366  13.3723  13.3808
    13.4185  13.4324  13.5961  13.6168  13.6264  13.6397  13.6703  13.7387
    13.7609  13.7725  13.8848  13.8906  13.9860  13.9912  14.0978  14.1977
    14.2080  14.2483  14.2796  14.3104  14.3440  14.3778  14.4759  14.4969
    14.6878  14.7060  14.7290  14.7673  14.7807  14.8160  14.8469  14.8579
    14.9296  14.9453  14.9827  15.0385  15.0451  15.1081  15.1097  15.1465
    15.1996  15.2129  15.2503  15.2507  15.2985  15.3597  15.3708  15.3923
    15.4072  15.4206  15.4857  15.5021  15.5195  15.5579  15.5674  15.5814
    15.5909  15.6243  15.6462  15.7139  15.7271  15.7671  15.7734  15.8056
    15.8199  15.8958  15.9005  15.9013  15.9086  15.9675  15.9737  15.9783
    16.0160  16.1040  16.1219  16.2153  16.2386  16.2498  16.2874  16.3128
    16.3161  16.3358  16.3667  16.3957

          k = 0.0000 0.0000 0.0516 ( 63186 PWs)   bands (ev):

   -20.3466 -20.2926 -20.2120 -20.1034 -19.9632 -19.7924 -19.5931 -19.3656
   -19.1094 -18.8244 -18.5101 -18.1620 -17.7931 -17.4010 -17.1153 -17.0633
   -17.0024 -16.9734 -16.8849 -16.7497 -16.6117 -16.5327 -16.4090 -16.1924
   -16.1095 -15.9455 -15.7296 -15.6176 -15.4340 -15.2140 -15.1475 -14.9186
   -14.9157 -13.8033 -13.7098 -13.5466 -13.3305 -13.1649 -12.8920 -12.7220
   -12.4421 -12.2791 -12.1847 -12.1467 -12.0962 -12.0460 -12.0286 -11.9478
   -11.8762 -11.8623 -11.8392 -11.8059 -11.3751 -10.8699 -10.4318 -10.3988
   -10.3510 -10.2851 -10.1654 -10.0697  -9.8920  -9.8644  -9.6719  -9.5966
    -9.4062  -9.3011  -9.1513  -8.9851  -8.9263  -8.6887  -8.5796  -8.4754
    -8.3818  -8.3381  -8.3202  -8.2262  -8.0982  -8.0845  -8.0488  -7.9809
    -7.9338  -7.7470  -7.7343  -7.6452  -7.5367  -7.5020  -7.4597  -7.3364
    -7.3181  -7.2376  -7.0673  -6.9658  -6.9417  -6.7430  -6.6150  -6.4987
    -6.4475  -6.2583  -6.1725  -6.0726  -5.9154  -5.8698  -5.7439  -5.6564
    -5.5249  -5.4623  -5.4148  -5.3535  -5.2723  -5.2138  -5.1031  -5.0361
    -4.9807  -4.8511  -4.7533  -4.7342  -4.6753  -4.6012  -4.5821  -4.4644
    -4.3092  -4.1621  -4.1163  -3.9152  -3.7187  -3.6803  -3.4297  -3.3181
    -3.1733  -2.9846  -2.9284  -2.7649  -2.7308  -2.6707   0.3091   0.3348
     0.4512   0.5377   0.7040   0.8767   1.0025   1.2930   1.3196   1.5699
     1.8000   1.8151   1.9837   2.1210   2.2198   2.2835   2.2859   2.3264
     2.3463   2.3637   2.4047   2.4355   2.5253   2.5980   2.7572   2.8951
     2.9435   3.1202   3.3224   3.5371   3.6081   3.6793   3.8614   3.8751
     3.9292   4.0302   4.1112   4.1622   4.2077   4.2111   4.4023   4.4266
     4.5141   4.6081   4.7959   4.8011   4.8968   4.8987   5.1806   5.2248
     5.2817   5.2980   5.3177   5.3421   5.4052   5.4369   5.4970   5.6701
     5.7852   5.7956   5.9229   6.0026   6.0437   6.1491   6.1716   6.1953
     6.3676   6.3897   6.5674   6.5818   6.5950   6.6785   6.6883   6.7052
     6.8283   6.9089   6.9326   6.9805   7.0392   7.0544   7.0858   7.0990
     7.1772   7.1937   7.2022   7.2221   7.2280   7.2527   7.2845   7.2995
     7.3077   7.3391   7.3711   7.3835   7.4107   7.4156   7.4311   7.4670
     7.5239   7.5340   7.5876   7.5923   7.6648   7.7590   7.7602   7.8241
     7.8293   7.9193   7.9324   7.9703   8.0318   8.0704   8.1153   8.1328
     8.1751   8.2175   8.2857   8.3686   8.3703   8.4258   8.4464   8.4721
     8.4722   8.4762   8.5054   8.5325   8.5433   8.5572   8.6446   8.6465
     8.6643   8.6728   8.7104   8.7606   8.7749   8.8289   8.8587   8.8908
     8.9508   8.9865   9.0378   9.0523   9.0861   9.0985   9.1805   9.1940
     9.1975   9.2700   9.2727   9.3465   9.3828   9.3957   9.3995   9.4111
     9.4183   9.4499   9.5224   9.5252   9.5776   9.6126   9.7107   9.7269
     9.7316   9.7373   9.7715   9.7752   9.8469   9.8934   9.9468   9.9793
    10.0010  10.0837  10.0908  10.0953  10.0999  10.1296  10.1582  10.1986
    10.2291  10.2336  10.2940  10.3131  10.3581  10.3956  10.3983  10.4028
    10.4327  10.4608  10.4728  10.4904  10.5401  10.5781  10.5817  10.6760
    10.7474  10.8312  10.8899  10.8942  10.9358  10.9780  11.0409  11.1870
    11.2153  11.2540  11.2721  11.3290  11.4060  11.4136  11.4557  11.4590
    11.4660  11.5479  11.5900  11.6010  11.6514  11.7786  11.8314  11.8329
    11.8416  11.9208  11.9211  11.9785  11.9810  12.0103  12.0367  12.0415
    12.0474  12.1029  12.1635  12.1671  12.1727  12.1920  12.2007  12.2136
    12.2143  12.2777  12.2944  12.3244  12.3648  12.3754  12.3805  12.3869
    12.4075  12.4205  12.4226  12.4504  12.4834  12.4882  12.5349  12.5553
    12.6037  12.6768  12.6823  12.6932  12.6956  12.7366  12.7641  12.7695
    12.8193  12.8843  12.9178  12.9270  12.9498  13.0044  13.0143  13.0179
    13.0221  13.0719  13.1036  13.1655  13.1671  13.1874  13.2336  13.2564
    13.3026  13.3210  13.3636  13.4113  13.4237  13.4601  13.5189  13.5292
    13.5603  13.5640  13.5817  13.5841  13.6289  13.6825  13.6971  13.7212
    13.7252  13.7907  13.8375  13.8546  13.9528  14.0034  14.0514  14.1173
    14.1207  14.2860  14.2906  14.2996  14.3388  14.4039  14.4842  14.5663
    14.6540  14.7089  14.7441  14.7486  14.7614  14.7884  14.8531  14.8549
    14.9102  14.9508  15.0685  15.1133  15.1697  15.1705  15.1992  15.2281
    15.2451  15.2597  15.2819  15.3163  15.3509  15.3665  15.4189  15.4189
    15.5100  15.5315  15.5630  15.5719  15.5878  15.5973  15.6275  15.6626
    15.6685  15.6825  15.7270  15.7384  15.8183  15.8629  15.8638  15.8712
    15.8795  15.9008  15.9015  15.9628  15.9725  15.9910  16.0340  16.0959
    16.1142  16.1495  16.1555  16.1787  16.1935  16.2046  16.2336  16.2604
    16.2672  16.3834  16.3891  16.4124

          k = 0.0000 0.0000 0.0563 ( 63188 PWs)   bands (ev):

   -20.2923 -20.2382 -20.1578 -20.0492 -19.9092 -19.7385 -19.5394 -19.3120
   -19.0561 -18.7715 -18.4576 -18.1101 -17.7421 -17.3525 -17.2873 -17.2346
   -17.1592 -17.0543 -16.9606 -16.8990 -16.7651 -16.5729 -16.5087 -16.3497
   -16.1477 -16.0292 -15.8701 -15.6032 -15.5840 -15.2887 -15.2068 -15.0315
   -14.9618 -13.8632 -13.7741 -13.5866 -13.4147 -13.1707 -12.9910 -12.6998
   -12.5332 -12.2428 -12.0580 -11.9342 -11.8978 -11.8613 -11.8433 -11.7877
   -11.7138 -11.6924 -11.6431 -11.6116 -11.4942 -10.9982 -10.4837 -10.2483
   -10.2271 -10.1031 -10.0591  -9.9315  -9.8977  -9.7179  -9.6329  -9.4216
    -9.4143  -9.1938  -9.1347  -8.9050  -8.8355  -8.6915  -8.5208  -8.4286
    -8.3169  -8.2555  -8.2402  -8.1616  -8.1329  -8.0338  -8.0166  -7.8974
    -7.8696  -7.6800  -7.6705  -7.6305  -7.5761  -7.4386  -7.4157  -7.2804
    -7.2674  -7.1749  -7.1179  -6.9890  -6.8797  -6.7284  -6.6168  -6.5541
    -6.4509  -6.2000  -6.1999  -6.1989  -5.9699  -5.8615  -5.8124  -5.7556
    -5.6349  -5.5610  -5.4822  -5.4383  -5.4078  -5.3388  -5.2232  -5.0873
    -4.9861  -4.9484  -4.9081  -4.8492  -4.8474  -4.7601  -4.6384  -4.5560
    -4.4806  -4.3016  -4.1166  -4.0890  -3.8538  -3.7010  -3.5991  -3.3592
    -3.3015  -3.1052  -3.0014  -2.8994  -2.8150  -2.7858   0.3729   0.3957
     0.5285   0.5771   0.8305   0.8570   1.1740   1.2405   1.4872   1.7228
     1.7743   2.0132   2.2083   2.2617   2.3566   2.3569   2.4618   2.4776
     2.5099   2.5337   2.5781   2.5991   2.6004   2.6724   2.8313   2.8352
     2.9696   3.1943   3.3969   3.4278   3.6821   3.7522   3.9359   3.9495
     3.9643   4.1038   4.1097   4.2115   4.2359   4.2849   4.4746   4.5013
     4.5877   4.6818   4.6845   4.8742   4.9646   4.9695   5.2541   5.2903
     5.2981   5.3551   5.3631   5.3881   5.4147   5.5082   5.5701   5.7428
     5.8148   5.8421   5.9893   6.0698   6.1055   6.1069   6.1411   6.1859
     6.3255   6.4430   6.5462   6.5727   6.5738   6.6573   6.7049   6.7284
     6.7577   6.7883   6.8296   6.9264   6.9424   6.9609   6.9764   6.9904
     7.0590   7.1118   7.1425   7.1434   7.1451   7.2099   7.2104   7.2577
     7.2815   7.3151   7.3440   7.3856   7.3876   7.3880   7.4307   7.4835
     7.4918   7.5155   7.5615   7.5690   7.5794   7.6141   7.6182   7.6424
     7.7745   7.8305   7.8741   7.9090   7.9688   8.0126   8.0466   8.0599
     8.1281   8.1702   8.2159   8.2403   8.2415   8.2513   8.2514   8.3259
     8.3809   8.4003   8.4093   8.4956   8.5374   8.5395   8.5508   8.6058
     8.6170   8.6409   8.6547   8.6826   8.7113   8.7381   8.7709   8.8160
     8.8484   8.8537   8.8749   8.8815   8.9341   8.9699   9.1027   9.1559
     9.1838   9.2132   9.2164   9.2260   9.2297   9.2422   9.2597   9.3497
     9.4402   9.4570   9.4735   9.4776   9.5344   9.5345   9.5864   9.5893
     9.6230   9.6323   9.6484   9.6588   9.6878   9.6945   9.7519   9.9127
     9.9502   9.9935  10.0150  10.0657  10.0686  10.0841  10.1008  10.1619
    10.2026  10.2152  10.2775  10.3088  10.3159  10.3208  10.3482  10.4319
    10.4403  10.4654  10.5039  10.5135  10.5368  10.5412  10.5562  10.5833
    10.6405  10.7444  10.8150  10.8329  10.8653  10.9523  10.9777  11.0532
    11.0776  11.2163  11.2287  11.2327  11.2416  11.3127  11.4206  11.4436
    11.5252  11.5269  11.5324  11.6536  11.6683  11.6751  11.8503  11.8678
    11.8757  11.9052  11.9450  11.9792  12.0063  12.0226  12.0290  12.0350
    12.0430  12.1099  12.1216  12.1608  12.1622  12.1853  12.1866  12.2272
    12.2338  12.2467  12.2837  12.2893  12.3277  12.3385  12.3681  12.3874
    12.4140  12.4234  12.4306  12.4600  12.4988  12.5076  12.5769  12.5801
    12.6152  12.6819  12.7007  12.7428  12.7469  12.8050  12.8110  12.8295
    12.8371  12.8597  12.8656  12.8864  12.9643  12.9796  12.9903  13.0030
    13.0798  13.0967  13.1187  13.1239  13.2015  13.2118  13.2286  13.2993
    13.3514  13.3721  13.3741  13.4422  13.4566  13.5039  13.5445  13.5717
    13.5906  13.6045  13.6273  13.6666  13.7617  13.7777  13.7871  13.8013
    13.8219  13.8486  13.8507  13.8875  13.9791  13.9980  14.0174  14.0425
    14.1258  14.2877  14.2928  14.3054  14.3711  14.3998  14.4742  14.5076
    14.5405  14.6437  14.6577  14.7230  14.8230  14.8369  14.8456  14.9413
    14.9827  15.0177  15.1003  15.1013  15.2331  15.2625  15.2915  15.3007
    15.3095  15.3392  15.3441  15.3719  15.3794  15.3867  15.4206  15.4546
    15.4836  15.5284  15.5842  15.6199  15.6779  15.6796  15.7048  15.7056
    15.7070  15.7380  15.7594  15.7637  15.7962  15.8506  15.8629  15.8664
    15.8843  15.8912  15.9504  16.0028  16.0409  16.0437  16.0625  16.0787
    16.1110  16.1328  16.1498  16.2056  16.2243  16.2417  16.2543  16.3484
    16.3568  16.3600  16.3696  16.3738

          k = 0.0000 0.0000 0.0610 ( 63206 PWs)   bands (ev):

   -20.2333 -20.1793 -20.0988 -19.9904 -19.8505 -19.6799 -19.4810 -19.2539
   -18.9983 -18.7140 -18.4006 -18.0539 -17.6873 -17.4559 -17.4046 -17.3262
   -17.3036 -17.2152 -17.0937 -16.9273 -16.8862 -16.7298 -16.5454 -16.4274
   -16.2916 -16.0224 -16.0025 -15.7319 -15.5795 -15.4227 -15.2211 -15.1306
   -15.0226 -13.9036 -13.8618 -13.5834 -13.5282 -13.1388 -13.1138 -12.6563
   -12.6508 -12.1754 -12.1706 -11.7643 -11.6808 -11.6778 -11.6456 -11.5985
   -11.5397 -11.4827 -11.4784 -11.4189 -11.4140 -11.1220 -10.6042 -10.1237
   -10.0423 -10.0166  -9.9429  -9.8923  -9.7111  -9.6234  -9.4891  -9.4754
    -9.2544  -9.1567  -8.9726  -8.9458  -8.7001  -8.6849  -8.4240  -8.3906
    -8.2466  -8.2358  -8.1852  -8.0914  -8.0841  -7.9676  -7.9638  -7.8232
    -7.8000  -7.7147  -7.6188  -7.6012  -7.5078  -7.3699  -7.3601  -7.2491
    -7.2266  -7.1917  -7.1068  -6.9617  -6.8126  -6.7778  -6.6866  -6.4881
    -6.4701  -6.3332  -6.2412  -6.1346  -6.0360  -6.0058  -5.8513  -5.7843
    -5.7504  -5.6938  -5.6606  -5.5777  -5.4707  -5.3491  -5.3469  -5.1971
    -5.0825  -5.0497  -5.0241  -4.9456  -4.9343  -4.9327  -4.8115  -4.6611
    -4.5031  -4.4749  -4.2619  -4.0872  -4.0195  -3.7821  -3.6673  -3.5184
    -3.3115  -3.2635  -3.0428  -3.0393  -2.9025  -2.8937   0.4158   0.4799
     0.5290   0.7014   0.7883   1.0087   1.1693   1.3449   1.6347   1.6742
     1.9739   2.1565   2.2316   2.4359   2.4360   2.5568   2.5907   2.5946
     2.6794   2.7031   2.7290   2.7533   2.7870   2.8360   2.8608   2.9118
     3.0505   3.2750   3.3115   3.4779   3.7625   3.8311   3.8992   4.0168
     4.0318   4.1437   4.1837   4.2865   4.3158   4.3643   4.5545   4.5639
     4.5826   4.6678   4.7617   4.9524   5.0421   5.0479   5.1698   5.3337
     5.3776   5.4249   5.4348   5.4610   5.4925   5.5829   5.6492   5.7810
     5.8204   5.8764   6.0154   6.0480   6.1058   6.1547   6.1630   6.1762
     6.3656   6.4093   6.4374   6.4819   6.5048   6.5986   6.6084   6.7074
     6.7383   6.7408   6.7825   6.8414   6.8933   6.9034   6.9066   6.9542
     6.9634   6.9782   7.0007   7.0773   7.0885   7.1119   7.2016   7.2455
     7.2563   7.3040   7.3318   7.3448   7.3484   7.3872   7.4003   7.4253
     7.4371   7.5003   7.5109   7.5130   7.5611   7.5723   7.6123   7.6517
     7.6615   7.7096   7.7271   7.7911   7.8904   7.9414   7.9678   8.0020
     8.0161   8.0246   8.0660   8.0785   8.1430   8.1527   8.1849   8.2207
     8.2251   8.2816   8.2868   8.3899   8.4083   8.4420   8.4574   8.4629
     8.5611   8.5807   8.6104   8.6520   8.6528   8.6993   8.7239   8.7609
     8.8147   8.8387   8.8692   8.8820   8.8884   8.9262   9.0013   9.0065
     9.0535   9.0558   9.0571   9.0796   9.1486   9.2354   9.2561   9.2865
     9.2965   9.3124   9.3556   9.3806   9.4108   9.4987   9.5099   9.5125
     9.5166   9.5216   9.5681   9.6059   9.6547   9.7079   9.7133   9.7449
     9.7451   9.8844   9.9280   9.9938   9.9999  10.0212  10.0355  10.0913
    10.1443  10.1925  10.1977  10.2364  10.3088  10.3543  10.3616  10.3952
    10.4119  10.4643  10.5185  10.5297  10.5518  10.5675  10.5900  10.6096
    10.6532  10.6589  10.7081  10.7489  10.8251  10.8666  10.9125  11.0182
    11.0229  11.0330  11.1539  11.1546  11.2178  11.2284  11.2424  11.4481
    11.5145  11.5418  11.6025  11.6032  11.7079  11.7175  11.7303  11.8142
    11.8513  11.9121  11.9280  11.9838  11.9862  11.9993  12.0643  12.0694
    12.0713  12.0786  12.1067  12.1180  12.1306  12.1984  12.2085  12.2089
    12.2518  12.2612  12.2838  12.2899  12.2930  12.3215  12.3603  12.4000
    12.4426  12.4764  12.4982  12.5084  12.5248  12.5298  12.5477  12.5573
    12.5763  12.6829  12.6975  12.7112  12.7801  12.7900  12.7969  12.8217
    12.8707  12.8783  12.8904  12.9129  12.9214  12.9601  12.9848  13.0399
    13.0832  13.0892  13.1424  13.1585  13.1724  13.1939  13.2527  13.3214
    13.3420  13.3486  13.3932  13.4376  13.4438  13.4967  13.5223  13.5536
    13.5713  13.5811  13.6721  13.8050  13.8149  13.8472  13.8529  13.9130
    13.9384  13.9441  13.9449  13.9507  14.0411  14.0842  14.1031  14.1108
    14.2009  14.2312  14.2438  14.3232  14.3468  14.4426  14.4581  14.4692
    14.5337  14.5793  14.5929  14.6992  14.8011  14.8815  14.8932  14.8989
    14.9863  15.0694  15.1142  15.1186  15.2034  15.2948  15.3039  15.3081
    15.3548  15.3835  15.4014  15.4026  15.4281  15.4587  15.4678  15.4703
    15.5561  15.5672  15.5980  15.5981  15.6022  15.6226  15.6370  15.6563
    15.6995  15.7304  15.7608  15.8386  15.8498  15.8502  15.8730  15.9125
    15.9141  15.9155  15.9965  15.9984  16.0213  16.0811  16.0867  16.1035
    16.1183  16.1375  16.1599  16.1994  16.2339  16.2472  16.2747  16.3203
    16.3332  16.4146  16.4395  16.5004

          k = 0.0000 0.0000 0.0657 ( 63212 PWs)   bands (ev):

   -20.1696 -20.1156 -20.0353 -19.9269 -19.7871 -19.6168 -19.4181 -19.1913
   -18.9359 -18.6521 -18.3394 -17.9937 -17.6325 -17.6188 -17.5684 -17.4883
   -17.3914 -17.2534 -17.2383 -17.0832 -16.9181 -16.8049 -16.6903 -16.4436
   -16.3925 -16.1699 -15.9782 -15.8600 -15.6157 -15.4931 -15.3097 -15.1657
   -15.0977 -13.9473 -13.9275 -13.6399 -13.5649 -13.2335 -13.1016 -12.7760
   -12.6028 -12.2867 -12.1115 -11.7813 -11.6686 -11.4252 -11.3929 -11.3502
   -11.3469 -11.2937 -11.2925 -11.2315 -11.1980 -11.1768 -10.7261 -10.1923
    -9.8874  -9.8523  -9.8274  -9.7025  -9.5967  -9.5334  -9.5014  -9.2963
[...]
     2.3673   2.7002   2.8546   3.2576   3.3291   3.4218   3.5368   3.6082
     3.6875   3.7586   3.7709   3.8246   3.9231   4.0690   4.1576   4.2832
     4.3407   4.3602   4.4684   4.4994   4.5007   4.5745   4.6480   4.7367
     4.7702   4.7879   4.8448   4.8700   4.8864   4.9855   5.0334   5.0441
     5.0958   5.1718   5.1923   5.2249   5.2543   5.2546   5.3079   5.3378
     5.3451   5.3463   5.3910   5.4678   5.5830   5.6068   5.6716   5.7343
     5.7579   5.7580   5.7849   5.9819   6.0067   6.0086   6.0678   6.0804
     6.1771   6.2027   6.2775   6.2800   6.2895   6.3498   6.3710   6.3747
     6.4331   6.4396   6.4420   6.4764   6.4944   6.5021   6.5103   6.5238
     6.5307   6.5611   6.5835   6.6094   6.6219   6.6457   6.6634   6.7168
     6.7225   6.7609   6.8292   6.8372   6.8723   6.8870   6.9498   6.9502
     6.9903   6.9920   7.0133   7.0177   7.0453   7.0929   7.1161   7.1190
     7.1419   7.1724   7.1773   7.2544   7.2857   7.3388   7.3629   7.3746
     7.4087   7.4194   7.4400   7.4445   7.4669   7.4870   7.5215   7.5655
     7.6007   7.6555   7.6604   7.7239   7.7397   7.7704   7.7911   7.8535
     7.9018   7.9458   7.9580   7.9677   8.0365   8.0389   8.0783   8.0968
     8.1487   8.1584   8.1832   8.2147   8.2422   8.3328   8.3934   8.4209
     8.4588   8.5213   8.5476   8.5570   8.5643   8.5835   8.6417   8.7464
     8.7544   8.7987   8.8093   8.8446   8.9425   8.9743   9.1259   9.1354
     9.1808   9.2479   9.2536   9.3251   9.3464   9.3512   9.4722   9.4788
     9.4906   9.5737   9.6157   9.6225   9.6918   9.8403   9.8467   9.8708
     9.9392  10.0432  10.1357  10.1901  10.2278  10.2631  10.3215  10.3883
    10.4080  10.4177  10.4470  10.4897  10.6092  10.6098  10.6466  10.6766
    10.6850  10.7048  10.7658  10.7714  10.7910  10.8405  10.8728  11.0208
    11.0372  11.0680  11.1010  11.1141  11.1463  11.1488  11.2566  11.2818
    11.2902  11.3187  11.3622  11.3869  11.4474  11.4889  11.5158  11.5168
    11.5736  11.5820  11.6344  11.6606  11.6734  11.6736  11.6947  11.7640
    11.7882  11.7924  11.8144  11.8636  11.8824  11.9000  11.9570  11.9781
    12.0300  12.0749  12.1480  12.1835  12.2998  12.3286  12.3452  12.4332
    12.4446  12.4597  12.4946  12.5190  12.5259  12.5268  12.5378  12.5623
    12.5913  12.6098  12.6364  12.6471  12.6517  12.7662  12.7852  12.7963
    12.8702  12.8992  12.9064  12.9406  12.9620  12.9628  13.0228  13.0575
    13.0749  13.1076  13.1685  13.1764  13.2411  13.2980  13.3612  13.3816
    13.4008  13.4502  13.4718  13.4766  13.5360  13.5537  13.6101  13.6297
    13.6758  13.6836  13.7500  13.7504  13.7938  13.8110  13.8264  13.8662
    13.8827  13.8963  13.9775  14.0525  14.0769  14.0987  14.2248  14.2747
    14.2986  14.3790  14.3995  14.4131  14.4806  14.5307  14.5779  14.6177
    14.6905  14.7419  14.7515  14.8002  14.8031  14.8339  14.8799  14.8882
    14.9424  14.9696  14.9977  15.0152  15.0424  15.0541  15.1275  15.1419
    15.1493  15.1568  15.1888  15.1912  15.2408  15.2451  15.3237  15.3598
    15.4257  15.4593  15.4780  15.5476  15.5616  15.6062  15.6175  15.6453
    15.7017  15.7564  15.7717  15.7983  15.8154  15.8833  15.9306  15.9375
    15.9521  15.9676  15.9771  16.0340  16.0899  16.1231  16.1430  16.1788
    16.2280  16.2310  16.3779  16.3962  16.4256  16.4840  16.5257  16.5396
    16.5581  16.5916  16.6360  16.7030

          k = 0.0000 0.0000 0.1080 ( 63198 PWs)   bands (ev):

   -19.3879 -19.3345 -19.2553 -19.1486 -19.0112 -18.9222 -18.8701 -18.8436
   -18.7913 -18.6857 -18.6523 -18.5448 -18.4384 -18.3664 -18.2139 -18.1420
   -17.9791 -17.8721 -17.7229 -17.5676 -17.4412 -17.2293 -17.1337 -16.8710
   -16.7963 -16.4932 -16.4428 -16.1053 -16.0777 -15.7311 -15.7228 -15.4485
   -15.4473 -14.2362 -14.2196 -13.8951 -13.8538 -13.4483 -13.3890 -12.9506
   -12.8786 -12.4227 -12.3420 -11.8762 -11.7863 -11.3116 -11.2320 -10.7471
   -10.6845 -10.1893 -10.1602  -9.6917  -9.6540  -9.3325  -9.2097  -9.0859
    -9.0801  -9.0626  -9.0496  -9.0378  -8.6952  -8.3800  -8.1948  -8.1442
    -8.1402  -8.1209  -8.0670  -8.0563  -8.0306  -8.0108  -7.9877  -7.9740
    -7.9064  -7.8240  -7.7492  -7.7384  -7.6583  -7.5899  -7.5293  -7.4921
    -7.4667  -7.4502  -7.4311  -7.4244  -7.4195  -7.4144  -7.3877  -7.3841
    -7.2718  -7.2477  -7.1904  -7.1876  -7.0959  -7.0757  -7.0738  -7.0199
    -6.9713  -6.9187  -6.8118  -6.7385  -6.7068  -6.6476  -6.6280  -6.6189
    -6.5569  -6.5161  -6.4341  -6.4200  -6.3969  -6.3271  -6.2749  -6.1479
    -6.1346  -6.0796  -6.0106  -5.8863  -5.8391  -5.6262  -5.5438  -5.3488
    -5.2178  -5.0509  -4.8708  -4.7367  -4.5216  -4.4120  -4.1810  -4.0985
    -3.8712  -3.8144  -3.6238  -3.5913  -3.4750  -3.4647   0.6466   0.6483
     0.8251   0.8288   1.1400   1.1418   1.5494   1.5562   2.0153   2.0395
     2.5154   2.5638   3.0158   3.1140   3.5009   3.5578   3.6600   3.6708
     3.7533   3.8306   3.9156   3.9562   4.0647   4.1787   4.1908   4.2241
     4.2992   4.3656   4.3977   4.4440   4.4760   4.5605   4.6447   4.6899
     4.7110   4.7251   4.8607   4.9287   4.9723   4.9965   5.0793   5.1508
     5.1837   5.2151   5.2807   5.2914   5.3266   5.3493   5.4445   5.4606
     5.4789   5.5190   5.5229   5.5470   5.5673   5.5697   5.5995   5.7314
     5.7530   5.8130   5.8288   5.8308   5.9132   6.0069   6.0634   6.0907
     6.1092   6.1188   6.1320   6.1899   6.2063   6.2185   6.2768   6.4011
     6.4137   6.4191   6.4243   6.4428   6.4761   6.5065   6.5078   6.5079
     6.5200   6.5547   6.5732   6.6145   6.6369   6.6513   6.6554   6.6614
     6.6641   6.7319   6.7556   6.7561   6.7822   6.8248   6.8447   6.8557
     6.8832   6.9397   6.9947   7.0163   7.0771   7.1064   7.1649   7.1720
     7.1810   7.2183   7.2439   7.2514   7.2522   7.2784   7.2787   7.2895
     7.2977   7.3435   7.3567   7.4121   7.4469   7.4635   7.4732   7.5030
     7.6058   7.6132   7.6436   7.7058   7.7538   7.7814   7.7991   7.8544
     7.8596   7.8762   7.8812   7.8989   7.9330   7.9924   8.0319   8.0796
     8.1041   8.1762   8.1898   8.2441   8.3074   8.3200   8.3447   8.4206
     8.4508   8.4802   8.5687   8.5872   8.5944   8.6337   8.6504   8.6997
     8.7008   8.7234   8.7803   8.8400   8.9239   8.9543   8.9887   9.0763
     9.1615   9.2223   9.2469   9.3149   9.3174   9.3215   9.3297   9.4008
     9.4428   9.5984   9.6250   9.6302   9.7562   9.8362   9.8534   9.9564
     9.9843   9.9862  10.0543  10.1178  10.1843  10.2349  10.2630  10.3835
    10.4699  10.4739  10.5283  10.5703  10.6000  10.6166  10.6298  10.6602
    10.6845  10.7512  10.7814  10.8091  10.8443  10.8690  10.9114  10.9523
    11.0183  11.1476  11.1556  11.1706  11.1764  11.1957  11.2045  11.2930
    11.3027  11.3242  11.3793  11.4426  11.4764  11.5063  11.5437  11.5785
    11.6010  11.6098  11.6141  11.6662  11.6817  11.7207  11.7235  11.7528
    11.7553  11.7985  11.8078  11.8280  11.8390  11.8441  11.8891  11.9623
    11.9773  12.0449  12.0549  12.1281  12.1641  12.2688  12.2779  12.3031
    12.3554  12.3573  12.3971  12.4048  12.4182  12.4792  12.4804  12.5489
    12.6277  12.6657  12.6932  12.7349  12.7402  12.7738  12.8049  12.8434
    12.8638  12.9618  12.9633  12.9722  13.0125  13.0425  13.0800  13.0979
    13.1482  13.1514  13.1604  13.1936  13.2535  13.2687  13.3156  13.3378
    13.3515  13.4125  13.4404  13.4713  13.5255  13.5279  13.5805  13.5861
    13.6449  13.6779  13.6790  13.6850  13.7133  13.7641  13.8074  13.9199
    13.9295  13.9740  13.9886  14.0048  14.1024  14.1071  14.2078  14.2257
    14.2569  14.3108  14.3839  14.4927  14.5224  14.5855  14.5872  14.5919
    14.6338  14.6404  14.6915  14.7678  14.8151  14.8305  14.9188  14.9333
    14.9525  14.9895  15.0144  15.0195  15.0424  15.0775  15.0781  15.1176
    15.1770  15.2079  15.2122  15.2332  15.2675  15.3042  15.4006  15.4214
    15.4458  15.4954  15.5150  15.5342  15.5858  15.6078  15.6232  15.6479
    15.7548  15.7603  15.7841  15.8187  15.8228  15.8467  15.8654  15.8864
    15.9409  15.9560  16.0650  16.0786  16.0829  16.1254  16.2567  16.2663
    16.3067  16.3240  16.3530  16.3668  16.3979  16.4632  16.4637  16.5144
    16.5242  16.5689  16.6677  16.6702

          k = 0.0000 0.0000 0.1127 ( 63226 PWs)   bands (ev):

   -19.2782 -19.2249 -19.1459 -19.0454 -19.0398 -18.9922 -18.9163 -18.9001
   -18.8093 -18.7352 -18.6739 -18.5389 -18.5058 -18.3153 -18.3085 -18.0831
   -18.0638 -17.8297 -17.7844 -17.5487 -17.4769 -17.2405 -17.1382 -16.9011
   -16.7816 -16.5444 -16.4070 -16.1740 -16.0252 -15.8073 -15.6662 -15.4991
   -15.4262 -14.2662 -14.1958 -13.9548 -13.8017 -13.5211 -13.3266 -13.0276
   -12.8126 -12.5008 -12.2741 -11.9549 -11.7167 -11.3902 -11.1604 -10.8256
   -10.6085 -10.2687 -10.0739  -9.7343  -9.5833  -9.2483  -9.1862  -8.9391
    -8.8702  -8.8126  -8.8053  -8.7919  -8.7836  -8.5496  -8.3874  -8.3100
    -8.2779  -8.2708  -7.9654  -7.9516  -7.9307  -7.8904  -7.8415  -7.8294
    -7.7668  -7.7049  -7.6574  -7.6462  -7.5964  -7.5927  -7.5865  -7.5655
    -7.5552  -7.5496  -7.5304  -7.5240  -7.5227  -7.5147  -7.5097  -7.5010
    -7.2994  -7.2873  -7.1213  -7.1206  -7.1196  -7.0596  -7.0121  -6.9682
    -6.9626  -6.8490  -6.8441  -6.7894  -6.7063  -6.6993  -6.6844  -6.6674
    -6.5756  -6.4930  -6.4444  -6.4375  -6.4184  -6.3123  -6.2697  -6.2361
    -6.2270  -6.1139  -6.0176  -6.0051  -5.7547  -5.7381  -5.4780  -5.4340
    -5.1782  -5.1088  -4.8600  -4.7661  -4.5285  -4.4248  -4.2044  -4.0967
    -3.9037  -3.8060  -3.6557  -3.5866  -3.4963  -3.4715   0.6344   0.6749
     0.7758   0.8940   1.0576   1.2374   1.4499   1.6671   1.9159   2.1498
     2.4270   2.6640   2.9659   3.1772   3.5018   3.6752   3.6929   3.8022
     3.9045   3.9774   4.0226   4.0312   4.0745   4.1440   4.1443   4.2273
     4.2327   4.3064   4.3681   4.3904   4.5154   4.5419   4.5669   4.5914
     4.6898   4.7967   4.9098   4.9359   4.9629   5.0783   5.1017   5.1203
     5.2144   5.3357   5.3562   5.3979   5.4179   5.4348   5.4516   5.4853
     5.5154   5.6104   5.6276   5.6300   5.6431   5.6579   5.6600   5.6786
     5.7001   5.8431   5.8823   5.8853   5.9057   5.9394   5.9654   6.0399
     6.0534   6.0696   6.0777   6.0805   6.2176   6.2297   6.2640   6.2766
     6.2928   6.3525   6.3552   6.3766   6.4127   6.4128   6.4201   6.5011
     6.5017   6.5049   6.5841   6.6099   6.6221   6.6432   6.6613   6.6710
     6.6862   6.7142   6.7570   6.7806   6.7993   6.8171   6.8363   6.8790
     6.9211   6.9513   6.9631   6.9994   7.0568   7.0839   7.0841   7.1023
     7.1122   7.1412   7.1873   7.2157   7.2449   7.2735   7.2793   7.3298
     7.3415   7.3806   7.4012   7.4069   7.4204   7.4427   7.4453   7.4746
     7.6194   7.6351   7.6408   7.6642   7.7198   7.7207   7.7336   7.7722
     7.7944   7.7946   7.8328   7.9386   7.9914   8.0171   8.0223   8.0233
     8.1111   8.1361   8.2223   8.2422   8.3001   8.3242   8.3345   8.4381
     8.4452   8.4582   8.5036   8.5550   8.5623   8.6902   8.7009   8.7084
     8.7505   8.7812   8.8332   8.8466   8.8608   8.8658   8.9696   9.0172
     9.0936   9.1556   9.1576   9.1637   9.2840   9.2945   9.3346   9.4415
     9.5493   9.5806   9.6338   9.6925   9.7695   9.7744   9.8593   9.9234
     9.9741   9.9776  10.0864  10.1338  10.1590  10.1735  10.3278  10.3730
    10.4303  10.4348  10.4827  10.5264  10.5773  10.6505  10.6608  10.6985
    10.7514  10.7673  10.8381  10.8822  10.8968  10.9575  10.9871  11.0026
    11.0118  11.0455  11.0594  11.0763  11.1823  11.2640  11.2846  11.2870
    11.3192  11.3290  11.4041  11.4154  11.4719  11.4744  11.5028  11.5373
    11.5714  11.6081  11.6471  11.6983  11.6986  11.7520  11.7590  11.7915
    11.8191  11.8583  11.8627  11.8910  11.9200  11.9307  11.9326  11.9598
    11.9824  12.0038  12.0790  12.0828  12.0857  12.1567  12.1741  12.1798
    12.2029  12.2400  12.2576  12.2970  12.3366  12.3453  12.5062  12.5443
    12.6002  12.6691  12.6918  12.7386  12.7794  12.7796  12.8819  12.9096
    12.9121  12.9767  13.0126  13.0261  13.0421  13.0941  13.1217  13.1264
    13.1721  13.1867  13.1948  13.2417  13.2445  13.2648  13.2719  13.3051
    13.3382  13.3709  13.3891  13.4254  13.4580  13.4913  13.5505  13.6109
    13.6242  13.6451  13.6849  13.6869  13.6902  13.7596  13.7717  13.8048
    13.9356  13.9902  14.0272  14.0726  14.1083  14.1418  14.1591  14.2484
    14.3481  14.3705  14.3737  14.4432  14.4516  14.4685  14.5423  14.6300
    14.6362  14.6449  14.6509  14.8089  14.8235  14.8441  14.8543  14.9410
    14.9466  14.9818  14.9878  15.0036  15.0726  15.1032  15.1044  15.1710
    15.2449  15.2549  15.2602  15.2826  15.3046  15.3264  15.3776  15.4458
    15.4651  15.4889  15.4963  15.5024  15.6078  15.6174  15.6642  15.6902
    15.7017  15.7030  15.7296  15.7915  15.8153  15.8469  15.8906  15.9481
    16.0105  16.0442  16.0647  16.1241  16.1294  16.1340  16.1515  16.2460
    16.2544  16.3209  16.3642  16.4074  16.4469  16.4716  16.5157  16.5250
    16.5531  16.5700  16.6036  16.6705

          k = 0.0000 0.0000-0.1174 ( 63184 PWs)   bands (ev):

   -19.1643 -19.1638 -19.1121 -19.1097 -19.0353 -19.0289 -18.9324 -18.9198
   -18.7999 -18.7790 -18.6443 -18.6000 -18.4558 -18.3960 -18.2375 -18.1656
   -17.9900 -17.9082 -17.7138 -17.6239 -17.4089 -17.3129 -17.0734 -16.9700
   -16.7209 -16.6089 -16.3507 -16.2335 -15.9749 -15.8590 -15.6287 -15.5317
   -15.4186 -14.2768 -14.1827 -13.9799 -13.7755 -13.5541 -13.2959 -13.0631
   -12.7806 -12.5368 -12.2414 -11.9911 -11.6835 -11.4265 -11.1265 -10.8619
   -10.5723 -10.3064 -10.0316  -9.7761  -9.5258  -9.2999  -9.0922  -8.9266
    -8.7809  -8.7061  -8.6250  -8.5951  -8.5588  -8.5490  -8.5348  -8.5322
    -8.5294  -8.5290  -7.7918  -7.7878  -7.7723  -7.7660  -7.7619  -7.7317
    -7.7278  -7.7245  -7.7065  -7.6814  -7.6771  -7.6484  -7.6319  -7.6094
    -7.6081  -7.5931  -7.5742  -7.5614  -7.5514  -7.5491  -7.5413  -7.5356
    -7.3708  -7.2497  -7.1362  -7.1343  -7.0677  -6.9868  -6.9865  -6.9275
    -6.9262  -6.9179  -6.8374  -6.8340  -6.7572  -6.7154  -6.7086  -6.6149
    -6.5597  -6.5476  -6.4941  -6.3771  -6.3768  -6.3473  -6.3087  -6.2255
    -6.2053  -6.1598  -6.1196  -5.9125  -5.8646  -5.6374  -5.5834  -5.3375
    -5.2792  -5.0171  -4.9560  -4.6808  -4.6175  -4.3485  -4.2835  -4.0331
    -3.9689  -3.7602  -3.7012  -3.5641  -3.5167  -3.4702   0.6302   0.6940
     0.7491   0.9450   1.0009   1.3160   1.3677   1.7669   1.8142   2.2659
     2.3101   2.7937   2.8364   3.3191   3.3608   3.7819   3.8301   3.8695
     3.8847   3.9422   4.0501   4.0626   4.0640   4.1337   4.1594   4.2265
     4.2266   4.3131   4.3491   4.3736   4.3877   4.5217   4.5300   4.7466
     4.7472   4.7515   4.7822   4.9456   4.9640   5.1348   5.1622   5.1879
     5.2329   5.2370   5.3582   5.3983   5.4470   5.4870   5.5045   5.5533
     5.5712   5.5742   5.6148   5.6372   5.6671   5.6878   5.7218   5.7612
     5.7670   5.7795   5.7986   5.8021   5.9038   6.0054   6.0531   6.0620
     6.0673   6.0763   6.0932   6.1148   6.1331   6.1817   6.1819   6.2047
     6.2576   6.2584   6.2595   6.3956   6.4081   6.4107   6.4466   6.4788
     6.4943   6.5009   6.5073   6.5093   6.5244   6.6331   6.6470   6.7428
     6.7769   6.7786   6.7979   6.8206   6.8413   6.8607   6.8904   6.8974
     6.9224   6.9294   6.9363   6.9565   6.9769   6.9984   7.0344   7.0839
     7.1203   7.1287   7.1537   7.2055   7.2081   7.2631   7.2935   7.3169
     7.3601   7.3615   7.4151   7.4566   7.4636   7.5017   7.5085   7.5597
     7.5643   7.5710   7.5813   7.6034   7.6172   7.7167   7.7202   7.7416
     7.7505   7.8903   7.8956   7.9174   7.9221   7.9609   8.0215   8.0608
     8.1569   8.1739   8.1851   8.2602   8.2754   8.2945   8.3604   8.3956
     8.4040   8.4260   8.5450   8.5833   8.6312   8.6506   8.6938   8.7107
     8.7605   8.7950   8.7952   8.8436   8.8760   8.9786   9.0060   9.0162
     9.0198   9.0217   9.0811   9.1536   9.1904   9.3246   9.4012   9.4577
     9.5445   9.6043   9.7013   9.7047   9.7184   9.7404   9.8984   9.9064
     9.9191   9.9382  10.0952  10.1680  10.2202  10.2590  10.2716  10.2911
    10.3782  10.4209  10.4996  10.5353  10.5595  10.5790  10.6834  10.7990
    10.8103  10.8263  10.8741  10.8863  10.9010  10.9034  10.9248  10.9769
    11.0898  11.0932  11.1278  11.1383  11.1468  11.1698  11.1979  11.2364
    11.2681  11.3971  11.4279  11.4279  11.4643  11.4685  11.5111  11.5353
    11.5614  11.6260  11.6344  11.6842  11.7420  11.7471  11.7691  11.8093
    11.8170  11.8843  11.8929  11.9077  11.9543  11.9609  12.0024  12.0146
    12.0451  12.0625  12.0735  12.0776  12.0862  12.0869  12.1071  12.1350
    12.1678  12.1747  12.2119  12.2302  12.2985  12.3059  12.3949  12.4651
    12.5794  12.6381  12.6740  12.7658  12.8077  12.8408  12.8753  12.9678
    13.0049  13.0117  13.0169  13.0367  13.0589  13.0607  13.1220  13.1304
    13.1874  13.2073  13.2191  13.2193  13.2412  13.2557  13.2583  13.3330
    13.3366  13.3690  13.3944  13.3947  13.4002  13.4889  13.4918  13.6022
    13.6091  13.6386  13.6420  13.6958  13.7639  13.7721  13.7872  13.8132
    13.8748  13.9306  14.0031  14.0231  14.2155  14.2197  14.2736  14.2741
    14.3188  14.3201  14.3328  14.3701  14.4560  14.4588  14.5134  14.6078
    14.6458  14.6483  14.7248  14.7653  14.7871  14.8204  14.8652  14.9345
    14.9714  14.9724  14.9794  15.0017  15.0927  15.1189  15.1970  15.2200
    15.2242  15.2402  15.2588  15.2682  15.3272  15.3346  15.4142  15.4168
    15.4653  15.4821  15.5310  15.5355  15.5470  15.5647  15.6209  15.6608
    15.7063  15.7352  15.7678  15.8176  15.8525  15.8777  15.9161  15.9490
    15.9665  16.0187  16.0657  16.0807  16.1431  16.1927  16.2219  16.2254
    16.2767  16.3091  16.3113  16.3665  16.3910  16.4525  16.4651  16.6169
    16.6471  16.6726  16.6772  16.6803

     the Fermi energy is    -1.1233 ev

     Writing output data file A33.save/

     init_run     :      9.76s CPU      9.97s WALL (       1 calls)
     electrons    :   6617.06s CPU   6676.65s WALL (       1 calls)

     Called by init_run:
     wfcinit      :      0.00s CPU      0.00s WALL (       1 calls)
     potinit      :      0.69s CPU      0.76s WALL (       1 calls)
     hinit0       :      7.55s CPU      7.58s WALL (       1 calls)

     Called by electrons:
     c_bands      :   6617.03s CPU   6676.61s WALL (       1 calls)
     v_of_rho     :      0.55s CPU      0.58s WALL (       1 calls)
     newd         :      0.41s CPU      0.49s WALL (       1 calls)

     Called by c_bands:
     init_us_2    :      0.35s CPU      0.36s WALL (      26 calls)
     cegterg      :   6493.34s CPU   6549.66s WALL (     126 calls)

     Called by sum_band:

     Called by *egterg:
     h_psi        :   1445.07s CPU   1466.08s WALL (    2540 calls)
     s_psi        :    153.57s CPU    153.84s WALL (    2540 calls)
     g_psi        :      7.20s CPU      7.22s WALL (    2388 calls)
     cdiaghg      :   3394.66s CPU   3399.26s WALL (    2414 calls)

     Called by h_psi:
     h_psi:pot    :   1439.63s CPU   1456.87s WALL (    2540 calls)
     h_psi:calbec :    173.45s CPU    175.76s WALL (    2540 calls)
     vloc_psi     :   1113.27s CPU   1127.89s WALL (    2540 calls)
     add_vuspsi   :    152.88s CPU    153.20s WALL (    2540 calls)

     General routines
     calbec       :    173.44s CPU    175.73s WALL (    2540 calls)
     fft          :      0.54s CPU      0.58s WALL (      14 calls)
     ffts         :      0.01s CPU      0.01s WALL (       1 calls)
     fftw         :    999.34s CPU   1012.84s WALL (  588004 calls)
     interpolate  :      0.04s CPU      0.04s WALL (       1 calls)
     davcio       :      0.00s CPU      1.37s WALL (      52 calls)

     Parallel routines
     fft_scatt_xy :    136.97s CPU    137.84s WALL (  588019 calls)
     fft_scatt_yz :    437.39s CPU    446.88s WALL (  588019 calls)

     PWSCF        :     1h50m CPU       50h 1m WALL

      59h

   This run was terminated on:  21: 9:51   8Apr2022            

=------------------------------------------------------------------------------=
   JOB DONE.
=------------------------------------------------------------------------------=
