
     Program PWSCF v.6.3 starts on  8Apr2022 at 19:11:47 

     This program is part of the open-source Quantum ESPRESSO suite
     for quantum simulation of materials; please cite
         "P. Giannozzi et al., J. Phys.:Condens. Matter 21 395502 (2009);
         "P. Giannozzi et al., J. Phys.:Condens. Matter 29 465901 (2017);
          URL http://www.quantum-espresso.org", 
     in publications or presentations arising from this work. More details at
     http://www.quantum-espresso.org/quote

     Parallel version (MPI), running on    16 processors
     R & G space division:  proc/nbgrp/npool/nimage =      16
     Waiting for input...
     Reading input from standard input
     Message from routine read_cards :
     DEPRECATED: no units specified in CELL_PARAMETERS card

     Current dimensions of program PWSCF are:
     Max number of different atomic species (ntypx) = 10
     Max number of k-points (npk) =  40000
     Max angular momentum in pseudopotentials (lmaxx) =  3

     Atomic positions and unit cell read from directory:
     /home/zfwang/scratch/GNRDATASET/AGNR/A34/A34.save/


     Subspace diagonalization in iterative solution of the eigenvalue problem:
     a serial algorithm will be used


     Parallelization info
     --------------------
     sticks:   dense  smooth     PW     G-vecs:    dense   smooth      PW
     Min        4489    1496    421               168063    32338    4845
     Max        4490    1498    423               168064    32339    4846
     Sum       71837   23945   6765              2689021   517413   77521



     bravais-lattice index     =            0
     lattice parameter (alat)  =       1.8897  a.u.
     unit-cell volume          =   15144.3963 (a.u.)^3
     number of atoms/cell      =           72
     number of atomic types    =            2
     number of electrons       =       276.00
     number of Kohn-Sham states=          500
     kinetic-energy cutoff     =      40.0000  Ry
     charge density cutoff     =     480.0000  Ry
     Exchange-correlation      = PBE ( 1  4  3  4 0 0)

     celldm(1)=  18.897261  celldm(2)=   5.268000  celldm(3)=   0.426000
     celldm(4)=   0.000000  celldm(5)=   0.000000  celldm(6)=   0.000000

     crystal axes: (cart. coord. in units of alat)
               a(1) = (  10.000000   0.000000   0.000000 )  
               a(2) = (   0.000000  52.680000   0.000000 )  
               a(3) = (   0.000000   0.000000   4.260000 )  

     reciprocal axes: (cart. coord. in units 2 pi/alat)
               b(1) = (  0.100000  0.000000  0.000000 )  
               b(2) = (  0.000000  0.018983  0.000000 )  
               b(3) = (  0.000000  0.000000  0.234742 )  


     PseudoPot. # 1 for C  read from file:
     /home/zfwang/hp_home/MySoftware/qe-6.3/pseudo/C.pbe-n-rrkjus_psl.0.1.UPF
     MD5 check sum: fff530ed632a789b3b184014e67dd7f1
     Pseudo is Ultrasoft + core correction, Zval =  4.0
     Generated using "atomic" code by A. Dal Corso v.5.0.2 svn rev. 9415
     Using radial grid of 1073 points,  4 beta functions with: 
                l(1) =   0
                l(2) =   0
                l(3) =   1
                l(4) =   1
     Q(r) pseudized with 0 coefficients 


     PseudoPot. # 2 for H  read from file:
     /home/zfwang/hp_home/MySoftware/qe-6.3/pseudo/H.pbe-rrkjus_psl.0.1.UPF
     MD5 check sum: e164a6907b691c6980f16942be34de84
     Pseudo is Ultrasoft, Zval =  1.0
     Generated using "atomic" code by A. Dal Corso v.5.0.2 svn rev. 9415
     Using radial grid of  929 points,  2 beta functions with: 
                l(1) =   0
                l(2) =   0
     Q(r) pseudized with 0 coefficients 


     atomic species   valence    mass     pseudopotential
        C              4.00    12.01070     C ( 1.00)
        H              1.00     1.00794     H ( 1.00)

     No symmetry found



   Cartesian axes

     site n.     atom                  positions (alat units)
         1           C   tau(   1) = (   5.0000039   6.0615784   2.8131306  )
         2           C   tau(   2) = (   5.0000048   7.2678749   3.5444661  )
         3           C   tau(   3) = (   5.0000037   6.0615759   1.4468702  )
         4           C   tau(   4) = (   5.0000052   8.4968844   2.8410037  )
         5           C   tau(   5) = (   5.0000047   9.7333002   3.5525411  )
         6           C   tau(   6) = (   5.0000049   7.2678780   0.7155341  )
         7           C   tau(   7) = (   5.0000051   8.4968821   1.4189962  )
         8           C   tau(   8) = (   5.0000038  10.9627228   2.8417561  )
         9           C   tau(   9) = (   5.0000027  12.1914293   3.5494231  )
        10           C   tau(  10) = (   5.0000047   9.7333006   0.7074589  )
        11           C   tau(  11) = (   5.0000037  10.9627236   1.4182444  )
        12           C   tau(  12) = (   5.0000020  13.4245386   2.8391913  )
        13           C   tau(  13) = (   5.0000011  14.6557183   3.5490166  )
        14           C   tau(  14) = (   5.0000026  12.1914283   0.7105776  )
        15           C   tau(  15) = (   5.0000018  13.4245392   1.4208093  )
        16           C   tau(  16) = (   5.0000004  15.8851922   2.8403787  )
        17           C   tau(  17) = (   4.9999996  17.1166241   3.5506423  )
        18           C   tau(  18) = (   5.0000012  14.6557182   0.7109842  )
        19           C   tau(  19) = (   5.0000004  15.8851925   1.4196221  )
        20           C   tau(  20) = (   4.9999987  18.3468976   2.8405205  )
        21           C   tau(  21) = (   4.9999981  19.5756918   3.5497238  )
        22           C   tau(  22) = (   4.9999997  17.1166236   0.7093585  )
        23           C   tau(  23) = (   4.9999988  18.3468986   1.4194806  )
        24           C   tau(  24) = (   4.9999975  20.8061893   2.8394713  )
        25           C   tau(  25) = (   4.9999977  22.0363080   3.5496074  )
        26           C   tau(  26) = (   4.9999980  19.5756910   0.7102772  )
        27           C   tau(  27) = (   4.9999975  20.8061894   1.4205297  )
        28           C   tau(  28) = (   4.9999984  23.2651214   2.8402948  )
        29           C   tau(  29) = (   4.9999990  24.4954196   3.5504780  )
        30           C   tau(  30) = (   4.9999976  22.0363086   0.7103936  )
        31           C   tau(  31) = (   4.9999982  23.2651207   1.4197060  )
        32           C   tau(  32) = (   4.9999995  25.7256059   2.8403286  )
        33           C   tau(  33) = (   4.9999992  26.9544318   3.5496712  )
        34           C   tau(  34) = (   4.9999987  24.4954200   0.7095225  )
        35           C   tau(  35) = (   4.9999992  25.7256060   1.4196716  )
        36           C   tau(  36) = (   4.9999987  28.1846171   2.8395224  )
        37           C   tau(  37) = (   4.9999985  29.4149137   3.5497050  )
        38           C   tau(  38) = (   4.9999991  26.9544315   0.7103288  )
        39           C   tau(  39) = (   4.9999985  28.1846174   1.4204773  )
        40           C   tau(  40) = (   4.9999986  30.6437221   2.8403932  )
        41           C   tau(  41) = (   4.9999989  31.8738331   3.5505293  )
        42           C   tau(  42) = (   4.9999983  29.4149134   0.7102946  )
        43           C   tau(  43) = (   4.9999985  30.6437216   1.4196066  )
        44           C   tau(  44) = (   4.9999994  33.1043193   2.8402748  )
        45           C   tau(  45) = (   4.9999995  34.3330981   3.5494818  )
        46           C   tau(  46) = (   4.9999989  31.8738335   0.7094706  )
        47           C   tau(  47) = (   4.9999993  33.1043188   1.4197252  )
        48           C   tau(  48) = (   4.9999997  35.5633613   2.8393574  )
        49           C   tau(  49) = (   5.0000003  36.7947840   3.5496224  )
        50           C   tau(  50) = (   4.9999993  34.3330987   0.7105183  )
        51           C   tau(  51) = (   4.9999996  35.5633609   1.4206429  )
        52           C   tau(  52) = (   5.0000006  38.0242556   2.8409835  )
        53           C   tau(  53) = (   5.0000009  39.2554330   3.5508097  )
        54           C   tau(  54) = (   5.0000001  36.7947844   0.7103780  )
        55           C   tau(  55) = (   5.0000009  38.0242556   1.4190168  )
        56           C   tau(  56) = (   5.0000002  40.4885401   2.8405761  )
        57           C   tau(  57) = (   4.9999988  41.7172464   3.5482452  )
        58           C   tau(  58) = (   5.0000011  39.2554326   0.7091905  )
        59           C   tau(  59) = (   5.0000004  40.4885409   1.4194239  )
        60           C   tau(  60) = (   4.9999972  42.9466783   2.8374624  )
        61           C   tau(  61) = (   4.9999965  44.1831077   3.5489897  )
        62           C   tau(  62) = (   4.9999990  41.7172452   0.7117547  )
        63           C   tau(  63) = (   4.9999973  42.9466787   1.4225371  )
        64           C   tau(  64) = (   4.9999970  45.4121228   2.8455353  )
        65           C   tau(  65) = (   4.9999984  46.6184367   3.5768514  )
        66           C   tau(  66) = (   4.9999965  44.1831081   0.7110098  )
        67           C   tau(  67) = (   4.9999969  45.4121217   1.4144638  )
        68           C   tau(  68) = (   4.9999982  46.6184374   0.6831476  )
        69           H   tau(  69) = (   5.0000022   5.1059906   3.3302409  )
        70           H   tau(  70) = (   5.0000021   5.1059915   0.9297602  )
        71           H   tau(  71) = (   4.9999993  47.5740209   3.0597684  )
        72           H   tau(  72) = (   5.0000004  47.5740206   1.2002304  )

     number of k points=    26  Marzari-Vanderbilt smearing, width (Ry)=  0.0100
                       cart. coord. in units 2pi/alat
        k(    1) = (   0.0000000   0.0000000   0.0000000), wk =   0.0400000
        k(    2) = (   0.0000000   0.0000000   0.0046948), wk =   0.0800000
        k(    3) = (   0.0000000   0.0000000   0.0093897), wk =   0.0800000
        k(    4) = (   0.0000000   0.0000000   0.0140845), wk =   0.0800000
        k(    5) = (   0.0000000   0.0000000   0.0187793), wk =   0.0800000
        k(    6) = (   0.0000000   0.0000000   0.0234742), wk =   0.0800000
        k(    7) = (   0.0000000   0.0000000   0.0281690), wk =   0.0800000
        k(    8) = (   0.0000000   0.0000000   0.0328638), wk =   0.0800000
        k(    9) = (   0.0000000   0.0000000   0.0375587), wk =   0.0800000
        k(   10) = (   0.0000000   0.0000000   0.0422535), wk =   0.0800000
        k(   11) = (   0.0000000   0.0000000   0.0469484), wk =   0.0800000
        k(   12) = (   0.0000000   0.0000000   0.0516432), wk =   0.0800000
        k(   13) = (   0.0000000   0.0000000   0.0563380), wk =   0.0800000
        k(   14) = (   0.0000000   0.0000000   0.0610329), wk =   0.0800000
        k(   15) = (   0.0000000   0.0000000   0.0657277), wk =   0.0800000
        k(   16) = (   0.0000000   0.0000000   0.0704225), wk =   0.0800000
        k(   17) = (   0.0000000   0.0000000   0.0751174), wk =   0.0800000
        k(   18) = (   0.0000000   0.0000000   0.0798122), wk =   0.0800000
        k(   19) = (   0.0000000   0.0000000   0.0845070), wk =   0.0800000
        k(   20) = (   0.0000000   0.0000000   0.0892019), wk =   0.0800000
        k(   21) = (   0.0000000   0.0000000   0.0938967), wk =   0.0800000
        k(   22) = (   0.0000000   0.0000000   0.0985915), wk =   0.0800000
        k(   23) = (   0.0000000   0.0000000   0.1032864), wk =   0.0800000
        k(   24) = (   0.0000000   0.0000000   0.1079812), wk =   0.0800000
        k(   25) = (   0.0000000   0.0000000   0.1126761), wk =   0.0800000
        k(   26) = (   0.0000000   0.0000000  -0.1173709), wk =   0.0400000

     Dense  grid:  2689021 G-vectors     FFT dimensions: ( 135, 720,  60)

     Smooth grid:   517413 G-vectors     FFT dimensions: (  80, 405,  36)

     Estimated max dynamical RAM per process >     676.78 MB

     Estimated total dynamical RAM >      10.57 GB

     The potential is recalculated from file :
     /home/zfwang/scratch/GNRDATASET/AGNR/A34/A34.save/charge-density.dat


     negative rho (up, down):  9.112E-05 0.000E+00
     Starting wfcs are  276 randomized atomic wfcs +  224 random wfcs

     Band Structure Calculation
     Davidson diagonalization with overlap
     c_bands:  2 eigenvalues not converged
     c_bands:  1 eigenvalues not converged
     c_bands:  1 eigenvalues not converged
     c_bands:  1 eigenvalues not converged
     c_bands:  1 eigenvalues not converged
     c_bands:  1 eigenvalues not converged
     c_bands:  1 eigenvalues not converged
     c_bands:  2 eigenvalues not converged
     c_bands:  3 eigenvalues not converged
     c_bands:  1 eigenvalues not converged

     ethr =  3.62E-09,  avg # of iterations = 96.3

     total cpu time spent up to now is     6343.1 secs

     End of band structure calculation

          k = 0.0000 0.0000 0.0000 ( 64499 PWs)   bands (ev):

   -20.6196 -20.5682 -20.4916 -20.3886 -20.2558 -20.0938 -19.9046 -19.6885
   -19.4453 -19.1747 -18.8766 -18.5456 -18.1928 -17.8163 -17.4173 -16.9973
   -16.5586 -16.1043 -15.6386 -15.3511 -15.3050 -15.2382 -15.1681 -15.1494
   -15.0345 -14.8940 -14.7300 -14.7037 -14.5430 -14.3425 -14.3322 -14.2978
   -14.2703 -14.2269 -14.1481 -14.0973 -14.0381 -13.9308 -13.8619 -13.8378
   -13.7819 -13.6423 -13.6033 -13.5424 -13.5211 -13.4917 -13.2296 -12.8949
   -12.5384 -12.1605 -11.7620 -11.6316 -11.6227 -11.4369 -11.4199 -11.3440
   -11.1731 -11.0759 -10.9075 -10.8486 -10.6597 -10.4693 -10.4540 -10.2268
   -10.0374  -9.9849  -9.7967  -9.5722  -9.5014  -9.3642  -9.1052  -9.0050
    -8.9262  -8.7112  -8.6616  -8.6525  -8.5628  -8.4888  -8.4861  -8.4410
    -8.2844  -8.2610  -8.0941  -8.0613  -7.9774  -7.9121  -7.8720  -7.7432
    -7.6190  -7.5811  -7.5447  -7.4659  -7.3351  -7.1140  -7.0207  -6.9584
    -6.6846  -6.6764  -6.4611  -6.2990  -6.2676  -5.9821  -5.8983  -5.8696
    -5.5321  -5.4970  -5.4740  -5.1568  -5.1234  -5.0285  -4.8560  -4.7706
    -4.5998  -4.5648  -4.4896  -4.3936  -4.2905  -4.2449  -4.1735  -4.1588
    -4.0868  -3.5991  -3.4165  -3.3565  -3.2641  -3.1381  -3.1073  -2.9762
    -2.7793  -2.6180  -2.5490  -2.2858  -2.1385  -1.9893  -1.6770  -1.6596
    -1.2962  -1.2421  -0.8846  -0.8322  -0.4860  -0.4530  -0.1926   0.0063
     0.0465   0.2333   0.3727   0.4722   0.4930   0.5401   0.5838   0.6091
     0.6198   1.0063   1.5447   1.9138   2.0349   2.0574   2.1063   2.1456
     2.2118   2.3653   2.4939   2.6891   2.7102   2.9005   3.1760   3.2902
     3.3109   3.4180   3.4306   3.5214   3.6541   3.7182   3.7358   3.8243
     3.9066   3.9744   3.9947   4.1164   4.1710   4.3834   4.4535   4.4772
     4.5345   4.6932   4.8525   4.8603   4.8913   4.9071   4.9291   5.0099
     5.1112   5.1692   5.2626   5.3636   5.3689   5.4865   5.4987   5.5285
     5.7477   5.8122   5.8251   5.9827   6.0428   6.1503   6.2238   6.3244
     6.4410   6.4457   6.4689   6.5897   6.5945   6.7216   6.7568   6.8404
     6.8417   7.0018   7.0570   7.2497   7.2960   7.3122   7.3322   7.3386
     7.3596   7.4024   7.4036   7.4883   7.4938   7.4984   7.5913   7.6399
     7.6526   7.7067   7.7352   7.7723   7.8532   7.8854   7.9642   8.0396
     8.0936   8.0942   8.1794   8.2195   8.3286   8.3823   8.3833   8.3838
     8.4423   8.5341   8.6798   8.7155   8.7320   8.7401   8.7480   8.7561
     8.9414   8.9556   8.9560   9.0629   9.0921   9.2268   9.3770   9.4056
     9.4335   9.4432   9.4839   9.5934   9.5951   9.6042   9.6136   9.6412
     9.6424   9.6526   9.6838   9.6928   9.7215   9.7287   9.7314   9.7327
     9.7483   9.8083   9.8103   9.8490   9.8643   9.8656   9.8866   9.9782
     9.9863  10.0034  10.0264  10.0937  10.0982  10.1041  10.1202  10.1274
    10.1855  10.1863  10.2251  10.2305  10.2439  10.2484  10.2564  10.3741
    10.3763  10.3905  10.3913  10.4272  10.4491  10.4976  10.5503  10.5670
    10.6071  10.6141  10.6605  10.6616  10.7091  10.7333  10.7471  10.7562
    10.7639  10.7727  10.8572  10.8768  10.9009  10.9555  10.9614  10.9642
    10.9950  11.0180  11.0391  11.0485  11.0524  11.1366  11.1685  11.1947
    11.2110  11.2329  11.2476  11.2948  11.3026  11.3291  11.3672  11.3795
    11.4068  11.4586  11.4703  11.5063  11.5458  11.5490  11.6130  11.6166
    11.6179  11.6385  11.6553  11.6553  11.6602  11.6692  11.6704  11.6832
    11.7186  11.7320  11.7482  11.7551  11.7691  11.7894  11.8236  11.8531
    11.8611  11.8722  11.8857  11.9193  11.9372  11.9457  11.9648  11.9741
    11.9765  11.9974  12.0091  12.0418  12.0519  12.0957  12.1095  12.1260
    12.1756  12.1928  12.2018  12.2264  12.2366  12.2392  12.2619  12.2711
    12.2722  12.3335  12.3554  12.3667  12.4051  12.4409  12.4947  12.5232
    12.5311  12.5532  12.5683  12.5735  12.6554  12.7194  12.7509  12.7899
    12.8119  12.8304  12.8653  12.8944  12.8946  12.9159  12.9435  12.9539
    12.9564  12.9695  12.9912  13.0569  13.0815  13.1000  13.1287  13.1453
    13.2337  13.2634  13.2729  13.2791  13.3761  13.4196  13.4243  13.4698
    13.4740  13.4830  13.5787  13.6488  13.6588  13.6790  13.6835  13.7468
    13.8063  13.8223  13.8296  13.9172  13.9606  13.9879  14.0020  14.0137
    14.1277  14.1462  14.1491  14.1595  14.1960  14.2012  14.2192  14.2218
    14.2319  14.2802  14.3256  14.3358  14.4242  14.4319  14.4361  14.4597
    14.5179  14.5247  14.5444  14.6271  14.7262  14.7435  14.7519  14.8310
    14.8828  14.9113  14.9396  14.9654  14.9744  14.9943  15.0603  15.0660
    15.1108  15.1421  15.1428  15.1492  15.1940  15.2918  15.4328  15.4370
    15.4696  15.4834  15.5324  15.6046  15.6415  15.6433  15.6550  15.7191
    15.7739  15.8039  15.8289  15.8810

          k = 0.0000 0.0000 0.0047 ( 64529 PWs)   bands (ev):

   -20.6172 -20.5658 -20.4892 -20.3862 -20.2535 -20.0914 -19.9022 -19.6862
   -19.4430 -19.1724 -18.8743 -18.5433 -18.1905 -17.8140 -17.4150 -16.9951
   -16.5565 -16.1023 -15.6369 -15.3956 -15.3494 -15.2824 -15.1932 -15.1671
   -15.0776 -14.9373 -14.7730 -14.7037 -14.5856 -14.3781 -14.2948 -14.2676
   -14.2500 -14.1828 -14.1469 -14.1012 -13.9925 -13.9169 -13.9076 -13.8550
   -13.7356 -13.6016 -13.5433 -13.5250 -13.4752 -13.4456 -13.2427 -12.9137
   -12.5589 -12.1815 -11.7833 -11.6167 -11.6050 -11.4171 -11.4118 -11.3617
   -11.1525 -11.0677 -10.9270 -10.8284 -10.6493 -10.4791 -10.4467 -10.2124
   -10.0350  -9.9945  -9.7803  -9.5706  -9.5128  -9.3480  -9.1029  -9.0176
    -8.9111  -8.7084  -8.6582  -8.6497  -8.5599  -8.5023  -8.4729  -8.4381
    -8.2816  -8.2569  -8.0913  -8.0517  -7.9908  -7.9057  -7.8692  -7.7396
    -7.6162  -7.5788  -7.5338  -7.4787  -7.3323  -7.1038  -7.0180  -6.9708
    -6.6760  -6.6737  -6.4730  -6.2964  -6.2607  -5.9938  -5.8958  -5.8642
    -5.5448  -5.4918  -5.4716  -5.1614  -5.1276  -5.0263  -4.8594  -4.7772
    -4.6045  -4.5628  -4.4958  -4.4000  -4.2960  -4.2526  -4.1783  -4.1676
    -4.0852  -3.5982  -3.4323  -3.3724  -3.2802  -3.1546  -3.1073  -2.9932
    -2.7970  -2.6197  -2.5678  -2.3064  -2.1436  -2.0133  -1.6908  -1.6907
    -1.3551  -1.2990  -0.8290  -0.7739  -0.4548  -0.4412  -0.1679   0.0089
     0.0685   0.2541   0.3929   0.4916   0.4923   0.5597   0.6033   0.6286
     0.6393   1.0030   1.5401   1.9170   2.0381   2.0606   2.1009   2.1488
     2.2151   2.3685   2.4971   2.6830   2.7134   2.9037   3.1792   3.2832
     3.3141   3.4212   3.4348   3.5250   3.6573   3.7215   3.7390   3.8276
     3.8999   3.9777   3.9981   4.1196   4.1743   4.3867   4.4567   4.4803
     4.5275   4.6964   4.8557   4.8638   4.8945   4.9103   4.9324   5.0131
     5.1143   5.1617   5.2658   5.3667   5.3721   5.4897   5.5015   5.5317
     5.7508   5.8034   5.8282   5.9859   6.0482   6.1543   6.2269   6.3275
     6.4343   6.4477   6.4714   6.5927   6.5970   6.7235   6.7608   6.8425
     6.8455   7.0046   7.0498   7.2522   7.3027   7.3151   7.3242   7.3514
     7.3626   7.3991   7.4063   7.4862   7.4957   7.5006   7.5898   7.6337
     7.6452   7.7105   7.7336   7.7661   7.8553   7.8894   7.9414   8.0498
     8.0959   8.0974   8.1528   8.2119   8.3310   8.3820   8.3835   8.3951
     8.4110   8.5382   8.6807   8.6862   8.7268   8.7396   8.7482   8.7606
     8.9432   8.9534   8.9593   9.0255   9.0995   9.2186   9.3335   9.4080
     9.4274   9.4486   9.4891   9.5964   9.5981   9.6094   9.6160   9.6356
     9.6443   9.6560   9.6822   9.6900   9.6948   9.7284   9.7320   9.7374
     9.7387   9.7481   9.7912   9.8107   9.8110   9.8469   9.8472   9.8685
     9.8725   9.9093   9.9636   9.9697  10.0046  10.0656  10.1191  10.1215
    10.1297  10.1871  10.2219  10.2508  10.2830  10.3083  10.3561  10.3826
    10.3837  10.4200  10.4225  10.4993  10.5062  10.5201  10.5315  10.5707
    10.6121  10.6489  10.6522  10.6892  10.6966  10.7026  10.7292  10.7386
    10.7806  10.8152  10.8422  10.8553  10.9154  10.9363  10.9595  10.9842
    10.9963  11.0010  11.0223  11.0298  11.0726  11.0737  11.0894  11.0929
    11.1662  11.1877  11.2319  11.2729  11.2833  11.3511  11.4090  11.4137
    11.4468  11.4612  11.4656  11.4695  11.5446  11.5729  11.5925  11.5961
    11.6207  11.6362  11.6518  11.6653  11.6941  11.7076  11.7124  11.7267
    11.7708  11.7719  11.7741  11.8163  11.8277  11.8330  11.8367  11.8392
    11.8797  11.8890  11.9045  11.9119  11.9223  11.9235  11.9510  11.9907
    12.0010  12.0271  12.0337  12.0857  12.0882  12.1146  12.1209  12.1219
    12.1306  12.1645  12.2064  12.2074  12.2440  12.2596  12.2707  12.2768
    12.2896  12.3448  12.3509  12.3607  12.3966  12.4352  12.4470  12.4843
    12.4923  12.5103  12.5564  12.5889  12.5912  12.6415  12.6491  12.6905
    12.7269  12.7627  12.8148  12.8270  12.8796  12.9291  12.9608  12.9642
    12.9981  13.0126  13.0369  13.1032  13.1323  13.1425  13.1962  13.2024
    13.2264  13.2750  13.3362  13.3369  13.3730  13.3758  13.3940  13.4691
    13.4768  13.5154  13.5515  13.6603  13.6652  13.7244  13.7268  13.7815
    13.8023  13.8477  13.8719  13.9061  13.9438  13.9582  13.9974  14.0386
    14.0968  14.1009  14.1024  14.1851  14.2334  14.2485  14.2600  14.2617
    14.2708  14.2767  14.3582  14.3750  14.3844  14.4484  14.4632  14.4938
    14.5568  14.5845  14.5913  14.6321  14.7430  14.7441  14.7705  14.8197
    14.8476  14.8937  14.8939  14.9564  14.9690  15.0030  15.0137  15.0541
    15.0870  15.1453  15.1488  15.1968  15.2859  15.3091  15.4561  15.4625
    15.4854  15.5022  15.5078  15.5548  15.5844  15.6224  15.6713  15.6833
    15.7200  15.7567  15.7866  15.8351

          k = 0.0000 0.0000 0.0094 ( 64537 PWs)   bands (ev):

   -20.6101 -20.5587 -20.4821 -20.3791 -20.2464 -20.0844 -19.8952 -19.6792
   -19.4360 -19.1654 -18.8674 -18.5364 -18.1837 -17.8073 -17.4084 -16.9886
   -16.5502 -16.0964 -15.6319 -15.5102 -15.4637 -15.3962 -15.3060 -15.1938
   -15.1595 -15.0488 -14.8833 -14.7168 -14.6821 -14.4907 -14.2763 -14.2645
   -14.1690 -14.1255 -14.0609 -14.0395 -13.9907 -13.9633 -13.8716 -13.7484
   -13.6184 -13.5076 -13.4688 -13.4314 -13.3658 -13.3374 -13.2784 -12.9665
   -12.6169 -12.2409 -11.8430 -11.5738 -11.5535 -11.4321 -11.3674 -11.3599
   -11.0934 -11.0508 -10.9741 -10.7718 -10.6259 -10.5244 -10.4018 -10.1764
   -10.0626  -9.9819  -9.7356  -9.5882  -9.5209  -9.3025  -9.1071  -9.0421
    -8.8686  -8.6999  -8.6506  -8.6411  -8.5514  -8.5382  -8.4358  -8.4297
    -8.2732  -8.2449  -8.0829  -8.0286  -8.0263  -7.8857  -7.8609  -7.7296
    -7.6079  -7.5723  -7.5147  -7.5027  -7.3241  -7.0750  -7.0099  -7.0064
    -6.6658  -6.6519  -6.5071  -6.2887  -6.2416  -6.0267  -5.8884  -5.8501
    -5.5770  -5.4823  -5.4646  -5.1811  -5.1344  -5.0198  -4.8710  -4.7956
    -4.6193  -4.5571  -4.5142  -4.4190  -4.3126  -4.2755  -4.1935  -4.1929
    -4.0806  -3.5953  -3.4787  -3.4192  -3.3276  -3.2030  -3.1074  -3.0429
    -2.8487  -2.6270  -2.6205  -2.3661  -2.1587  -2.0813  -1.7760  -1.7305
    -1.4852  -1.4194  -0.7123  -0.6456  -0.4071  -0.3694  -0.0977   0.0169
     0.1323   0.3148   0.4521   0.4883   0.5505   0.6177   0.6610   0.6862
     0.6968   0.9933   1.5266   1.9266   2.0477   2.0703   2.0847   2.1585
     2.2248   2.3782   2.5068   2.6649   2.7230   2.9134   3.1889   3.2628
     3.3238   3.4309   3.4472   3.5356   3.6669   3.7311   3.7486   3.8373
     3.8805   3.9874   4.0082   4.1293   4.1840   4.3964   4.4664   4.4881
     4.5081   4.7061   4.8652   4.8740   4.9039   4.9198   4.9421   5.0227
     5.1239   5.1393   5.2753   5.3762   5.3814   5.4993   5.5098   5.5415
     5.7601   5.7783   5.8374   5.9956   6.0634   6.1662   6.2362   6.3366
     6.4147   6.4532   6.4792   6.6017   6.6043   6.7294   6.7728   6.8487
     6.8567   7.0130   7.0284   7.2595   7.3171   7.3193   7.3276   7.3682
     7.3725   7.3911   7.4178   7.4725   7.4992   7.5132   7.5810   7.6231
     7.6262   7.7019   7.7217   7.7749   7.8618   7.8833   7.9013   8.0703
     8.0821   8.1006   8.1087   8.1894   8.3267   8.3376   8.3850   8.3902
     8.4128   8.5504   8.5931   8.6836   8.7157   8.7333   8.7549   8.7730
     8.9051   8.9483   8.9705   8.9797   9.0950   9.1944   9.2328   9.3821
     9.4159   9.4436   9.4644   9.4967   9.5046   9.5649   9.5862   9.5926
     9.6073   9.6154   9.6248   9.6394   9.6532   9.6557   9.6657   9.7080
     9.7277   9.7400   9.7421   9.7481   9.7624   9.8115   9.8168   9.8185
     9.8189   9.8591   9.8771   9.9276   9.9442   9.9538  10.0077  10.0262
    10.1250  10.1841  10.1969  10.2020  10.2039  10.2379  10.2792  10.3564
    10.3575  10.3963  10.4207  10.5041  10.5441  10.5863  10.5891  10.6152
    10.6487  10.6725  10.6784  10.6886  10.7297  10.7427  10.7461  10.7728
    10.7903  10.8143  10.8243  10.8385  10.8395  10.8439  10.8734  10.8803
    10.9355  10.9780  10.9885  11.0372  11.0379  11.0550  11.0655  11.1277
    11.1463  11.2146  11.2345  11.2632  11.2837  11.3683  11.4093  11.4186
    11.4495  11.4713  11.4787  11.5186  11.5511  11.5988  11.6209  11.6271
    11.6469  11.6486  11.6622  11.6690  11.6749  11.6846  11.7267  11.7806
    11.7809  11.8053  11.8213  11.8310  11.8334  11.8612  11.8735  11.8792
    11.9216  11.9360  11.9531  11.9892  11.9950  11.9997  12.0215  12.0687
    12.0888  12.0945  12.0952  12.1092  12.1246  12.1325  12.1437  12.1625
    12.1743  12.1822  12.1875  12.2241  12.2363  12.2367  12.2674  12.2844
    12.2967  12.2975  12.3235  12.3340  12.3369  12.3455  12.3539  12.3809
    12.4062  12.4468  12.4497  12.4952  12.5012  12.5373  12.6703  12.6780
    12.6812  12.7060  12.8192  12.8206  12.8235  12.8344  12.8942  12.9232
    12.9601  12.9954  13.0477  13.0901  13.1354  13.1807  13.2073  13.2805
    13.2812  13.2845  13.2924  13.4108  13.4506  13.4721  13.4859  13.5169
    13.5306  13.5886  13.6382  13.6870  13.7115  13.7406  13.7456  13.7612
    13.8071  13.8503  13.9196  13.9379  13.9482  13.9924  14.0082  14.0267
    14.1131  14.1345  14.1991  14.2089  14.2387  14.2604  14.2696  14.3618
    14.3673  14.3752  14.3891  14.4351  14.4481  14.4957  14.4960  14.5490
    14.6183  14.6304  14.6512  14.7154  14.7515  14.7527  14.7743  14.7747
    14.8633  14.9015  14.9050  14.9394  14.9557  14.9733  14.9778  15.0525
    15.1003  15.1876  15.1946  15.2228  15.2826  15.3553  15.3766  15.4483
    15.4487  15.4893  15.5265  15.5514  15.5551  15.5750  15.6199  15.6380
    15.6903  15.7147  15.7495  15.7893

          k = 0.0000 0.0000 0.0141 ( 64521 PWs)   bands (ev):

   -20.5983 -20.5469 -20.4702 -20.3673 -20.2346 -20.0726 -19.8834 -19.6675
   -19.4243 -19.1538 -18.8558 -18.5250 -18.1723 -17.7960 -17.3973 -16.9777
   -16.5397 -16.0867 -15.6635 -15.6263 -15.6143 -15.5485 -15.4570 -15.3414
   -15.1977 -15.1580 -15.0293 -14.8477 -14.6985 -14.6374 -14.4117 -14.2996
   -14.1853 -14.0770 -13.9982 -13.9548 -13.8917 -13.8095 -13.7066 -13.5881
   -13.4599 -13.4511 -13.3384 -13.3277 -13.3075 -13.2218 -13.2041 -13.0452
   -12.7039 -12.3304 -11.9323 -11.5171 -11.5061 -11.4712 -11.3209 -11.2708
   -11.0853 -11.0012 -10.9857 -10.6826 -10.6353 -10.5574 -10.3232 -10.1623
   -10.1012  -9.9252  -9.6849  -9.6413  -9.4895  -9.2380  -9.1544  -9.0337
    -8.8065  -8.6857  -8.6577  -8.6270  -8.5719  -8.5373  -8.4155  -8.3823
    -8.2591  -8.2270  -8.0831  -8.0689  -7.9927  -7.8499  -7.8470  -7.7143
    -7.5941  -7.5793  -7.5522  -7.4549  -7.3105  -7.0619  -7.0317  -6.9965
    -6.6526  -6.6163  -6.5604  -6.2759  -6.2143  -6.0776  -5.8760  -5.8315
    -5.6252  -5.4728  -5.4529  -5.2208  -5.1398  -5.0089  -4.8954  -4.8222
    -4.6452  -4.5476  -4.5443  -4.4506  -4.3413  -4.3127  -4.2355  -4.2174
    -4.0730  -3.5907  -3.5532  -3.4942  -3.4035  -3.2803  -3.1222  -3.1076
    -2.9309  -2.7094  -2.6332  -2.4591  -2.1848  -2.1839  -1.8983  -1.7925
    -1.6402  -1.5599  -0.5780  -0.4935  -0.3543  -0.2467   0.0095   0.0301
     0.2321   0.4110   0.4829   0.5466   0.6441   0.7109   0.7541   0.7791
     0.7898   0.9775   1.5044   1.9426   2.0582   2.0637   2.0865   2.1745
     2.2409   2.3943   2.5230   2.6352   2.7391   2.9296   3.2049   3.2299
     3.3398   3.4471   3.4668   3.5529   3.6830   3.7472   3.7642   3.8493
     3.8534   4.0036   4.0248   4.1453   4.2003   4.4126   4.4690   4.4824
     4.5085   4.7223   4.8812   4.8910   4.9196   4.9357   4.9582   5.0387
     5.1029   5.1397   5.2912   5.3918   5.3968   5.5152   5.5235   5.5577
     5.7396   5.7756   5.8527   6.0117   6.0863   6.1854   6.2516   6.3515
     6.3827   6.4611   6.4930   6.6156   6.6167   6.7391   6.7927   6.8584
     6.8752   6.9931   7.0268   7.2713   7.3203   7.3297   7.3496   7.3825
     7.3871   7.3924   7.4369   7.4581   7.5085   7.5112   7.5748   7.5868
     7.6311   7.6463   7.7404   7.7945   7.8047   7.8722   7.9206   7.9863
     8.0807   8.1067   8.1275   8.1524   8.2246   8.3447   8.3881   8.3957
     8.3983   8.5012   8.5706   8.6763   8.6831   8.6944   8.7455   8.7932
     8.8345   8.9485   8.9775   8.9884   9.0029   9.1450   9.1545   9.1619
     9.2014   9.2568   9.3348   9.3736   9.4459   9.4513   9.4894   9.5301
     9.5552   9.5592   9.6226   9.6261   9.6268   9.6493   9.6621   9.6633
     9.6818   9.7075   9.7351   9.7602   9.7611   9.7722   9.7768   9.8120
     9.8140   9.8159   9.8306   9.8916   9.8931   9.9024   9.9462   9.9946
    10.0103  10.1117  10.1295  10.1314  10.1490  10.1622  10.2353  10.3126
    10.3325  10.3372  10.3525  10.3744  10.4247  10.4602  10.4771  10.5281
    10.5677  10.5716  10.5882  10.5892  10.5992  10.6546  10.6571  10.7007
    10.7437  10.7536  10.8285  10.8609  10.8655  10.8931  10.9384  10.9884
    11.0066  11.0412  11.0526  11.0569  11.0759  11.0881  11.1257  11.1267
    11.1573  11.2207  11.2533  11.3628  11.3733  11.4113  11.4345  11.4572
    11.4718  11.4873  11.4951  11.5261  11.5497  11.5687  11.5831  11.6166
    11.6557  11.6799  11.6872  11.6903  11.6969  11.7166  11.7526  11.7841
    11.7870  11.8046  11.8286  11.8323  11.8620  11.8954  11.8956  11.9163
    11.9389  11.9781  11.9897  12.0035  12.0045  12.0074  12.0161  12.0189
    12.0575  12.0787  12.1413  12.1424  12.1470  12.1658  12.1788  12.1908
    12.2152  12.2369  12.2461  12.2508  12.2570  12.3006  12.3042  12.3075
    12.3100  12.3221  12.3318  12.3372  12.3408  12.3505  12.3547  12.3743
    12.3954  12.4190  12.4550  12.4749  12.4903  12.5133  12.5193  12.5708
    12.5803  12.5882  12.7050  12.8379  12.8515  12.8833  12.9059  12.9125
    12.9494  12.9539  12.9661  13.0207  13.0909  13.0994  13.1346  13.2293
    13.2933  13.3137  13.3236  13.4585  13.4806  13.5011  13.5122  13.5647
    13.6123  13.6519  13.7169  13.7339  13.7646  13.7863  13.8323  13.8687
    13.8988  13.9120  13.9475  13.9679  13.9738  14.0187  14.1306  14.1320
    14.1731  14.2117  14.2441  14.2673  14.2750  14.3039  14.3934  14.4270
    14.4476  14.4691  14.4710  14.5048  14.5085  14.5214  14.5456  14.6119
    14.6421  14.6730  14.6923  14.7336  14.7736  14.7921  14.8137  14.8355
    14.8498  14.9112  14.9313  14.9723  14.9919  15.0190  15.0606  15.0973
    15.1290  15.1708  15.1755  15.2117  15.2359  15.2536  15.2703  15.4142
    15.4438  15.4835  15.4962  15.5253  15.5588  15.5624  15.5638  15.6081
    15.6644  15.6677  15.7063  15.8675

          k = 0.0000 0.0000 0.0188 ( 64551 PWs)   bands (ev):

   -20.5817 -20.5303 -20.4537 -20.3507 -20.2181 -20.0561 -19.8670 -19.6511
   -19.4080 -19.1376 -18.8396 -18.5089 -18.1564 -17.7803 -17.3817 -16.9625
   -16.5251 -16.0732 -15.8355 -15.7885 -15.7193 -15.6343 -15.6051 -15.5098
   -15.3644 -15.2067 -15.1391 -15.0107 -14.7992 -14.7049 -14.5681 -14.3704
   -14.3036 -14.1954 -13.8017 -13.7591 -13.6973 -13.6173 -13.5170 -13.4248
   -13.3938 -13.3853 -13.2804 -13.1999 -13.1560 -13.1420 -13.0621 -13.0605
   -12.8105 -12.4406 -12.0425 -11.6235 -11.4173 -11.3690 -11.2530 -11.1863
   -11.1518 -10.9454 -10.8834 -10.7217 -10.5670 -10.5300 -10.2429 -10.2158
   -10.0697  -9.8345  -9.7487  -9.6062  -9.4241  -9.2431  -9.1602  -8.9908
    -8.7438  -8.7104  -8.6658  -8.6071  -8.5553  -8.5175  -8.3958  -8.3249
    -8.2394  -8.2223  -8.1243  -8.0493  -7.9591  -7.8275  -7.7996  -7.6947
    -7.6443  -7.5748  -7.5395  -7.3957  -7.2914  -7.1328  -6.9793  -6.9777
    -6.6342  -6.6294  -6.5739  -6.2579  -6.1831  -6.1437  -5.8587  -5.8120
    -5.6879  -5.4657  -5.4365  -5.2776  -5.1475  -4.9938  -4.9378  -4.8527
    -4.6841  -4.5857  -4.5343  -4.4949  -4.3845  -4.3629  -4.2907  -4.2520
    -4.0624  -3.6522  -3.5938  -3.5844  -3.5041  -3.3824  -3.2267  -3.1083
    -3.0382  -2.8215  -2.6456  -2.5780  -2.3139  -2.2188  -2.0430  -1.8728
    -1.8040  -1.7081  -0.4384  -0.3333  -0.2871  -0.1013   0.0487   0.1438
     0.3607   0.4759   0.5369   0.6714   0.7686   0.8354   0.8786   0.9038
     0.9145   0.9562   1.4740   1.9650   2.0218   2.0860   2.1091   2.1971
     2.2636   2.4169   2.5456   2.5944   2.7616   2.9522   3.1855   3.2274
     3.3623   3.4697   3.4934   3.5759   3.7055   3.7698   3.7813   3.8122
     3.8760   4.0264   4.0478   4.1678   4.2231   4.4223   4.4353   4.5049
     4.5303   4.7449   4.9035   4.9144   4.9415   4.9581   4.9808   5.0532
     5.0610   5.1619   5.3134   5.4137   5.4173   5.5375   5.5422   5.5804
     5.6898   5.7972   5.8739   6.0341   6.1154   6.2110   6.2731   6.3398
     6.3717   6.4710   6.5130   6.6302   6.6376   6.7525   6.8203   6.8705
     6.9007   6.9448   7.0457   7.2868   7.3266   7.3448   7.3594   7.3863
     7.4056   7.4104   7.4527   7.4621   7.4915   7.5215   7.5378   7.5868
     7.5873   7.6446   7.7226   7.7663   7.7974   7.8785   7.9019   7.9463
     8.0182   8.1022   8.1177   8.1534   8.1654   8.2623   8.3515   8.4020
     8.4086   8.4875   8.5463   8.5985   8.6219   8.6847   8.7576   8.7948
     8.8212   8.8254   8.8548   8.9014   8.9659   8.9741   8.9927   9.0111
     9.0813   9.1009   9.1677   9.1919   9.2515   9.3885   9.3908   9.4436
     9.4883   9.5328   9.5354   9.5648   9.6281   9.6373   9.6439   9.6700
     9.6813   9.6924   9.7044   9.7236   9.7639   9.7672   9.7771   9.7895
     9.7930   9.8310   9.8327   9.8384   9.8597   9.8979   9.9118   9.9254
     9.9934  10.0067  10.0134  10.0841  10.1060  10.1249  10.1310  10.1546
    10.2415  10.2490  10.2702  10.2900  10.2975  10.3088  10.3368  10.3515
    10.3591  10.3685  10.3728  10.4260  10.5458  10.5492  10.6230  10.7085
    10.7090  10.7359  10.7451  10.7905  10.8389  10.8721  10.8971  10.9013
    11.0462  11.0485  11.0706  11.0751  11.1173  11.1299  11.1724  11.2853
    11.3225  11.3545  11.3850  11.3860  11.4031  11.4233  11.4573  11.4689
    11.4817  11.5103  11.5227  11.5244  11.5844  11.5912  11.6139  11.6317
    11.6428  11.6598  11.6790  11.6827  11.7116  11.7117  11.7333  11.7694
    11.7806  11.7860  11.8173  11.8287  11.8299  11.8723  11.9015  11.9211
    11.9270  11.9560  11.9617  11.9680  12.0285  12.0341  12.0391  12.0463
    12.0915  12.1083  12.1108  12.1623  12.1790  12.1826  12.1857  12.1950
    12.2153  12.2367  12.2447  12.2802  12.2813  12.3059  12.3228  12.3268
    12.3288  12.3407  12.3648  12.4193  12.4230  12.4324  12.4541  12.4658
    12.4689  12.4823  12.4922  12.5016  12.5270  12.5339  12.5429  12.5920
    12.6150  12.6216  12.6323  12.6854  12.7568  12.7579  12.8525  12.8592
    12.9153  12.9726  12.9786  13.0091  13.0438  13.1376  13.1761  13.1789
    13.2147  13.2911  13.3108  13.3588  13.4400  13.5220  13.5465  13.5551
    13.5949  13.6506  13.7472  13.8175  13.8314  13.8549  13.8922  13.9249
    13.9754  14.0167  14.0414  14.0855  14.1109  14.1386  14.2258  14.2791
    14.2857  14.2876  14.3422  14.3890  14.3967  14.4065  14.4143  14.4599
    14.4668  14.5419  14.5438  14.5643  14.5933  14.6152  14.6432  14.6498
    14.7144  14.7197  14.7317  14.7624  14.8146  14.8230  14.8349  14.8407
    14.9299  14.9382  14.9751  14.9874  15.0514  15.0643  15.0912  15.0999
    15.1053  15.1387  15.1565  15.1817  15.2456  15.2465  15.3464  15.3846
    15.3967  15.4126  15.4242  15.5332  15.5461  15.5500  15.5765  15.6015
    15.6826  15.6960  15.7935  15.8199

          k = 0.0000 0.0000 0.0235 ( 64567 PWs)   bands (ev):

   -20.5604 -20.5090 -20.4324 -20.3295 -20.1968 -20.0349 -19.8459 -19.6300
   -19.3870 -19.1167 -18.8189 -18.4882 -18.1359 -17.7600 -17.3618 -16.9431
   -16.5065 -16.0567 -16.0156 -15.9684 -15.8982 -15.8069 -15.6866 -15.6020
   -15.5345 -15.3749 -15.1818 -15.1383 -14.9653 -14.7639 -14.6794 -14.5184
   -14.3637 -14.3261 -13.5900 -13.5482 -13.4884 -13.4507 -13.4130 -13.3770
   -13.3114 -13.2425 -13.1938 -13.1256 -13.0657 -12.9739 -12.9278 -12.9190
   -12.8921 -12.5635 -12.1664 -11.7453 -11.3319 -11.2755 -11.2541 -11.1624
   -11.0247 -10.8875 -10.8349 -10.7425 -10.4890 -10.4340 -10.3471 -10.0879
   -10.0300  -9.8509  -9.7183  -9.5579  -9.3406  -9.3268  -9.1001  -8.9166
    -8.8141  -8.6662  -8.6402  -8.5816  -8.4991  -8.4920  -8.3703  -8.3076
    -8.2490  -8.2141  -8.0918  -8.0241  -7.9293  -7.8025  -7.7717  -7.6866
    -7.6714  -7.5500  -7.5181  -7.3341  -7.2669  -7.2113  -6.9535  -6.9232
    -6.7100  -6.6105  -6.5294  -6.2348  -6.2222  -6.1519  -5.8365  -5.7951
    -5.7633  -5.4635  -5.4154  -5.3484  -5.1613  -4.9988  -4.9744  -4.8873
    -4.7376  -4.6381  -4.5517  -4.5172  -4.4461  -4.4247  -4.3542  -4.2964
    -4.0490  -3.7715  -3.7137  -3.6253  -3.5762  -3.5050  -3.3514  -3.1672
    -3.1082  -2.9537  -2.7163  -2.6620  -2.4605  -2.2640  -2.2000  -1.9792
    -1.9594  -1.8598  -0.2973  -0.2101  -0.1693   0.0573   0.0729   0.2973
     0.4682   0.5113   0.6866   0.8212   0.9190   0.9299   0.9864   1.0303
     1.0558   1.0668   1.4362   1.9763   1.9938   2.1148   2.1382   2.2260
     2.2927   2.4458   2.5434   2.5747   2.7906   2.9814   3.1303   3.2564
     3.3912   3.4988   3.5267   3.6013   3.7344   3.7519   3.7988   3.8213
     3.9050   4.0556   4.0773   4.1967   4.2523   4.3631   4.4643   4.5338
     4.5590   4.7740   4.9321   4.9441   4.9682   4.9867   4.9928   5.0098
     5.0898   5.1905   5.3420   5.4406   5.4418   5.5652   5.5662   5.6095
     5.6323   5.8249   5.9007   6.0628   6.1502   6.2365   6.2931   6.3006
     6.3963   6.4825   6.5387   6.6469   6.6641   6.7689   6.8554   6.8822
     6.8836   6.9348   7.0692   7.3045   7.3371   7.3614   7.3670   7.3816
     7.4073   7.4298   7.4412   7.4633   7.4795   7.5070   7.5373   7.5380
     7.5987   7.6544   7.6790   7.7308   7.7992   7.8634   7.8988   7.9038
     7.9712   8.0463   8.1144   8.1206   8.1393   8.1861   8.3321   8.4009
     8.4171   8.4191   8.4898   8.5531   8.5669   8.6209   8.6335   8.6425
     8.6526   8.7187   8.7480   8.7903   8.8158   8.8566   8.9046   8.9809
     8.9920   9.0112   9.0600   9.0733   9.1194   9.2108   9.2667   9.2839
     9.4134   9.4237   9.4710   9.5029   9.5733   9.5904   9.6080   9.6265
     9.6712   9.7154   9.7172   9.7243   9.7290   9.7563   9.7899   9.7990
     9.8001   9.8241   9.8350   9.8357   9.8683   9.8808   9.8877   9.8885
     9.9356   9.9492   9.9800   9.9949   9.9989  10.0077  10.0278  10.0315
    10.0328  10.0801  10.0861  10.1245  10.1363  10.1515  10.1887  10.1965
    10.1965  10.2704  10.2722  10.4474  10.4620  10.4634  10.4919  10.5745
    10.5899  10.6992  10.7526  10.7618  10.8276  10.8279  10.8863  10.9199
    10.9546  11.0548  11.0615  11.0724  11.0823  11.1040  11.1655  11.2081
    11.2852  11.3037  11.3157  11.3323  11.3429  11.3832  11.4311  11.4396
    11.4862  11.5078  11.5341  11.5388  11.5988  11.6229  11.6561  11.6623
    11.6700  11.6952  11.7101  11.7131  11.7270  11.7413  11.7506  11.7834
    11.8121  11.8311  11.8424  11.8482  11.8487  11.8955  11.9097  11.9388
    11.9431  12.0044  12.0074  12.0527  12.0583  12.0616  12.0671  12.0757
    12.1067  12.1155  12.1544  12.1759  12.1915  12.2152  12.2200  12.2239
    12.2267  12.2338  12.2720  12.2762  12.3046  12.3217  12.3285  12.3345
    12.3398  12.3452  12.3706  12.4034  12.4383  12.4499  12.4708  12.5180
    12.5301  12.5371  12.5599  12.5646  12.5712  12.6029  12.6049  12.6239
    12.6267  12.6605  12.6984  12.7003  12.8252  12.8334  12.8860  12.8872
    12.9032  12.9111  12.9256  12.9536  13.0376  13.1144  13.1354  13.1518
    13.1632  13.1769  13.3325  13.3636  13.4101  13.5086  13.5457  13.5772
    13.5996  13.6910  13.7303  13.7957  13.8579  13.8951  13.9003  13.9577
    13.9885  14.0491  14.0797  14.2702  14.2833  14.3297  14.3464  14.3580
    14.3945  14.3974  14.4297  14.4523  14.5031  14.5294  14.5688  14.5703
    14.5847  14.5908  14.6146  14.6350  14.6487  14.6677  14.6708  14.7016
    14.7241  14.7803  14.7971  14.8080  14.8679  14.8803  14.8840  14.8900
    14.8916  14.9802  14.9925  15.0057  15.0258  15.0275  15.1119  15.1328
    15.1445  15.1657  15.2042  15.2114  15.2641  15.2986  15.3240  15.3869
    15.4139  15.4428  15.5292  15.5416  15.5836  15.5849  15.6220  15.6332
    15.6810  15.6962  15.7481  15.7496

          k = 0.0000 0.0000 0.0282 ( 64628 PWs)   bands (ev):

   -20.5343 -20.4830 -20.4064 -20.3035 -20.1709 -20.0090 -19.8201 -19.6043
   -19.3614 -19.0912 -18.7935 -18.4630 -18.1109 -17.7353 -17.3375 -16.9194
   -16.4840 -16.1995 -16.1516 -16.0838 -16.0339 -15.9881 -15.8660 -15.7242
   -15.5761 -15.5510 -15.3545 -15.1722 -15.0936 -14.9205 -14.6998 -14.6784
   -14.4639 -14.4305 -13.4993 -13.3962 -13.3679 -13.3279 -13.2956 -13.2678
   -13.1896 -13.1014 -13.0852 -12.9937 -12.9867 -12.8694 -12.8143 -12.7610
   -12.7239 -12.6874 -12.2983 -11.8763 -11.4351 -11.1720 -11.1407 -11.0527
   -10.9393 -10.8985 -10.8026 -10.5963 -10.4675 -10.4395 -10.2798  -9.9894
    -9.9788  -9.9297  -9.5880  -9.5161  -9.4466  -9.2085  -9.0521  -8.9167
    -8.8156  -8.6146  -8.6090  -8.5504  -8.4609  -8.4147  -8.3923  -8.3393
    -8.2143  -8.1832  -8.0174  -7.9933  -7.9149  -7.8290  -7.7719  -7.6447
    -7.6297  -7.5197  -7.4914  -7.3354  -7.2369  -7.2327  -6.9240  -6.8768
    -6.7903  -6.5815  -6.4882  -6.3093  -6.2067  -6.1247  -5.8491  -5.8094
    -5.7837  -5.4688  -5.4311  -5.3898  -5.1838  -5.0756  -4.9508  -4.9293
    -4.8067  -4.7016  -4.6215  -4.5291  -4.4966  -4.4965  -4.4214  -4.3501
    -4.0327  -3.9072  -3.8499  -3.7624  -3.6436  -3.5673  -3.4916  -3.3102
    -3.1104  -3.1008  -2.8681  -2.6841  -2.6172  -2.3708  -2.3119  -2.1451
    -2.0673  -2.0135  -0.1561  -0.1248  -0.0050   0.1012   0.2251   0.4582
     0.4661   0.6783   0.8549   0.8996   0.9912   1.0908   1.1597   1.2047
     1.2311   1.2426   1.3918   1.9225   2.0289   2.1498   2.1738   2.2614
     2.3283   2.4813   2.4830   2.6103   2.8260   3.0169   3.0652   3.2917
     3.4264   3.5343   3.5665   3.6123   3.7142   3.7698   3.8342   3.8557
     3.9404   4.0913   4.1132   4.2319   4.2880   4.2932   4.4997   4.5691
     4.5943   4.8096   4.9170   4.9672   4.9797   5.0055   5.0218   5.0452
     5.1250   5.2255   5.3769   5.4564   5.4759   5.5787   5.5915   5.6013
     5.6450   5.8587   5.9327   6.0977   6.1905   6.2086   6.2977   6.3339
     6.4240   6.4954   6.5689   6.6646   6.6960   6.7871   6.8093   6.8957
     6.8978   6.9741   7.0964   7.3198   7.3493   7.3755   7.3807   7.3819
     7.3868   7.3917   7.4086   7.4451   7.4571   7.4937   7.5433   7.5547
     7.5565   7.6415   7.6874   7.7130   7.7841   7.8384   7.8526   7.9135
     7.9396   7.9935   8.0409   8.0653   8.1126   8.2250   8.2741   8.2869
     8.3144   8.3468   8.4079   8.4084   8.4425   8.4709   8.4857   8.5315
     8.5628   8.6005   8.6346   8.6746   8.7638   8.7941   8.8505   8.8653
     8.8990   8.9182   8.9353   9.0834   9.0893   9.1147   9.1174   9.1819
     9.2099   9.3070   9.3156   9.3654   9.4838   9.5472   9.6061   9.6337
     9.6476   9.6491   9.6618   9.7047   9.7450   9.7452   9.7514   9.7583
     9.7609   9.7754   9.8104   9.8164   9.8225   9.8236   9.8365   9.8389
     9.8463   9.8526   9.8731   9.8953   9.9157   9.9337   9.9403   9.9412
     9.9500   9.9611   9.9673   9.9839  10.0099  10.0388  10.0900  10.1194
    10.1349  10.1832  10.2479  10.2562  10.2752  10.3342  10.4341  10.5200
    10.6067  10.6209  10.7156  10.7190  10.7403  10.7958  10.8108  10.9300
    10.9619  10.9926  11.0356  11.0381  11.0580  11.0664  11.0942  11.1266
    11.1376  11.1674  11.1793  11.1794  11.1869  11.2773  11.2835  11.3951
    11.4063  11.4145  11.5161  11.5218  11.5385  11.5736  11.6086  11.6421
    11.6559  11.6865  11.7479  11.7575  11.7745  11.7863  11.8020  11.8241
    11.8399  11.8819  11.9103  11.9641  11.9800  11.9914  12.0130  12.0268
    12.0355  12.0601  12.0836  12.0893  12.0897  12.0995  12.1129  12.1184
    12.1386  12.1695  12.1849  12.2041  12.2180  12.2272  12.2373  12.2662
    12.2683  12.2772  12.2779  12.2932  12.3181  12.3290  12.3455  12.3671
    12.3726  12.3758  12.3819  12.4134  12.4531  12.4748  12.4762  12.5019
    12.5131  12.5567  12.5888  12.6092  12.6279  12.6638  12.6769  12.7117
    12.7251  12.7354  12.7481  12.7841  12.8176  12.8333  12.8351  12.8363
    12.9190  12.9850  12.9920  13.0341  13.0733  13.0974  13.1368  13.1478
    13.1528  13.2288  13.3050  13.3487  13.3933  13.4147  13.5780  13.6134
    13.6190  13.6218  13.7274  13.7660  13.8044  13.9487  13.9863  14.0501
    14.0507  14.1131  14.1622  14.1706  14.2876  14.3433  14.3546  14.3646
    14.4562  14.5159  14.5294  14.5489  14.5864  14.6186  14.6478  14.6744
    14.6981  14.7163  14.7299  14.7389  14.7543  14.7735  14.7774  14.7923
    14.8043  14.8360  14.8441  14.8735  14.8830  14.8970  14.9151  14.9188
    14.9373  14.9434  15.0085  15.0118  15.0846  15.0991  15.1184  15.1476
    15.1730  15.2405  15.2586  15.3297  15.3653  15.4041  15.4069  15.4288
    15.4751  15.4988  15.5337  15.5405  15.5673  15.5682  15.5881  15.6184
    15.6656  15.6671  15.7256  15.8123

          k = 0.0000 0.0000 0.0329 ( 64620 PWs)   bands (ev):

   -20.5036 -20.4522 -20.3756 -20.2728 -20.1403 -19.9785 -19.7896 -19.5739
   -19.3311 -19.0610 -18.7635 -18.4333 -18.0814 -17.7062 -17.3089 -16.8917
   -16.4582 -16.3836 -16.3351 -16.2651 -16.1700 -16.0570 -16.0027 -15.9020
   -15.7274 -15.5809 -15.5068 -15.3264 -15.1023 -15.0877 -14.8390 -14.7205
   -14.6021 -14.5134 -13.5345 -13.4854 -13.2746 -13.1989 -13.1386 -13.0982
   -13.0415 -12.9662 -12.9364 -12.8695 -12.8423 -12.7723 -12.6641 -12.6604
   -12.5739 -12.5594 -12.4302 -12.0121 -11.5678 -11.1191 -11.0302 -11.0004
   -10.8737 -10.8068 -10.6807 -10.5676 -10.4594 -10.3682 -10.1251 -10.0812
    -9.9465  -9.7892  -9.5699  -9.4768  -9.4344  -9.0894  -9.0147  -9.0109
    -8.7014  -8.5721  -8.5712  -8.5136  -8.4944  -8.4241  -8.3140  -8.3027
    -8.1749  -8.1467  -7.9743  -7.9570  -7.9278  -7.8357  -7.7359  -7.6165
    -7.5513  -7.4840  -7.4591  -7.4249  -7.2015  -7.1709  -6.9225  -6.8891
    -6.7887  -6.5474  -6.4677  -6.3886  -6.1734  -6.1061  -5.9417  -5.7809
    -5.7774  -5.5238  -5.4837  -5.3596  -5.2169  -5.1657  -4.9816  -4.9230
    -4.8919  -4.7766  -4.7059  -4.6306  -4.5765  -4.4917  -4.4724  -4.4125
    -4.0555  -4.0144  -3.9982  -3.9120  -3.7943  -3.6453  -3.5557  -3.4649
    -3.2584  -3.1145  -3.0281  -2.7886  -2.7033  -2.5398  -2.3741  -2.3155
    -2.1789  -2.1681  -0.0342  -0.0155   0.1354   0.1593   0.3971   0.4529
     0.6399   0.8558   0.8679   1.0375   1.1774   1.2800   1.3419   1.3514
     1.3982   1.4258   1.4381   1.8615   2.0705   2.1913   2.2159   2.3032
     2.3704   2.4142   2.5232   2.6524   2.8679   2.9911   3.0590   3.3335
     3.4680   3.5695   3.5763   3.6125   3.7263   3.8115   3.8760   3.8976
     3.9821   4.1335   4.1555   4.2136   4.2739   4.3301   4.5412   4.6108
     4.6360   4.8345   4.8515   5.0086   5.0208   5.0459   5.0633   5.0869
     5.1665   5.2668   5.4182   5.4274   5.5161   5.5669   5.6185   5.6427
     5.6870   5.8985   5.9693   6.1385   6.1429   6.2363   6.3408   6.3726
     6.4525   6.5096   6.6015   6.6824   6.7253   6.7327   6.8051   6.9039
     6.9471   7.0203   7.1254   7.3040   7.3184   7.3600   7.3650   7.3662
     7.3848   7.3954   7.3978   7.4031   7.4298   7.4834   7.4929   7.5516
     7.5781   7.5909   7.6673   7.7168   7.7726   7.8251   7.8484   7.8905
     7.9281   7.9301   7.9604   8.0121   8.0650   8.0824   8.0972   8.1665
     8.1744   8.2632   8.2672   8.3018   8.3621   8.3782   8.4068   8.4116
     8.4897   8.5206   8.5280   8.6130   8.6584   8.7177   8.7194   8.8124
     8.8406   8.8715   8.8787   8.9473   8.9611   9.0244   9.1095   9.1347
     9.1584   9.1943   9.2038   9.2634   9.3022   9.3418   9.4117   9.4994
     9.5039   9.5489   9.5854   9.5977   9.6321   9.6394   9.6528   9.6934
     9.7135   9.7236   9.7270   9.7479   9.7567   9.7612   9.7726   9.7861
     9.7899   9.7977   9.8256   9.8374   9.8628   9.8753   9.8815   9.9025
     9.9146   9.9678   9.9702   9.9864  10.0037  10.0051  10.0255  10.0425
    10.0515  10.0856  10.1319  10.1474  10.2621  10.3514  10.3518  10.3637
    10.3905  10.5776  10.6445  10.6799  10.7063  10.7411  10.7666  10.8164
    10.8166  10.8920  10.9052  10.9742  10.9750  10.9858  11.0049  11.0085
    11.0821  11.1040  11.1071  11.1227  11.1371  11.1594  11.1818  11.2203
    11.3187  11.3602  11.3846  11.4830  11.5630  11.5673  11.5740  11.6068
    11.6194  11.6252  11.6974  11.7821  11.7920  11.8168  11.8403  11.8476
    11.8724  11.8917  11.9081  11.9350  11.9696  12.0046  12.0189  12.0424
    12.0454  12.0914  12.0993  12.1249  12.1281  12.1472  12.1588  12.1797
    12.1889  12.2015  12.2134  12.2771  12.2925  12.3000  12.3105  12.3175
    12.3215  12.3220  12.3444  12.3726  12.3748  12.3861  12.4025  12.4096
    12.4192  12.4361  12.4685  12.5080  12.5177  12.5574  12.5620  12.5671
    12.6017  12.6022  12.6164  12.6228  12.6541  12.6729  12.6794  12.6802
    12.7289  12.7330  12.7769  12.8073  12.8797  12.8943  12.9026  12.9065
    12.9400  12.9556  12.9682  13.0543  13.0766  13.1701  13.1880  13.2381
    13.2413  13.2852  13.3466  13.3608  13.3755  13.4074  13.5134  13.5719
    13.6233  13.6543  13.6632  13.8211  13.9203  13.9429  14.0101  14.0322
    14.0500  14.0805  14.1236  14.2889  14.3427  14.3439  14.3743  14.3921
    14.3968  14.4995  14.5212  14.5240  14.5616  14.5903  14.6228  14.6581
    14.7046  14.7638  14.8541  14.8675  14.8722  14.8767  14.8802  14.9250
    14.9352  14.9381  14.9557  14.9818  14.9870  14.9877  14.9987  15.0039
    15.0458  15.0634  15.0740  15.1080  15.1247  15.1801  15.2004  15.2037
    15.2562  15.3012  15.3326  15.3405  15.3764  15.4128  15.4365  15.4579
    15.4612  15.5454  15.5687  15.5781  15.5991  15.6010  15.6799  15.6869
    15.7064  15.7594  15.8029  15.8597

          k = 0.0000 0.0000 0.0376 ( 64654 PWs)   bands (ev):

   -20.4681 -20.4167 -20.3402 -20.2374 -20.1049 -19.9432 -19.7544 -19.5389
   -19.2962 -19.0263 -18.7290 -18.3990 -18.0474 -17.6726 -17.2760 -16.8600
   -16.5667 -16.5189 -16.4471 -16.4300 -16.3490 -16.2310 -16.0797 -15.9912
   -15.8948 -15.7192 -15.5229 -15.4960 -15.2537 -15.1043 -14.9899 -14.7876
   -14.7044 -14.6117 -13.5800 -13.5587 -13.3206 -13.2433 -12.9701 -12.9036
   -12.8670 -12.8641 -12.8066 -12.7369 -12.6472 -12.5765 -12.5695 -12.5304
   -12.4530 -12.3847 -12.3819 -12.1478 -11.7045 -11.2417 -10.8781 -10.8774
   -10.7890 -10.7130 -10.6494 -10.4841 -10.3873 -10.2567 -10.1588  -9.9790
    -9.8963  -9.6713  -9.6340  -9.4405  -9.2893  -9.1440  -8.9735  -8.9317
    -8.6296  -8.5508  -8.5312  -8.5296  -8.4711  -8.3817  -8.2604  -8.2108
    -8.1351  -8.1046  -8.0702  -7.9151  -7.8341  -7.8045  -7.6943  -7.6008
    -7.5102  -7.4738  -7.4427  -7.4199  -7.1608  -7.1038  -7.0240  -6.8490
    -6.7419  -6.5355  -6.5080  -6.3932  -6.1352  -6.1113  -6.0268  -5.7901
    -5.7406  -5.6235  -5.5102  -5.3248  -5.2673  -5.2621  -5.0460  -4.9934
    -4.8912  -4.8633  -4.8101  -4.7412  -4.6633  -4.5670  -4.4828  -4.4447
    -4.2133  -4.1570  -4.0708  -3.9935  -3.9533  -3.8062  -3.6278  -3.5453
    -3.4225  -3.2012  -3.1131  -2.9580  -2.7338  -2.7122  -2.4858  -2.4430
    -2.3228  -2.2961   0.0602   0.1232   0.1758   0.3229   0.4477   0.5718
     0.8217   0.8308   1.0455   1.2307   1.2878   1.3761   1.4830   1.5579
     1.6073   1.6367   1.6501   1.7942   2.1184   2.2391   2.2644   2.3381
     2.3514   2.4189   2.5715   2.7009   2.9089   2.9162   3.1075   3.3817
     3.4923   3.5159   3.6248   3.6640   3.7704   3.8596   3.9242   3.9462
     4.0292   4.1275   4.1821   4.2041   4.3219   4.3787   4.5881   4.6588
     4.6839   4.7441   4.8999   5.0564   5.0659   5.0928   5.1111   5.1348
     5.2144   5.3146   5.3533   5.4660   5.5621   5.5991   5.6411   5.6905
     5.7352   5.9442   6.0095   6.0747   6.1851   6.2878   6.3929   6.4151
     6.4779   6.5242   6.6317   6.6320   6.6998   6.7730   6.8198   6.9052
     7.0030   7.0729   7.1520   7.2050   7.2851   7.3268   7.3277   7.3570
     7.3678   7.3750   7.3828   7.4243   7.4267   7.4432   7.4442   7.5157
     7.5747   7.6039   7.6452   7.6872   7.7154   7.7451   7.7492   7.7965
     7.8040   7.8944   7.8961   7.9405   7.9478   7.9499   8.0456   8.0765
     8.1160   8.1330   8.1641   8.2158   8.2526   8.3020   8.3352   8.3508
     8.4174   8.4261   8.5182   8.5286   8.5564   8.6382   8.6387   8.7036
     8.7307   8.7909   8.7996   8.8668   8.9030   8.9873   9.0584   9.0655
     9.0795   9.1019   9.1361   9.1694   9.2001   9.2147   9.2297   9.2593
     9.2778   9.3620   9.3847   9.4179   9.4417   9.4427   9.5221   9.5484
     9.5822   9.6410   9.6479   9.6601   9.7127   9.7198   9.7440   9.7482
     9.7668   9.7728   9.7916   9.8118   9.8397   9.8422   9.8703   9.8772
     9.8808   9.8825   9.9392   9.9417   9.9824  10.0161  10.0520  10.0571
    10.0793  10.0927  10.1150  10.1633  10.1653  10.1956  10.2484  10.2939
    10.3909  10.4646  10.4982  10.5249  10.5362  10.5667  10.6355  10.6869
    10.7449  10.7607  10.8295  10.8739  10.8810  10.8907  10.8959  10.9663
    11.0038  11.0220  11.0249  11.0827  11.0837  11.1564  11.1592  11.2156
    11.2282  11.2502  11.3016  11.3520  11.3733  11.5537  11.5808  11.6107
    11.6120  11.6636  11.7225  11.7420  11.7434  11.8106  11.8190  11.8418
    11.8629  11.8652  11.9316  11.9530  11.9936  12.0001  12.0328  12.0428
    12.0442  12.0592  12.0765  12.0909  12.1391  12.1509  12.1568  12.1728
    12.1973  12.1976  12.1978  12.2017  12.2959  12.3309  12.3362  12.3583
    12.3734  12.3793  12.3883  12.4146  12.4640  12.4775  12.4777  12.4833
    12.5079  12.5436  12.5771  12.5841  12.6147  12.6243  12.6435  12.6629
    12.6806  12.6965  12.7029  12.7049  12.7157  12.7492  12.7501  12.7558
    12.7587  12.8015  12.8020  12.8534  12.8622  12.8852  12.9121  13.0046
    13.0187  13.0231  13.0383  13.0559  13.0877  13.1707  13.2062  13.2577
    13.2872  13.3154  13.4172  13.4223  13.4262  13.4687  13.4778  13.5551
    13.5587  13.6674  13.7433  13.8069  13.8647  14.0046  14.0115  14.0219
    14.0668  14.1166  14.1699  14.1956  14.2653  14.2817  14.3627  14.4089
    14.4123  14.4434  14.5154  14.5285  14.6083  14.6309  14.6316  14.6907
    14.7192  14.7703  14.7746  14.8445  14.8852  14.9181  14.9598  14.9652
    14.9714  14.9975  15.0701  15.0884  15.0935  15.1452  15.1547  15.1613
    15.1809  15.2120  15.2380  15.2455  15.2627  15.2661  15.2782  15.2938
    15.3039  15.3553  15.3644  15.3825  15.4278  15.4728  15.4821  15.4862
    15.5620  15.5643  15.5652  15.6213  15.6531  15.7032  15.7737  15.7777
    15.7856  15.8308  15.8486  15.8964

          k = 0.0000 0.0000 0.0423 ( 64648 PWs)   bands (ev):

   -20.4278 -20.3765 -20.3000 -20.1973 -20.0649 -19.9033 -19.7146 -19.4992
   -19.2567 -18.9869 -18.6898 -18.3601 -18.0090 -17.6347 -17.2390 -16.8250
   -16.7477 -16.6993 -16.6269 -16.5336 -16.4083 -16.3954 -16.2526 -16.0927
   -15.9402 -15.8890 -15.6639 -15.5158 -15.4059 -15.1897 -15.0563 -14.9231
   -14.7513 -14.7223 -13.6634 -13.5828 -13.4267 -13.2306 -13.0788 -12.8269
   -12.6825 -12.6634 -12.6254 -12.5706 -12.5053 -12.4577 -12.4181 -12.3224
   -12.2796 -12.2520 -12.2214 -12.1831 -11.8408 -11.3760 -10.9012 -10.7390
   -10.7038 -10.5702 -10.5406 -10.4115 -10.3124 -10.2281 -10.0431  -9.9321
    -9.8099  -9.7054  -9.4843  -9.4183  -9.2271  -9.1398  -8.9461  -8.7945
    -8.7135  -8.4951  -8.4815  -8.4408  -8.4231  -8.3338  -8.2126  -8.1988
    -8.0948  -8.0771  -8.0569  -7.8677  -7.7654  -7.7485  -7.6577  -7.6472
    -7.5146  -7.4076  -7.3960  -7.3697  -7.1320  -7.1146  -7.0411  -6.8035
    -6.6981  -6.6422  -6.4635  -6.3730  -6.1853  -6.0919  -6.0599  -5.8199
    -5.7223  -5.6990  -5.5505  -5.3784  -5.3206  -5.2855  -5.1233  -5.1106
    -4.9613  -4.9397  -4.8553  -4.8517  -4.7555  -4.6481  -4.5603  -4.4139
    -4.3780  -4.3220  -4.2363  -4.1210  -3.9733  -3.9690  -3.7957  -3.5982
    -3.5274  -3.3714  -3.1309  -3.1205  -2.8853  -2.7690  -2.6544  -2.5210
    -2.4748  -2.4175   0.1576   0.2150   0.2672   0.4418   0.4888   0.7468
     0.7961   1.0075   1.2293   1.2398   1.4333   1.5845   1.6973   1.7220
     1.7766   1.8293   1.8609   1.8757   2.1726   2.2557   2.2932   2.3194
     2.4061   2.4739   2.6263   2.7560   2.8196   2.9710   3.1626   3.4017
     3.4364   3.5702   3.6798   3.7189   3.8263   3.9136   3.9788   4.0012
     4.0300   4.0898   4.2373   4.2588   4.3764   4.4336   4.6213   4.6664
     4.7132   4.7380   4.9547   5.1080   5.1105   5.1458   5.1653   5.1889
     5.2686   5.2697   5.3687   5.5201   5.6136   5.6469   5.6480   5.7447
     5.7897   5.9953   6.0186   6.0514   6.2367   6.3451   6.4518   6.4524
     6.4990   6.5298   6.5367   6.6497   6.7180   6.8140   6.8289   6.9023
     7.0608   7.1004   7.1317   7.1642   7.2318   7.2751   7.2772   7.3113
     7.3369   7.3482   7.3622   7.4039   7.4422   7.4485   7.4558   7.4566
     7.4850   7.5392   7.5476   7.5847   7.6286   7.6354   7.6501   7.6615
     7.7052   7.7496   7.7823   7.8192   7.8655   7.9680   7.9993   8.0334
     8.0732   8.0922   8.1386   8.1630   8.1805   8.1851   8.2329   8.3045
     8.3831   8.3915   8.4186   8.4553   8.5559   8.5638   8.5640   8.5878
     8.5995   8.6553   8.8168   8.8171   8.8362   8.8534   8.8943   8.9639
     8.9844   8.9955   9.0498   9.0605   9.0648   9.0767   9.0804   9.1446
     9.2083   9.2209   9.2263   9.2519   9.3076   9.3294   9.3320   9.3941
     9.3953   9.4448   9.4905   9.5028   9.5973   9.6112   9.6221   9.6662
     9.7393   9.7783   9.7837   9.8060   9.8079   9.8118   9.8361   9.8531
     9.8849   9.8947   9.8969   9.9712   9.9812   9.9921  10.0393  10.0395
    10.0888  10.0918  10.1051  10.1334  10.1428  10.2308  10.2388  10.2434
    10.2736  10.2887  10.3363  10.3582  10.3977  10.4355  10.4441  10.5464
    10.6195  10.6616  10.6972  10.7323  10.7755  10.8431  10.8511  10.8768
    10.9180  10.9220  10.9432  11.0108  11.0878  11.1044  11.1321  11.1905
    11.2031  11.2803  11.2811  11.2981  11.3208  11.3742  11.4151  11.5339
    11.6502  11.6630  11.6761  11.6818  11.7179  11.7352  11.8060  11.8573
    11.8970  11.9180  11.9474  11.9670  11.9777  11.9934  12.0071  12.0439
    12.0471  12.0988  12.1009  12.1065  12.1149  12.1204  12.1343  12.1396
    12.1851  12.2372  12.2413  12.2469  12.2936  12.3190  12.3569  12.3690
    12.3831  12.4007  12.4023  12.4204  12.4321  12.4707  12.5030  12.5032
    12.5148  12.5167  12.5763  12.6068  12.6589  12.6681  12.6685  12.6795
    12.7047  12.7049  12.7604  12.7749  12.8386  12.8625  12.8729  12.8746
    12.9436  12.9626  12.9705  12.9780  12.9878  12.9968  13.0477  13.0523
    13.0658  13.0869  13.1235  13.1297  13.1671  13.1838  13.2520  13.2753
    13.2859  13.3265  13.3573  13.3628  13.3930  13.4997  13.5006  13.6444
    13.6470  13.7094  13.7379  13.7437  13.8333  13.9112  13.9355  14.0839
    14.0966  14.1513  14.1710  14.2387  14.2408  14.2410  14.2541  14.3814
    14.4320  14.4487  14.5092  14.5356  14.5386  14.6484  14.6799  14.7289
    14.7682  14.7751  14.8471  14.8549  14.8843  14.9413  14.9722  14.9884
    15.0069  15.0078  15.0605  15.1488  15.1891  15.2318  15.2384  15.2739
    15.2946  15.2959  15.3182  15.3295  15.3607  15.3650  15.3661  15.3929
    15.3976  15.4030  15.4941  15.5306  15.5487  15.5838  15.5930  15.6269
    15.6278  15.6544  15.6574  15.6781  15.6871  15.7563  15.8122  15.8323
    15.8397  15.8639  15.8676  15.9477

          k = 0.0000 0.0000 0.0469 ( 64686 PWs)   bands (ev):

   -20.3829 -20.3316 -20.2552 -20.1525 -20.0202 -19.8587 -19.6701 -19.4548
   -19.2125 -18.9430 -18.6462 -18.3168 -17.9661 -17.5926 -17.1981 -16.9264
   -16.8774 -16.8114 -16.7802 -16.7092 -16.5822 -16.4450 -16.3428 -16.2610
   -16.0573 -15.9256 -15.8173 -15.6101 -15.4513 -15.3414 -15.0700 -15.0586
   -14.8409 -14.8010 -13.7304 -13.6387 -13.4834 -13.2976 -13.1039 -12.8994
   -12.6810 -12.4754 -12.4196 -12.3827 -12.3302 -12.3026 -12.2606 -12.1875
   -12.1064 -12.0986 -12.0229 -11.9976 -11.9598 -11.5110 -11.0288 -10.6055
   -10.5334 -10.5070 -10.4580 -10.3506 -10.1663 -10.1334 -10.0033  -9.8706
    -9.7558  -9.5785  -9.4798  -9.3346  -9.2236  -8.9940  -8.9589  -8.7656
    -8.6566  -8.4761  -8.4278  -8.3694  -8.3178  -8.2805  -8.2802  -8.1592
    -8.0567  -8.0037  -7.9757  -7.8148  -7.7820  -7.7226  -7.6350  -7.5946
    -7.4763  -7.3551  -7.3439  -7.3246  -7.2253  -7.0631  -6.9868  -6.7556
    -6.7528  -6.6625  -6.4138  -6.3594  -6.2958  -6.0736  -6.0436  -5.8944
    -5.7964  -5.6527  -5.6085  -5.4956  -5.3936  -5.2428  -5.2419  -5.2144
    -5.0910  -5.0694  -4.9625  -4.8527  -4.8155  -4.7351  -4.6441  -4.5475
    -4.4916  -4.4077  -4.3786  -4.2914  -4.1442  -3.9763  -3.9349  -3.7687
    -3.5449  -3.5177  -3.3045  -3.1318  -3.0550  -2.8368  -2.7939  -2.6399
    -2.5915  -2.5421   0.2572   0.2651   0.4042   0.4438   0.6494   0.7579
     0.9261   1.1659   1.1994   1.4384   1.6414   1.6451   1.8014   1.9203
     2.0052   2.0618   2.0962   2.1127   2.1683   2.2331   2.3536   2.3808
     2.4671   2.5354   2.6875   2.7244   2.8175   3.0323   3.2241   3.3026
     3.4976   3.6307   3.7412   3.7669   3.8898   3.9428   3.9786   4.0398
     4.0624   4.1484   4.2990   4.3184   4.4373   4.4948   4.5346   4.7103
     4.7739   4.7980   5.0158   5.1006   5.1710   5.2047   5.2260   5.2315
     5.2491   5.3292   5.4292   5.5806   5.6217   5.6703   5.7018   5.8052
     5.8501   5.9934   6.0511   6.0909   6.2920   6.4072   6.4227   6.4459
     6.5167   6.5386   6.5400   6.6401   6.7409   6.8311   6.8518   6.9119
     6.9742   7.1369   7.1371   7.1661   7.1966   7.2296   7.2300   7.2321
     7.2439   7.2778   7.2947   7.3382   7.3472   7.3786   7.3946   7.4135
     7.4236   7.4579   7.4936   7.4962   7.5109   7.5255   7.5572   7.6185
     7.6705   7.6722   7.7448   7.7604   7.7682   7.8140   7.8767   7.9916
     8.0100   8.0213   8.0632   8.1004   8.1157   8.2247   8.2416   8.2700
     8.2975   8.3120   8.4290   8.4375   8.4634   8.4837   8.4992   8.5424
     8.5681   8.5903   8.6711   8.6745   8.7340   8.7382   8.7607   8.8087
     8.8531   8.8548   8.8637   8.9534   8.9581   8.9687   9.0096   9.0254
     9.0896   9.1302   9.1446   9.1459   9.1857   9.1941   9.2660   9.2676
     9.2876   9.3104   9.3220   9.4291   9.4521   9.5029   9.5442   9.5457
     9.5617   9.5948   9.6152   9.7254   9.7681   9.7811   9.8223   9.8912
     9.8941   9.9248   9.9400   9.9533   9.9535   9.9832  10.0199  10.0372
    10.0451  10.0474  10.0621  10.0641  10.1125  10.1266  10.1596  10.1820
    10.2056  10.2354  10.2784  10.3103  10.3279  10.3781  10.3843  10.3874
    10.4527  10.4831  10.5845  10.6509  10.6540  10.7001  10.7759  10.7874
    10.8556  10.9059  10.9087  10.9231  10.9648  11.0786  11.1222  11.1575
    11.2105  11.2259  11.2540  11.2592  11.3376  11.3390  11.3455  11.3784
    11.5392  11.5542  11.5844  11.6855  11.6956  11.7252  11.7777  11.8604
    11.8822  11.9245  11.9567  11.9770  11.9781  12.0117  12.0141  12.0718
    12.0750  12.0834  12.0906  12.0976  12.1074  12.1493  12.1675  12.1782
    12.2049  12.2128  12.2628  12.2647  12.2986  12.3105  12.3146  12.3442
    12.4096  12.4126  12.4201  12.4245  12.4515  12.4670  12.4795  12.5015
    12.5215  12.5240  12.5718  12.5745  12.5855  12.6664  12.6796  12.6963
    12.7434  12.7887  12.7976  12.8887  12.9066  12.9231  12.9492  12.9672
    12.9749  13.0095  13.0419  13.0597  13.0867  13.1100  13.1110  13.1633
    13.1950  13.2011  13.2348  13.2377  13.2688  13.2732  13.2829  13.3016
    13.3316  13.3958  13.4096  13.4384  13.4447  13.5010  13.5458  13.6343
    13.6475  13.6545  13.6899  13.7811  13.8120  13.8453  13.8828  13.9981
    14.0055  14.1420  14.1497  14.1815  14.2170  14.3281  14.3804  14.4089
    14.4192  14.4560  14.4869  14.5032  14.5803  14.6742  14.7040  14.7208
    14.7510  14.7935  14.7951  14.8022  14.9679  15.0107  15.0280  15.0342
    15.0490  15.0540  15.1589  15.1879  15.2434  15.2545  15.2746  15.3170
    15.3300  15.3688  15.3755  15.3817  15.3888  15.4260  15.4709  15.4873
    15.5032  15.5446  15.5713  15.6000  15.6235  15.6483  15.6771  15.7126
    15.7126  15.7443  15.7765  15.8368  15.8462  15.8467  15.8616  15.9057
    15.9674  15.9700  15.9939  16.0004

          k = 0.0000 0.0000 0.0516 ( 64716 PWs)   bands (ev):

   -20.3333 -20.2820 -20.2056 -20.1030 -19.9708 -19.8094 -19.6209 -19.4059
   -19.1637 -18.8945 -18.5980 -18.2690 -17.9189 -17.5463 -17.1543 -17.1019
   -17.0521 -16.9806 -16.8821 -16.7785 -16.7200 -16.6094 -16.4288 -16.3217
   -16.2128 -16.0198 -15.8542 -15.7656 -15.4969 -15.4342 -15.2153 -15.0666
   -14.9581 -14.8648 -13.7789 -13.7289 -13.4880 -13.4139 -13.0742 -13.0246
   -12.6278 -12.5955 -12.2227 -12.1722 -12.1441 -12.1359 -12.0863 -12.0231
   -11.9518 -11.9190 -11.8746 -11.8179 -11.8105 -11.6383 -11.1605 -10.6668
   -10.4041 -10.3715 -10.3241 -10.1687 -10.1129 -10.0810  -9.9397  -9.6959
    -9.6948  -9.5750  -9.4132  -9.2545  -9.1087  -9.0427  -8.8546  -8.7389
    -8.5220  -8.5159  -8.3685  -8.3102  -8.3060  -8.2211  -8.1970  -8.1002
    -8.0374  -7.9450  -7.8724  -7.8645  -7.7563  -7.6790  -7.5531  -7.5365
    -7.4294  -7.3867  -7.3015  -7.2864  -7.2147  -7.0062  -6.9523  -6.8620
    -6.6968  -6.6383  -6.4150  -6.3590  -6.3567  -6.0949  -6.0087  -5.9904
    -5.8508  -5.6943  -5.6088  -5.6017  -5.4839  -5.3864  -5.3212  -5.2559
    -5.1940  -5.1863  -5.0767  -4.9541  -4.8275  -4.7723  -4.7336  -4.7200
    -4.6641  -4.5794  -4.4643  -4.3491  -4.3113  -4.1444  -3.9427  -3.9141
    -3.7186  -3.5157  -3.4681  -3.2379  -3.1313  -2.9963  -2.8451  -2.7911
    -2.6803  -2.6688   0.3188   0.3577   0.4497   0.5413   0.7242   0.8101
     1.1029   1.1071   1.3872   1.5641   1.6422   1.8539   2.0235   2.0757
     2.1517   2.2417   2.3000   2.3031   2.3407   2.3591   2.4202   2.4487
     2.5346   2.6034   2.6242   2.7552   2.8855   3.1000   3.1971   3.2921
     3.5652   3.6974   3.7539   3.8091   3.9213   3.9586   4.0435   4.1072
     4.1291   4.2155   4.3672   4.3702   4.4428   4.5046   4.5623   4.7763
     4.8408   4.8619   5.0119   5.0832   5.2379   5.2695   5.2742   5.2930
     5.3151   5.3959   5.4961   5.5548   5.6476   5.7310   5.7599   5.8720
     5.9160   6.0074   6.1083   6.1167   6.3107   6.3468   6.3881   6.4775
     6.5186   6.5876   6.5952   6.6168   6.7688   6.8198   6.8479   6.8863
     6.9375   6.9971   7.0504   7.0505   7.0913   7.1442   7.1823   7.2017
     7.2056   7.2114   7.2526   7.2548   7.2666   7.2883   7.3291   7.3733
     7.3777   7.3977   7.4243   7.4258   7.4533   7.5152   7.5466   7.5527
     7.5700   7.5917   7.6735   7.7144   7.7696   7.7954   7.8084   7.8512
     7.8959   7.9068   7.9361   8.0199   8.0979   8.1217   8.1640   8.2027
     8.2892   8.3161   8.3784   8.3829   8.3892   8.4531   8.4933   8.5002
     8.5302   8.5433   8.5466   8.5749   8.5809   8.6269   8.6307   8.6650
     8.7294   8.7512   8.7719   8.7872   8.8011   8.8747   8.8904   8.9113
     9.0043   9.0092   9.0362   9.0665   9.0829   9.1174   9.1273   9.1619
     9.2208   9.2932   9.3161   9.3444   9.3501   9.3750   9.4010   9.4240
     9.4340   9.4713   9.4743   9.6112   9.6707   9.6920   9.7280   9.7301
     9.7610   9.7904   9.8741   9.9120   9.9201   9.9579   9.9954   9.9970
    10.0203  10.0304  10.0668  10.0811  10.0861  10.0940  10.1090  10.1407
    10.1568  10.1988  10.2205  10.2418  10.2695  10.3079  10.3520  10.3901
    10.3968  10.4442  10.4889  10.5355  10.5394  10.6045  10.6511  10.6651
    10.8018  10.8041  10.9038  10.9067  10.9535  10.9612  11.0083  11.0913
    11.1633  11.1897  11.2184  11.2589  11.2652  11.3267  11.3705  11.3992
    11.3997  11.4561  11.4929  11.5881  11.7143  11.7474  11.7912  11.8438
    11.8490  11.8993  11.9063  11.9237  11.9978  12.0172  12.0235  12.0432
    12.0494  12.0605  12.0674  12.1345  12.1474  12.1897  12.1915  12.1959
    12.2246  12.2362  12.2532  12.2733  12.2858  12.3002  12.3171  12.3577
    12.3745  12.3898  12.4298  12.4368  12.4508  12.4864  12.4906  12.5216
    12.5407  12.5541  12.5545  12.6024  12.6396  12.6936  12.7008  12.7623
    12.7885  12.8073  12.8454  12.8580  12.8978  12.9233  12.9321  12.9516
    12.9963  13.0116  13.0189  13.0908  13.0941  13.1527  13.1622  13.1728
    13.2110  13.2949  13.3095  13.3277  13.3682  13.4200  13.4411  13.4463
    13.4951  13.5054  13.5258  13.5445  13.5471  13.5678  13.5816  13.5831
    13.6236  13.6469  13.6553  13.7624  13.7748  13.8359  13.8555  13.9210
    13.9932  14.0900  14.1383  14.1963  14.2667  14.2845  14.2915  14.3735
    14.4059  14.4319  14.5398  14.5699  14.5951  14.6117  14.7100  14.7226
    14.7735  14.8268  14.8460  14.8607  15.0108  15.0366  15.0791  15.0900
    15.1332  15.1747  15.1831  15.1984  15.2405  15.2422  15.2574  15.3224
    15.3757  15.3764  15.4384  15.4928  15.5012  15.5071  15.5076  15.5575
    15.5840  15.6061  15.6331  15.6650  15.7568  15.7599  15.7633  15.7777
    15.8151  15.8156  15.8166  15.8827  15.9328  15.9395  15.9674  15.9884
    16.0280  16.0324  16.0539  16.0568

          k = 0.0000 0.0000 0.0563 ( 64702 PWs)   bands (ev):

   -20.2789 -20.2277 -20.1514 -20.0488 -19.9167 -19.7554 -19.5672 -19.3523
   -19.1104 -18.8414 -18.5453 -18.2169 -17.8675 -17.4963 -17.2740 -17.2252
   -17.1513 -17.1126 -17.0450 -16.9320 -16.7757 -16.6987 -16.5861 -16.4093
   -16.2486 -16.1759 -15.9226 -15.8280 -15.6460 -15.4354 -15.3359 -15.1312
   -15.0289 -14.9433 -13.8211 -13.8108 -13.5319 -13.4740 -13.1505 -13.0374
   -12.7212 -12.5743 -12.2627 -12.1420 -11.9217 -11.8871 -11.8417 -11.8008
   -11.8005 -11.7748 -11.7103 -11.6414 -11.6174 -11.6025 -11.2888 -10.7919
   -10.3095 -10.2331 -10.1895 -10.1024 -10.0145  -9.9586  -9.7550  -9.6890
    -9.6273  -9.5048  -9.2483  -9.1930  -9.1436  -8.9577  -8.7556  -8.6468
    -8.6098  -8.3953  -8.3036  -8.2695  -8.2454  -8.1564  -8.0908  -8.0762
    -8.0357  -7.8808  -7.8797  -7.7742  -7.6924  -7.6466  -7.4801  -7.4749
    -7.4731  -7.3788  -7.2481  -7.2235  -7.1629  -7.0157  -6.9441  -6.8823
    -6.6356  -6.6323  -6.5330  -6.3671  -6.2991  -6.1376  -6.1286  -5.9323
    -5.9102  -5.8176  -5.7084  -5.6014  -5.5461  -5.5302  -5.4606  -5.4136
    -5.3109  -5.1950  -5.1419  -5.0596  -4.9246  -4.8940  -4.8385  -4.8278
    -4.7535  -4.7264  -4.6371  -4.4946  -4.3185  -4.3014  -4.1162  -3.9115
    -3.8668  -3.6578  -3.4870  -3.4068  -3.1609  -3.1463  -2.9429  -2.8950
    -2.7960  -2.7714   0.3770   0.4427   0.4775   0.6688   0.7020   0.9682
     1.0478   1.2792   1.4842   1.5780   1.8453   1.9797   2.0718   2.2499
     2.3731   2.3868   2.4826   2.4931   2.5220   2.5231   2.5513   2.5927
     2.6085   2.6133   2.6778   2.8293   2.9600   3.0866   3.1742   3.3666
     3.6392   3.6621   3.7703   3.8834   3.9773   4.0281   4.1170   4.1809
     4.1963   4.2893   4.3114   4.4420   4.4736   4.5783   4.6359   4.8494
     4.8778   4.9140   4.9541   5.1569   5.3111   5.3384   5.3393   5.3663
     5.3865   5.4583   5.4688   5.5691   5.7209   5.7919   5.8144   5.9450
     5.9847   6.0511   6.1034   6.1492   6.2055   6.3134   6.3892   6.5008
     6.5525   6.5793   6.6539   6.6637   6.7066   6.7149   6.7995   6.8235
     6.8314   6.9085   6.9379   6.9728   6.9859   6.9955   7.0727   7.1321
     7.1456   7.1563   7.2026   7.2254   7.2320   7.2675   7.2914   7.2995
     7.3247   7.3462   7.3879   7.4044   7.4432   7.4784   7.4871   7.5046
     7.5528   7.5637   7.6130   7.6187   7.6962   7.7399   7.7753   7.7910
     7.7968   7.8650   7.8715   7.9184   8.0288   8.0387   8.0507   8.0767
     8.2120   8.2165   8.2182   8.2605   8.2751   8.3254   8.3377   8.3851
     8.3969   8.5064   8.5207   8.5240   8.5807   8.5994   8.6016   8.6455
     8.6513   8.6711   8.6879   8.6887   8.7387   8.7657   8.7857   8.8127
     8.8329   8.9310   8.9335   8.9514   9.0212   9.0528   9.1145   9.1203
     9.1225   9.1315   9.1867   9.2364   9.2635   9.2799   9.3050   9.3202
     9.4205   9.4494   9.4672   9.4897   9.4940   9.5274   9.5598   9.5842
     9.5907   9.6388   9.6772   9.7699   9.8644   9.8714   9.8859   9.9653
     9.9902  10.0174  10.0261  10.0617  10.0808  10.1161  10.1204  10.1268
    10.1271  10.1532  10.1583  10.2043  10.2877  10.2923  10.3033  10.3557
    10.3813  10.4327  10.4651  10.4654  10.4957  10.5283  10.6013  10.6113
    10.6726  10.6973  10.8013  10.8157  10.9491  10.9511  10.9573  11.0052
    11.0539  11.1092  11.1210  11.2353  11.2855  11.3093  11.3207  11.3986
    11.4307  11.4573  11.4662  11.5070  11.6160  11.7323  11.7472  11.8111
    11.8119  11.8633  11.8674  11.9080  11.9173  11.9888  12.0140  12.0418
    12.0547  12.0635  12.0915  12.1180  12.1676  12.1825  12.1918  12.2140
    12.2227  12.2384  12.2951  12.2970  12.3133  12.3325  12.3388  12.3599
    12.3806  12.3974  12.4403  12.4703  12.4833  12.4960  12.5138  12.5181
    12.5790  12.6001  12.6204  12.6337  12.6411  12.6554  12.7119  12.7514
    12.7578  12.7589  12.8330  12.8504  12.8572  12.8996  12.9090  12.9308
    13.0044  13.0892  13.0978  13.1159  13.1508  13.1596  13.1788  13.2424
    13.2458  13.2574  13.3555  13.3752  13.3831  13.4581  13.4585  13.4588
    13.4727  13.4984  13.5241  13.5485  13.6094  13.6227  13.6757  13.7075
    13.7197  13.7551  13.7936  13.7966  13.8588  13.8972  13.9300  13.9783
    14.0404  14.0605  14.0998  14.2297  14.2330  14.2409  14.2541  14.2862
    14.3529  14.3834  14.4956  14.5346  14.6288  14.6504  14.6765  14.7564
    14.8193  14.8784  14.9236  14.9647  14.9888  15.0368  15.0534  15.0857
    15.1473  15.1578  15.1913  15.2096  15.3324  15.3856  15.3879  15.3928
    15.4026  15.4328  15.4429  15.5101  15.5231  15.5357  15.5830  15.6107
    15.6960  15.7061  15.7124  15.7513  15.7535  15.7656  15.7766  15.7815
    15.8195  15.8518  15.8529  15.8613  15.9052  15.9334  15.9942  16.0240
    16.0273  16.0594  16.0729  16.0738

          k = 0.0000 0.0000 0.0610 ( 64700 PWs)   bands (ev):

   -20.2199 -20.1687 -20.0924 -19.9900 -19.8580 -19.6969 -19.5088 -19.2941
   -19.0525 -18.7839 -18.4881 -18.1603 -17.8120 -17.4474 -17.4396 -17.3930
   -17.3172 -17.2253 -17.0961 -17.0535 -16.9340 -16.7750 -16.6257 -16.5646
   -16.3322 -16.2173 -16.0693 -15.8487 -15.7386 -15.5397 -15.3520 -15.2531
   -15.0545 -15.0345 -13.9013 -13.8347 -13.6354 -13.4650 -13.2583 -13.0190
   -12.8227 -12.5490 -12.3561 -12.0883 -11.8879 -11.6943 -11.6682 -11.6354
   -11.5892 -11.5359 -11.4777 -11.4562 -11.4339 -11.4146 -11.3647 -10.9180
   -10.4096 -10.0554 -10.0403  -9.9448  -9.9314  -9.8061  -9.7232  -9.5833
    -9.5458  -9.3260  -9.2575  -9.1329  -9.0660  -8.8095  -8.7089  -8.6886
    -8.5180  -8.2871  -8.2333  -8.2006  -8.1840  -8.1751  -8.0863  -7.9724
    -7.9658  -7.8391  -7.8111  -7.6906  -7.6725  -7.6231  -7.5090  -7.4042
    -7.4039  -7.3303  -7.1912  -7.1553  -7.1278  -7.1159  -6.8767  -6.8619
    -6.6945  -6.5992  -6.5693  -6.3940  -6.2720  -6.2341  -6.1761  -5.9815
    -5.9652  -5.8694  -5.8072  -5.7585  -5.6600  -5.6455  -5.5484  -5.4859
    -5.4419  -5.3169  -5.1684  -5.0865  -5.0682  -5.0256  -5.0128  -4.9274
    -4.9260  -4.8153  -4.6731  -4.6683  -4.4917  -4.3025  -4.2471  -4.0714
    -3.8503  -3.8286  -3.5751  -3.4775  -3.3225  -3.1663  -3.0899  -2.9564
    -2.9169  -2.8660   0.4394   0.4668   0.5732   0.6610   0.8185   0.9834
     1.1315   1.3979   1.4597   1.7682   1.8846   2.0504   2.2891   2.4098
     2.4524   2.4823   2.5723   2.6040   2.6266   2.6887   2.7331   2.7587
     2.8049   2.8507   2.8739   2.9099   2.9725   3.0409   3.2548   3.4476
     3.5484   3.7197   3.8493   3.9643   4.0565   4.0677   4.1969   4.2098
     4.2609   4.3037   4.3693   4.5232   4.5509   4.6582   4.7157   4.7646
     4.9288   4.9933   5.0235   5.2367   5.3412   5.3905   5.4075   5.4174
     5.4460   5.4623   5.5474   5.6480   5.8004   5.8349   5.8446   6.0219
     6.0282   6.0466   6.1129   6.1249   6.1294   6.3144   6.4086   6.4377
     6.4999   6.5507   6.5737   6.6043   6.6333   6.7224   6.7307   6.7416
     6.7478   6.8642   6.8933   6.9016   6.9031   6.9390   6.9828   7.0293
     7.0714   7.0826   7.0926   7.1444   7.1831   7.2311   7.2507   7.2945
     7.3012   7.3387   7.3689   7.3730   7.4209   7.4272   7.4568   7.4996
     7.5044   7.5341   7.5412   7.5797   7.6199   7.6666   7.6813   7.7182
     7.8156   7.8343   7.8539   7.8667   7.8767   7.9045   7.9345   8.0216
     8.0610   8.0823   8.0833   8.1071   8.1489   8.1728   8.1778   8.2843
     8.3059   8.3324   8.3932   8.4031   8.4249   8.4787   8.5381   8.5692
     8.6004   8.6167   8.6639   8.6806   8.7075   8.7608   8.7711   8.8099
     8.8381   8.8757   8.9008   8.9103   8.9340   8.9411   8.9506   9.0078
     9.0679   9.0803   9.0809   9.1396   9.1854   9.2060   9.2366   9.2609
     9.2644   9.3047   9.3903   9.3962   9.4254   9.4362   9.4500   9.4777
     9.5044   9.5280   9.5917   9.6518   9.6742   9.6931   9.7731   9.8843
     9.8865   9.9124   9.9189   9.9752  10.0044  10.0855  10.1036  10.1493
    10.1545  10.2011  10.2051  10.2204  10.2754  10.2831  10.3268  10.3608
    10.3875  10.4108  10.4213  10.4275  10.4348  10.5024  10.5073  10.5490
    10.5938  10.6774  10.7683  10.7710  10.8107  10.8371  10.8609  10.9739
    11.0106  11.0628  11.0969  11.1093  11.2871  11.3328  11.3579  11.3591
    11.4077  11.4322  11.4950  11.5361  11.5924  11.6065  11.6312  11.7246
    11.7350  11.7359  11.8418  11.9172  11.9307  11.9437  11.9949  12.0767
    12.0789  12.0950  12.1339  12.1533  12.1913  12.1990  12.2054  12.2059
    12.2251  12.2294  12.3000  12.3220  12.3331  12.3391  12.3623  12.3895
    12.4078  12.4093  12.4263  12.4324  12.4820  12.4890  12.5235  12.5412
    12.5518  12.5947  12.6241  12.6277  12.6652  12.6819  12.6866  12.7078
    12.7654  12.7872  12.8153  12.8548  12.8855  12.9226  12.9403  12.9782
    12.9936  13.0515  13.1085  13.1485  13.1570  13.1963  13.2252  13.2355
    13.2583  13.2591  13.2685  13.3170  13.3372  13.3651  13.3756  13.4741
    13.4781  13.5468  13.5705  13.5969  13.6254  13.6512  13.7817  13.7854
    13.7870  13.8104  13.9716  13.9889  14.0002  14.0343  14.0405  14.0470
    14.0559  14.0586  14.1078  14.1612  14.1809  14.2330  14.2432  14.3315
    14.3604  14.3871  14.4195  14.5617  14.6264  14.6811  14.6993  14.7578
    14.8644  14.8914  14.9242  14.9356  14.9426  14.9694  14.9797  14.9978
    15.1531  15.2054  15.2196  15.3100  15.4040  15.4174  15.4640  15.4752
    15.4917  15.5466  15.5498  15.5550  15.5705  15.5717  15.5947  15.5995
    15.6130  15.6436  15.6708  15.7023  15.7121  15.7344  15.7484  15.7655
    15.7827  15.8624  15.8858  15.9259  15.9292  15.9823  15.9943  16.0392
    16.0410  16.0478  16.0730  16.0764

          k = 0.0000 0.0000 0.0657 ( 64672 PWs)   bands (ev):

   -20.1562 -20.1051 -20.0288 -19.9265 -19.7946 -19.6336 -19.4457 -19.2313
   -18.9900 -18.7218 -18.4266 -18.0996 -17.7533 -17.6076 -17.5571 -17.4881
   -17.3865 -17.3836 -17.2541 -17.1151 -16.9809 -16.9288 -16.7194 -16.5917
   -16.4740 -16.2642 -16.1274 -15.9780 -15.7178 -15.6790 -15.3834 -15.3345
   -15.1337 -15.0846 -13.9640 -13.8732 -13.7010 -13.5033 -13.3070 -13.0712
   -12.8474 -12.6086 -12.3619 -12.1280 -11.8941 -11.6513 -11.4743 -11.4127
   -11.3820 -11.3382 -11.3115 -11.2824 -11.2329 -11.1922 -11.1844 -11.0312
[...]
     1.4258   1.6073   1.8782   2.0575   2.3790   2.5347   2.9084   3.0045
     3.4385   3.4557   3.4563   3.5522   3.6215   3.6969   3.7763   3.8746
     3.9209   3.9914   4.0596   4.2490   4.2603   4.3839   4.4415   4.4832
     4.5087   4.5663   4.5879   4.6555   4.7418   4.7428   4.8252   4.8571
     4.9033   4.9882   4.9954   5.0059   5.0282   5.1530   5.1680   5.2098
     5.2281   5.2364   5.2779   5.2891   5.3155   5.3555   5.3826   5.4373
     5.4602   5.5470   5.5792   5.6626   5.6910   5.7021   5.8158   5.8187
     5.9539   5.9604   6.0095   6.0412   6.1128   6.1639   6.2251   6.2345
     6.2493   6.2582   6.3589   6.3659   6.3842   6.4423   6.4428   6.4497
     6.4545   6.4641   6.4663   6.5184   6.5292   6.5368   6.5412   6.5522
     6.5731   6.6279   6.6498   6.6538   6.6700   6.7250   6.7830   6.7997
     6.8119   6.8806   6.8991   6.9354   6.9356   6.9567   6.9699   6.9813
     6.9827   7.0307   7.0377   7.0612   7.0881   7.1028   7.1032   7.1568
     7.1854   7.2554   7.2792   7.3154   7.3337   7.3606   7.3931   7.4037
     7.4313   7.4488   7.4822   7.4940   7.5138   7.5655   7.5962   7.6307
     7.6334   7.7242   7.7398   7.7487   7.7549   7.8344   7.8360   7.8555
     7.9022   7.9572   7.9731   8.0109   8.0123   8.0472   8.0870   8.1630
     8.1787   8.1856   8.2093   8.2718   8.3399   8.3835   8.4293   8.4354
     8.4379   8.4834   8.5406   8.5592   8.5740   8.6345   8.6487   8.7543
     8.7877   8.8297   8.8483   8.9292   8.9449   9.0675   9.0801   9.1271
     9.1347   9.1832   9.2132   9.3266   9.3268   9.3605   9.3671   9.4853
     9.5114   9.5718   9.6792   9.6902   9.7592   9.7879   9.8853   9.9161
     9.9396  10.0532  10.0605  10.0757  10.1946  10.2135  10.2837  10.3302
    10.3755  10.4156  10.4160  10.4757  10.5123  10.5409  10.5980  10.6461
    10.6648  10.6707  10.7952  10.8143  10.8617  10.9201  10.9988  11.0202
    11.0338  11.0631  11.0725  11.1092  11.1487  11.2123  11.2176  11.2222
    11.2424  11.2580  11.2708  11.3005  11.3630  11.3789  11.4104  11.4193
    11.4400  11.4467  11.4977  11.5065  11.5401  11.5822  11.7087  11.7308
    11.8102  11.8865  11.9183  11.9572  11.9658  11.9951  12.0074  12.0389
    12.0584  12.1029  12.1789  12.1979  12.2053  12.2128  12.2700  12.2979
    12.3116  12.3433  12.3517  12.3599  12.3632  12.3969  12.4205  12.4502
    12.4649  12.4664  12.5073  12.5680  12.5748  12.6325  12.7221  12.7979
    12.8069  12.9155  12.9204  12.9711  13.0413  13.0475  13.0545  13.0841
    13.1018  13.1166  13.1604  13.1824  13.1883  13.1916  13.2237  13.2411
    13.2637  13.2717  13.2893  13.3483  13.3648  13.3787  13.4366  13.4568
    13.4885  13.5251  13.6452  13.6509  13.7596  13.7879  13.7963  13.8358
    13.8444  13.8882  13.8919  13.9462  13.9822  13.9949  14.0523  14.0866
    14.1634  14.2232  14.2384  14.2576  14.2768  14.2947  14.3920  14.4278
    14.4606  14.5584  14.5905  14.5943  14.6595  14.7161  14.7681  14.8182
    14.8410  14.8854  14.9183  14.9240  14.9394  14.9584  14.9901  15.0431
    15.0678  15.0963  15.1695  15.1810  15.1874  15.2220  15.2250  15.2519
    15.2612  15.3057  15.3746  15.4147  15.4230  15.4678  15.5087  15.5219
    15.5896  15.5972  15.6057  15.6733  15.6916  15.7154  15.7222  15.7304
    15.8090  15.8120  15.8599  15.8673  15.9086  15.9196  16.0026  16.0722
    16.0854  16.1280  16.1526  16.1528

          k = 0.0000 0.0000 0.1080 ( 64736 PWs)   bands (ev):

   -19.3746 -19.3240 -19.2487 -19.1479 -19.0182 -18.9090 -18.8606 -18.8588
   -18.7838 -18.6926 -18.6683 -18.5607 -18.4605 -18.4003 -18.2242 -18.2132
   -17.9996 -17.9613 -17.7594 -17.6724 -17.4927 -17.3542 -17.1989 -17.0173
   -16.8746 -16.6632 -16.5308 -16.2961 -16.1716 -15.9278 -15.8125 -15.5928
   -15.4992 -15.3921 -14.2543 -14.1669 -13.9687 -13.7777 -13.5576 -13.3169
   -13.0826 -12.8208 -12.5729 -12.3010 -12.0439 -11.7647 -11.5006 -11.2204
   -10.9554 -10.6811 -10.4204 -10.1550  -9.9100  -9.6735  -9.4430  -9.3127
    -9.1235  -9.0755  -9.0506  -9.0420  -9.0356  -8.9852  -8.6180  -8.3304
    -8.1644  -8.1426  -8.1296  -8.0776  -8.0706  -8.0475  -8.0123  -7.9998
    -7.9925  -7.9375  -7.9146  -7.8422  -7.7587  -7.6968  -7.6734  -7.6078
    -7.5437  -7.4948  -7.4533  -7.4385  -7.4224  -7.4160  -7.4095  -7.4034
    -7.3894  -7.3878  -7.3033  -7.2755  -7.2343  -7.1773  -7.0904  -7.0897
    -7.0608  -7.0537  -7.0309  -6.9727  -6.8220  -6.8168  -6.7452  -6.6933
    -6.6398  -6.6370  -6.5510  -6.5410  -6.5234  -6.4392  -6.4240  -6.3917
    -6.2965  -6.2884  -6.1864  -6.1100  -6.1072  -5.9916  -5.9204  -5.8975
    -5.6610  -5.6295  -5.3995  -5.3169  -5.1160  -4.9841  -4.8145  -4.6457
    -4.4994  -4.3109  -4.1882  -3.9960  -3.8963  -3.7258  -3.6491  -3.5325
    -3.4804  -3.4398   0.6418   0.7015   0.7547   0.9392   0.9934   1.2915
     1.3431   1.7196   1.7721   2.1906   2.2547   2.6845   2.7705   3.1693
     3.3063   3.5749   3.6354   3.6853   3.7666   3.8323   3.8397   3.9211
     4.0608   4.0681   4.2025   4.2155   4.3104   4.3421   4.4109   4.4219
     4.4569   4.4816   4.5661   4.6150   4.7071   4.7854   4.8209   4.8506
     4.8844   4.9965   5.0573   5.0664   5.1324   5.2167   5.2593   5.2598
     5.3219   5.3371   5.3951   5.4154   5.4172   5.5077   5.5092   5.5266
     5.5509   5.5543   5.6071   5.6290   5.6933   5.7259   5.7766   5.8045
     5.8862   5.9156   5.9839   6.0622   6.0830   6.0963   6.0970   6.1527
     6.1716   6.1900   6.1932   6.3410   6.3529   6.3644   6.3856   6.4337
     6.4385   6.4461   6.4800   6.5164   6.5194   6.5255   6.5508   6.5797
     6.5861   6.6001   6.6104   6.6557   6.6633   6.6862   6.6864   6.7271
     6.7670   6.7778   6.8000   6.8130   6.8463   6.8822   6.9335   6.9602
     6.9897   7.0061   7.0966   7.1144   7.1266   7.1387   7.1661   7.1968
     7.1988   7.2237   7.2271   7.2366   7.2430   7.2758   7.2996   7.3536
     7.4054   7.4077   7.4203   7.4634   7.4915   7.5235   7.5813   7.5992
     7.6351   7.6958   7.7241   7.7331   7.7686   7.7857   7.7989   7.8298
     7.8656   7.8904   7.8951   7.9071   7.9890   8.0335   8.0886   8.1322
     8.1860   8.2144   8.2655   8.2789   8.3100   8.3206   8.3713   8.4060
     8.4889   8.5064   8.5518   8.5735   8.5892   8.6074   8.6569   8.6884
     8.7158   8.7459   8.8945   8.9386   8.9436   9.0080   9.0293   9.1197
     9.1324   9.1652   9.1991   9.2086   9.2398   9.2765   9.3610   9.4504
     9.4658   9.5488   9.6421   9.6958   9.8208   9.8449   9.8641   9.8985
     9.9034   9.9996  10.0461  10.0614  10.0774  10.2458  10.3884  10.3973
    10.4241  10.4518  10.4738  10.5157  10.5216  10.5360  10.5724  10.6579
    10.6774  10.6940  10.7383  10.7615  10.8657  10.8940  10.9879  10.9996
    11.0419  11.0556  11.1447  11.1678  11.1907  11.1933  11.2066  11.2720
    11.2892  11.3030  11.3040  11.3616  11.3701  11.4758  11.4920  11.4976
    11.5110  11.5295  11.5410  11.5679  11.5922  11.6010  11.6967  11.6978
    11.7356  11.7673  11.8353  11.8425  11.8879  11.9326  11.9723  11.9945
    12.0186  12.0537  12.0722  12.1103  12.1168  12.1215  12.1464  12.1626
    12.1813  12.3105  12.3630  12.3796  12.4347  12.4372  12.4440  12.4716
    12.4876  12.5537  12.5646  12.5711  12.5957  12.6149  12.6399  12.7869
    12.8609  12.9393  12.9743  12.9788  13.0515  13.0603  13.0723  13.0854
    13.1120  13.1165  13.1293  13.1560  13.1566  13.1629  13.1960  13.2059
    13.2475  13.2510  13.2687  13.3111  13.3868  13.4593  13.4682  13.5063
    13.5374  13.6040  13.6450  13.6623  13.7219  13.7235  13.7854  13.7985
    13.8115  13.8751  13.8992  13.9213  13.9269  13.9629  13.9998  14.1050
    14.1084  14.1662  14.2434  14.2541  14.2603  14.2783  14.3684  14.3940
    14.4230  14.4988  14.6010  14.6204  14.7078  14.7265  14.7738  14.8483
    14.8768  14.8788  14.9070  14.9558  14.9705  15.0038  15.0082  15.0360
    15.0501  15.0862  15.2166  15.2254  15.2280  15.2310  15.2412  15.2543
    15.3099  15.3149  15.3766  15.3825  15.4552  15.4938  15.5169  15.5241
    15.5823  15.5854  15.6369  15.6679  15.6890  15.7057  15.7197  15.7638
    15.8221  15.8307  15.8561  15.8755  15.9111  16.0320  16.0855  16.1064
    16.1312  16.1340  16.2015  16.2113

          k = 0.0000 0.0000 0.1127 ( 64748 PWs)   bands (ev):

   -19.2649 -19.2144 -19.1394 -19.0391 -19.0319 -18.9819 -18.9098 -18.9072
   -18.8069 -18.7534 -18.6770 -18.5768 -18.5105 -18.3768 -18.3127 -18.1556
   -18.0832 -17.9116 -17.8237 -17.6433 -17.5361 -17.3497 -17.2174 -17.0293
   -16.8768 -16.6907 -16.5174 -16.3357 -16.1467 -15.9744 -15.7826 -15.6358
   -15.4803 -15.4101 -14.2509 -14.1954 -13.9432 -13.8260 -13.5176 -13.3741
   -13.0354 -12.8818 -12.5219 -12.3639 -11.9903 -11.8290 -11.4445 -11.2816
   -10.9005 -10.7371 -10.3663 -10.1997  -9.8584  -9.6847  -9.4061  -9.2255
    -9.0484  -8.9247  -8.8219  -8.7969  -8.7837  -8.7773  -8.7460  -8.5059
    -8.3621  -8.2934  -8.2644  -8.2582  -7.9515  -7.9398  -7.9102  -7.8920
    -7.8353  -7.7983  -7.7752  -7.7147  -7.6558  -7.6160  -7.6024  -7.5758
    -7.5702  -7.5609  -7.5429  -7.5415  -7.5323  -7.5268  -7.5101  -7.5059
    -7.5017  -7.4972  -7.4064  -7.3208  -7.1530  -7.1076  -7.1061  -7.1054
    -7.0493  -7.0235  -6.9627  -6.8518  -6.8454  -6.8354  -6.7790  -6.7192
    -6.6953  -6.6929  -6.5811  -6.5763  -6.5140  -6.4584  -6.4269  -6.3724
    -6.3067  -6.2998  -6.2424  -6.2108  -6.0949  -6.0743  -6.0256  -5.8227
    -5.7747  -5.5531  -5.4922  -5.2644  -5.1851  -4.9582  -4.8579  -4.6381
    -4.5254  -4.3198  -4.1993  -4.0163  -3.8981  -3.7503  -3.6494  -3.5534
    -3.4869  -3.4541   0.6496   0.6871   0.7841   0.8951   1.0507   1.2243
     1.4214   1.6409   1.8612   2.1145   2.3414   2.6216   2.8452   3.1488
     3.3404   3.6658   3.7126   3.8105   3.8184   3.9179   3.9825   4.0703
     4.0717   4.1607   4.1656   4.2239   4.2409   4.2643   4.3132   4.3596
     4.3959   4.5389   4.5690   4.6308   4.6703   4.6806   4.7660   4.8878
     5.0004   5.0325   5.0671   5.0901   5.1415   5.2807   5.2833   5.3591
     5.4058   5.4233   5.4332   5.4682   5.4918   5.5862   5.5890   5.5945
     5.6070   5.6582   5.6600   5.6894   5.6936   5.7362   5.8177   5.8452
     5.8653   5.8958   5.9390   5.9779   6.0255   6.0498   6.0630   6.0896
     6.1365   6.1699   6.1915   6.2336   6.2839   6.2908   6.3139   6.3358
     6.3420   6.4253   6.4258   6.4379   6.4930   6.5116   6.5130   6.5443
     6.5578   6.6110   6.6324   6.6364   6.6588   6.6622   6.7238   6.7273
     6.7286   6.7655   6.8101   6.8283   6.8457   6.8878   6.9153   6.9401
     7.0052   7.0181   7.0324   7.0582   7.0730   7.0916   7.1123   7.1542
     7.1991   7.2133   7.2612   7.2643   7.2660   7.3225   7.3396   7.3415
     7.3745   7.3764   7.4124   7.4125   7.4702   7.5264   7.5728   7.5768
     7.5895   7.6389   7.6431   7.6934   7.6941   7.7080   7.7540   7.7939
     7.8930   7.9133   7.9152   7.9182   8.0325   8.0753   8.0946   8.1209
     8.1361   8.2011   8.2161   8.2210   8.3137   8.3329   8.3567   8.3964
     8.4507   8.4640   8.4804   8.5955   8.6054   8.7124   8.7158   8.7343
     8.7526   8.7801   8.8184   8.8440   8.9498   8.9916   9.0135   9.0406
     9.0407   9.1139   9.1506   9.1856   9.2345   9.2499   9.4236   9.4377
     9.4606   9.5673   9.6090   9.6470   9.7337   9.7556   9.8971   9.9057
     9.9768   9.9794  10.0410  10.1133  10.2103  10.2426  10.2833  10.3258
    10.3708  10.4386  10.4711  10.5240  10.5700  10.6027  10.6360  10.6958
    10.7068  10.7238  10.8021  10.8235  10.8545  10.8648  10.8933  10.9387
    11.0142  11.0673  11.1032  11.1167  11.1213  11.1881  11.2001  11.2999
    11.3299  11.3842  11.4159  11.4169  11.4660  11.5089  11.5188  11.5446
    11.5846  11.6003  11.6229  11.6522  11.6651  11.6921  11.7033  11.7036
    11.7064  11.7494  11.7733  11.7941  11.8309  11.8466  11.8845  11.9751
    11.9821  12.0030  12.0066  12.0268  12.0434  12.0444  12.0484  12.1512
    12.1684  12.2054  12.2258  12.3204  12.3445  12.4667  12.4679  12.5207
    12.5991  12.6279  12.6397  12.6639  12.6900  12.6923  12.7038  12.7381
    12.7455  12.8043  12.8970  12.9202  12.9373  12.9719  12.9964  13.0216
    13.0286  13.0357  13.1508  13.1525  13.1963  13.2510  13.2619  13.3084
    13.3352  13.3381  13.3496  13.4474  13.4593  13.4800  13.4906  13.5178
    13.5200  13.5613  13.5667  13.6418  13.6493  13.6682  13.7446  13.7614
    13.8504  13.8730  13.8825  13.9329  13.9420  13.9598  13.9848  14.0416
    14.1010  14.1795  14.1905  14.2505  14.2516  14.2586  14.3173  14.3404
    14.4478  14.5394  14.5506  14.5890  14.7504  14.7824  14.8643  14.8652
    14.8658  14.8661  14.9130  14.9170  14.9606  15.0099  15.0806  15.0826
    15.0827  15.1175  15.1936  15.2098  15.2383  15.2413  15.2665  15.2670
    15.2823  15.3097  15.3523  15.4183  15.4304  15.4551  15.5021  15.5410
    15.6000  15.6114  15.6132  15.6207  15.6839  15.7411  15.7702  15.8233
    15.8457  15.9155  15.9323  15.9399  15.9589  15.9652  16.0491  16.0640
    16.0761  16.1385  16.1698  16.2034

          k = 0.0000 0.0000-0.1174 ( 64672 PWs)   bands (ev):

   -19.1507 -19.1507 -19.1003 -19.1003 -19.0256 -19.0256 -18.9254 -18.9254
   -18.7965 -18.7965 -18.6398 -18.6398 -18.4538 -18.4538 -18.2416 -18.2416
   -18.0029 -18.0029 -17.7378 -17.7378 -17.4467 -17.4467 -17.1260 -17.1260
   -16.7861 -16.7861 -16.4287 -16.4287 -16.0622 -16.0622 -15.7092 -15.7092
   -15.4414 -15.4414 -14.2288 -14.2288 -13.8890 -13.8889 -13.4487 -13.4487
   -12.9608 -12.9608 -12.4449 -12.4448 -11.9114 -11.9114 -11.3641 -11.3641
   -10.8195 -10.8194 -10.2827 -10.2827  -9.7688  -9.7688  -9.3042  -9.3042
    -8.9312  -8.9312  -8.7014  -8.7014  -8.5865  -8.5865  -8.5383  -8.5382
    -8.5205  -8.5205  -8.5162  -8.5162  -7.7759  -7.7759  -7.7543  -7.7543
    -7.7401  -7.7401  -7.7146  -7.7145  -7.6823  -7.6823  -7.6400  -7.6400
    -7.6234  -7.6233  -7.5984  -7.5984  -7.5677  -7.5676  -7.5410  -7.5410
    -7.5302  -7.5302  -7.3972  -7.3972  -7.1239  -7.1237  -7.0965  -7.0965
    -6.9731  -6.9731  -6.9165  -6.9165  -6.8302  -6.8301  -6.7880  -6.7880
    -6.7133  -6.7133  -6.5637  -6.5637  -6.5161  -6.5161  -6.3831  -6.3831
    -6.3146  -6.3145  -6.1949  -6.1949  -6.1723  -6.1722  -5.9341  -5.9340
    -5.6699  -5.6699  -5.3824  -5.3824  -5.0749  -5.0749  -4.7503  -4.7503
    -4.4245  -4.4245  -4.1091  -4.1090  -3.8246  -3.8246  -3.6009  -3.6008
    -3.4706  -3.4706   0.6653   0.6653   0.8358   0.8359   1.1349   1.1349
     1.5296   1.5296   1.9870   1.9871   2.4812   2.4813   2.9973   2.9974
     3.5039   3.5039   3.8327   3.8327   3.9935   3.9935   4.0310   4.0310
     4.0773   4.0773   4.1529   4.1529   4.2326   4.2326   4.3770   4.3770
     4.4510   4.4510   4.5164   4.5164   4.7252   4.7252   4.8663   4.8663
     4.9244   4.9244   5.1861   5.1861   5.2151   5.2151   5.2946   5.2946
     5.4418   5.4418   5.4882   5.4882   5.5734   5.5734   5.6138   5.6138
     5.6416   5.6416   5.7346   5.7346   5.7471   5.7471   5.7779   5.7779
     5.8781   5.8781   6.0047   6.0047   6.0285   6.0285   6.1046   6.1047
     6.1291   6.1291   6.1744   6.1744   6.2063   6.2063   6.2735   6.2735
     6.3953   6.3953   6.4200   6.4200   6.4592   6.4592   6.4795   6.4795
     6.5049   6.5049   6.6335   6.6335   6.6915   6.6915   6.7892   6.7892
     6.8163   6.8163   6.8723   6.8723   6.8749   6.8749   6.9075   6.9075
     6.9185   6.9185   6.9713   6.9713   7.0957   7.0957   7.1265   7.1265
     7.1967   7.1967   7.2501   7.2501   7.2888   7.2888   7.4127   7.4128
     7.4165   7.4165   7.4434   7.4435   7.4868   7.4868   7.4917   7.4917
     7.5452   7.5452   7.6499   7.6500   7.6979   7.6979   7.7644   7.7644
     7.8968   7.8968   7.9518   7.9518   8.0631   8.0631   8.1205   8.1205
     8.1809   8.1809   8.1925   8.1925   8.2951   8.2952   8.3137   8.3137
     8.5040   8.5040   8.5633   8.5633   8.5991   8.5991   8.7450   8.7451
     8.8605   8.8605   8.8878   8.8878   8.8878   8.8878   8.9684   8.9684
     9.0162   9.0162   9.1578   9.1578   9.3071   9.3071   9.3782   9.3782
     9.5769   9.5769   9.5851   9.5851   9.7563   9.7563   9.7948   9.7948
    10.1073  10.1073  10.1263  10.1263  10.1790  10.1790  10.2471  10.2471
    10.3620  10.3620  10.5398  10.5398  10.5787  10.5787  10.7132  10.7133
    10.7183  10.7183  10.8359  10.8359  10.9017  10.9017  10.9338  10.9338
    10.9612  10.9612  11.0019  11.0019  11.2084  11.2084  11.2359  11.2359
    11.4394  11.4394  11.4475  11.4476  11.4799  11.4799  11.5484  11.5484
    11.6261  11.6261  11.6404  11.6404  11.6530  11.6531  11.7028  11.7028
    11.7891  11.7891  11.8234  11.8234  11.8577  11.8577  11.8982  11.8982
    11.9049  11.9049  11.9321  11.9321  11.9889  11.9889  12.1309  12.1309
    12.2345  12.2345  12.2629  12.2629  12.3247  12.3247  12.5260  12.5260
    12.5757  12.5757  12.6601  12.6601  12.7673  12.7673  12.7785  12.7785
    12.8021  12.8021  12.8632  12.8632  12.8713  12.8713  12.9136  12.9136
    12.9986  12.9986  13.1519  13.1519  13.3219  13.3219  13.3544  13.3544
    13.3824  13.3824  13.4056  13.4056  13.4669  13.4669  13.4873  13.4873
    13.4925  13.4925  13.5967  13.5967  13.6305  13.6306  13.7888  13.7888
    13.8197  13.8197  13.9032  13.9033  13.9372  13.9372  14.0641  14.0641
    14.1076  14.1076  14.1888  14.1888  14.2553  14.2553  14.3391  14.3391
    14.4537  14.4538  14.6423  14.6423  14.7059  14.7059  14.8663  14.8663
    14.9118  14.9118  14.9359  14.9359  14.9730  14.9730  15.0933  15.0933
    15.1174  15.1174  15.1833  15.1833  15.2393  15.2393  15.2995  15.2996
    15.3084  15.3084  15.3639  15.3639  15.3725  15.3725  15.5291  15.5291
    15.6173  15.6173  15.6262  15.6262  15.7628  15.7629  15.8253  15.8253
    15.8957  15.8957  15.9039  15.9040  15.9455  15.9455  16.0949  16.0949
    16.1215  16.1216  16.1558  16.1558

     the Fermi energy is    -1.1808 ev

     Writing output data file A34.save/

     init_run     :      9.87s CPU     10.11s WALL (       1 calls)
     electrons    :   6282.97s CPU   6332.46s WALL (       1 calls)

     Called by init_run:
     wfcinit      :      0.00s CPU      0.00s WALL (       1 calls)
     potinit      :      0.61s CPU      0.69s WALL (       1 calls)
     hinit0       :      8.14s CPU      8.21s WALL (       1 calls)

     Called by electrons:
     c_bands      :   6282.96s CPU   6332.43s WALL (       1 calls)
     v_of_rho     :      0.47s CPU      0.50s WALL (       1 calls)
     newd         :      0.41s CPU      0.48s WALL (       1 calls)

     Called by c_bands:
     init_us_2    :      0.25s CPU      0.26s WALL (      26 calls)
     cegterg      :   6162.29s CPU   6206.44s WALL (     134 calls)

     Called by sum_band:

     Called by *egterg:
     h_psi        :   1428.97s CPU   1451.47s WALL (    2663 calls)
     s_psi        :    148.65s CPU    148.79s WALL (    2663 calls)
     g_psi        :      7.00s CPU      7.01s WALL (    2503 calls)
     cdiaghg      :   3163.94s CPU   3165.27s WALL (    2529 calls)

     Called by h_psi:
     h_psi:pot    :   1425.85s CPU   1446.06s WALL (    2663 calls)
     h_psi:calbec :    170.73s CPU    172.43s WALL (    2663 calls)
     vloc_psi     :   1106.53s CPU   1124.84s WALL (    2663 calls)
     add_vuspsi   :    148.57s CPU    148.78s WALL (    2663 calls)

     General routines
     calbec       :    170.72s CPU    172.41s WALL (    2663 calls)
     fft          :      0.64s CPU      0.70s WALL (      14 calls)
     ffts         :      0.01s CPU      0.01s WALL (       1 calls)
     fftw         :   1036.31s CPU   1054.06s WALL (  609234 calls)
     interpolate  :      0.05s CPU      0.05s WALL (       1 calls)
     davcio       :      0.01s CPU      4.66s WALL (      52 calls)

     Parallel routines
     fft_scatt_xy :    108.31s CPU    108.86s WALL (  609249 calls)
     fft_scatt_yz :    537.32s CPU    551.63s WALL (  609249 calls)

     PWSCF        :     1h45m CPU       45h 1m WALL

      55h

   This run was terminated on:  21: 7:24   8Apr2022            

=------------------------------------------------------------------------------=
   JOB DONE.
=------------------------------------------------------------------------------=
