
     Program PWSCF v.6.3 starts on  8Apr2022 at 19:17:49 

     This program is part of the open-source Quantum ESPRESSO suite
     for quantum simulation of materials; please cite
         "P. Giannozzi et al., J. Phys.:Condens. Matter 21 395502 (2009);
         "P. Giannozzi et al., J. Phys.:Condens. Matter 29 465901 (2017);
          URL http://www.quantum-espresso.org", 
     in publications or presentations arising from this work. More details at
     http://www.quantum-espresso.org/quote

     Parallel version (MPI), running on    16 processors
     R & G space division:  proc/nbgrp/npool/nimage =      16
     Waiting for input...
     Reading input from standard input
     Message from routine read_cards :
     DEPRECATED: no units specified in CELL_PARAMETERS card

     Current dimensions of program PWSCF are:
     Max number of different atomic species (ntypx) = 10
     Max number of k-points (npk) =  40000
     Max angular momentum in pseudopotentials (lmaxx) =  3

     Atomic positions and unit cell read from directory:
     /home/zfwang/scratch/GNRDATASET/AGNR/A35/A35.save/


     Subspace diagonalization in iterative solution of the eigenvalue problem:
     a serial algorithm will be used


     Parallelization info
     --------------------
     sticks:   dense  smooth     PW     G-vecs:    dense   smooth      PW
     Min        4593    1531    432               171983    33101    4958
     Max        4595    1533    433               171984    33102    4959
     Sum       73513   24507   6913              2751729   529623   79329



     bravais-lattice index     =            0
     lattice parameter (alat)  =       1.8897  a.u.
     unit-cell volume          =   15497.9956 (a.u.)^3
     number of atoms/cell      =           74
     number of atomic types    =            2
     number of electrons       =       284.00
     number of Kohn-Sham states=          500
     kinetic-energy cutoff     =      40.0000  Ry
     charge density cutoff     =     480.0000  Ry
     Exchange-correlation      = PBE ( 1  4  3  4 0 0)

     celldm(1)=  18.897261  celldm(2)=   5.391000  celldm(3)=   0.426000
     celldm(4)=   0.000000  celldm(5)=   0.000000  celldm(6)=   0.000000

     crystal axes: (cart. coord. in units of alat)
               a(1) = (  10.000000   0.000000   0.000000 )  
               a(2) = (   0.000000  53.910000   0.000000 )  
               a(3) = (   0.000000   0.000000   4.260000 )  

     reciprocal axes: (cart. coord. in units 2 pi/alat)
               b(1) = (  0.100000  0.000000  0.000000 )  
               b(2) = (  0.000000  0.018549  0.000000 )  
               b(3) = (  0.000000  0.000000  0.234742 )  


     PseudoPot. # 1 for C  read from file:
     /home/zfwang/hp_home/MySoftware/qe-6.3/pseudo/C.pbe-n-rrkjus_psl.0.1.UPF
     MD5 check sum: fff530ed632a789b3b184014e67dd7f1
     Pseudo is Ultrasoft + core correction, Zval =  4.0
     Generated using "atomic" code by A. Dal Corso v.5.0.2 svn rev. 9415
     Using radial grid of 1073 points,  4 beta functions with: 
                l(1) =   0
                l(2) =   0
                l(3) =   1
                l(4) =   1
     Q(r) pseudized with 0 coefficients 


     PseudoPot. # 2 for H  read from file:
     /home/zfwang/hp_home/MySoftware/qe-6.3/pseudo/H.pbe-rrkjus_psl.0.1.UPF
     MD5 check sum: e164a6907b691c6980f16942be34de84
     Pseudo is Ultrasoft, Zval =  1.0
     Generated using "atomic" code by A. Dal Corso v.5.0.2 svn rev. 9415
     Using radial grid of  929 points,  2 beta functions with: 
                l(1) =   0
                l(2) =   0
     Q(r) pseudized with 0 coefficients 


     atomic species   valence    mass     pseudopotential
        C              4.00    12.01070     C ( 1.00)
        H              1.00     1.00794     H ( 1.00)

     No symmetry found



   Cartesian axes

     site n.     atom                  positions (alat units)
         1           C   tau(   1) = (   4.9999999   6.0614063   2.8130283  )
         2           C   tau(   2) = (   5.0000007   7.2678601   3.5446141  )
         3           C   tau(   3) = (   4.9999998   6.0614060   1.4469723  )
         4           C   tau(   4) = (   5.0000013   8.4969669   2.8410325  )
         5           C   tau(   5) = (   5.0000017   9.7332551   3.5525460  )
         6           C   tau(   6) = (   5.0000007   7.2678606   0.7153865  )
         7           C   tau(   7) = (   5.0000015   8.4969663   1.4189681  )
         8           C   tau(   8) = (   5.0000007  10.9628189   2.8415493  )
         9           C   tau(   9) = (   5.0000004  12.1916824   3.5494322  )
        10           C   tau(  10) = (   5.0000018   9.7332564   0.7074543  )
        11           C   tau(  11) = (   5.0000010  10.9628175   1.4184508  )
        12           C   tau(  12) = (   4.9999999  13.4245171   2.8391979  )
        13           C   tau(  13) = (   4.9999986  14.6557752   3.5493051  )
        14           C   tau(  14) = (   5.0000007  12.1916828   0.7105678  )
        15           C   tau(  15) = (   5.0000002  13.4245178   1.4208023  )
        16           C   tau(  16) = (   4.9999980  15.8855367   2.8403128  )
        17           C   tau(  17) = (   4.9999982  17.1166316   3.5505871  )
        18           C   tau(  18) = (   4.9999990  14.6557738   0.7106948  )
        19           C   tau(  19) = (   4.9999980  15.8855381   1.4196873  )
        20           C   tau(  20) = (   4.9999995  18.3469170   2.8401697  )
        21           C   tau(  21) = (   5.0000007  19.5761162   3.5498225  )
        22           C   tau(  22) = (   4.9999985  17.1166307   0.7094134  )
        23           C   tau(  23) = (   4.9999995  18.3469178   1.4198307  )
        24           C   tau(  24) = (   5.0000012  20.8061870   2.8395998  )
        25           C   tau(  25) = (   5.0000015  22.0362520   3.5500103  )
        26           C   tau(  26) = (   5.0000009  19.5761160   0.7101777  )
        27           C   tau(  27) = (   5.0000013  20.8061872   1.4204004  )
        28           C   tau(  28) = (   5.0000022  23.2656145   2.8401653  )
        29           C   tau(  29) = (   5.0000032  24.4953804   3.5502567  )
        30           C   tau(  30) = (   5.0000015  22.0362521   0.7099904  )
        31           C   tau(  31) = (   5.0000021  23.2656137   1.4198355  )
        32           C   tau(  32) = (   5.0000044  25.7254428   2.8398637  )
        33           C   tau(  33) = (   5.0000045  26.9549971   3.5498385  )
        34           C   tau(  34) = (   5.0000029  24.4953808   0.7097438  )
        35           C   tau(  35) = (   5.0000038  25.7254421   1.4201366  )
        36           C   tau(  36) = (   5.0000034  28.1845534   2.8398639  )
        37           C   tau(  37) = (   5.0000023  29.4146223   3.5502536  )
        38           C   tau(  38) = (   5.0000041  26.9549973   0.7101614  )
        39           C   tau(  39) = (   5.0000032  28.1845537   1.4201358  )
        40           C   tau(  40) = (   5.0000016  30.6443932   2.8401661  )
        41           C   tau(  41) = (   5.0000007  31.8737624   3.5500083  )
        42           C   tau(  42) = (   5.0000024  29.4146217   0.7097461  )
        43           C   tau(  43) = (   5.0000015  30.6443943   1.4198337  )
        44           C   tau(  44) = (   5.0000002  33.1038301   2.8396019  )
        45           C   tau(  45) = (   4.9999990  34.3338988   3.5498219  )
        46           C   tau(  46) = (   5.0000008  31.8737621   0.7099916  )
        47           C   tau(  47) = (   5.0000004  33.1038303   1.4203981  )
        48           C   tau(  48) = (   4.9999972  35.5631009   2.8401709  )
        49           C   tau(  49) = (   4.9999960  36.7933880   3.5505834  )
        50           C   tau(  50) = (   4.9999990  34.3338993   0.7101782  )
        51           C   tau(  51) = (   4.9999972  35.5630997   1.4198288  )
        52           C   tau(  52) = (   4.9999958  38.0244813   2.8403141  )
        53           C   tau(  53) = (   4.9999967  39.2542386   3.5493072  )
        54           C   tau(  54) = (   4.9999962  36.7933886   0.7094159  )
        55           C   tau(  55) = (   4.9999959  38.0244806   1.4196856  )
        56           C   tau(  56) = (   4.9999974  40.4854860   2.8391981  )
        57           C   tau(  57) = (   4.9999984  41.7183089   3.5494308  )
        58           C   tau(  58) = (   4.9999967  39.2542385   0.7106924  )
        59           C   tau(  59) = (   4.9999977  40.4854858   1.4208019  )
        60           C   tau(  60) = (   4.9999993  42.9471717   2.8415503  )
        61           C   tau(  61) = (   4.9999994  44.1767336   3.5525427  )
        62           C   tau(  62) = (   4.9999986  41.7183096   0.7105687  )
        63           C   tau(  63) = (   4.9999993  42.9471717   1.4184495  )
        64           C   tau(  64) = (   4.9999995  45.4130200   2.8410463  )
        65           C   tau(  65) = (   4.9999995  46.6421244   3.5446095  )
        66           C   tau(  66) = (   4.9999994  44.1767333   0.7074573  )
        67           C   tau(  67) = (   4.9999995  45.4130216   1.4189539  )
        68           C   tau(  68) = (   4.9999995  47.8485787   2.8130695  )
        69           C   tau(  69) = (   4.9999993  46.6421228   0.7153910  )
        70           C   tau(  70) = (   4.9999991  47.8485804   1.4469316  )
        71           H   tau(  71) = (   4.9999993   5.1058168   3.3301524  )
        72           H   tau(  72) = (   4.9999974   5.1058170   0.9298485  )
        73           H   tau(  73) = (   5.0000001  48.8041397   3.3301442  )
        74           H   tau(  74) = (   4.9999989  48.8041400   0.9298585  )

     number of k points=    26  Marzari-Vanderbilt smearing, width (Ry)=  0.0100
                       cart. coord. in units 2pi/alat
        k(    1) = (   0.0000000   0.0000000   0.0000000), wk =   0.0400000
        k(    2) = (   0.0000000   0.0000000   0.0046948), wk =   0.0800000
        k(    3) = (   0.0000000   0.0000000   0.0093897), wk =   0.0800000
        k(    4) = (   0.0000000   0.0000000   0.0140845), wk =   0.0800000
        k(    5) = (   0.0000000   0.0000000   0.0187793), wk =   0.0800000
        k(    6) = (   0.0000000   0.0000000   0.0234742), wk =   0.0800000
        k(    7) = (   0.0000000   0.0000000   0.0281690), wk =   0.0800000
        k(    8) = (   0.0000000   0.0000000   0.0328638), wk =   0.0800000
        k(    9) = (   0.0000000   0.0000000   0.0375587), wk =   0.0800000
        k(   10) = (   0.0000000   0.0000000   0.0422535), wk =   0.0800000
        k(   11) = (   0.0000000   0.0000000   0.0469484), wk =   0.0800000
        k(   12) = (   0.0000000   0.0000000   0.0516432), wk =   0.0800000
        k(   13) = (   0.0000000   0.0000000   0.0563380), wk =   0.0800000
        k(   14) = (   0.0000000   0.0000000   0.0610329), wk =   0.0800000
        k(   15) = (   0.0000000   0.0000000   0.0657277), wk =   0.0800000
        k(   16) = (   0.0000000   0.0000000   0.0704225), wk =   0.0800000
        k(   17) = (   0.0000000   0.0000000   0.0751174), wk =   0.0800000
        k(   18) = (   0.0000000   0.0000000   0.0798122), wk =   0.0800000
        k(   19) = (   0.0000000   0.0000000   0.0845070), wk =   0.0800000
        k(   20) = (   0.0000000   0.0000000   0.0892019), wk =   0.0800000
        k(   21) = (   0.0000000   0.0000000   0.0938967), wk =   0.0800000
        k(   22) = (   0.0000000   0.0000000   0.0985915), wk =   0.0800000
        k(   23) = (   0.0000000   0.0000000   0.1032864), wk =   0.0800000
        k(   24) = (   0.0000000   0.0000000   0.1079812), wk =   0.0800000
        k(   25) = (   0.0000000   0.0000000   0.1126761), wk =   0.0800000
        k(   26) = (   0.0000000   0.0000000  -0.1173709), wk =   0.0400000

     Dense  grid:  2751729 G-vectors     FFT dimensions: ( 135, 720,  60)

     Smooth grid:   529623 G-vectors     FFT dimensions: (  80, 432,  36)

     Estimated max dynamical RAM per process >     688.84 MB

     Estimated total dynamical RAM >      10.76 GB

     The potential is recalculated from file :
     /home/zfwang/scratch/GNRDATASET/AGNR/A35/A35.save/charge-density.dat


     negative rho (up, down):  9.293E-05 0.000E+00
     Starting wfcs are  284 randomized atomic wfcs +  216 random wfcs

     Band Structure Calculation
     Davidson diagonalization with overlap
     c_bands:  1 eigenvalues not converged
     c_bands:  1 eigenvalues not converged
     c_bands:  2 eigenvalues not converged
     c_bands:  1 eigenvalues not converged
     c_bands:  1 eigenvalues not converged
     c_bands:  2 eigenvalues not converged
     c_bands:  2 eigenvalues not converged
     c_bands:  1 eigenvalues not converged
     c_bands:  1 eigenvalues not converged

     ethr =  3.52E-09,  avg # of iterations = 85.7

     total cpu time spent up to now is     6059.0 secs

     End of band structure calculation

          k = 0.0000 0.0000 0.0000 ( 66035 PWs)   bands (ev):

   -20.6065 -20.5578 -20.4850 -20.3876 -20.2622 -20.1089 -19.9297 -19.7252
   -19.4950 -19.2389 -18.9569 -18.6451 -18.3094 -17.9519 -17.5726 -17.1727
   -16.7541 -16.3191 -15.8711 -15.4149 -15.3373 -15.2936 -15.2301 -15.1461
   -15.0377 -14.9578 -14.9048 -14.7495 -14.5724 -14.5130 -14.3731 -14.3307
   -14.2882 -14.2277 -14.1509 -14.1450 -14.1071 -14.0349 -13.9276 -13.9056
   -13.7924 -13.7580 -13.6508 -13.6293 -13.5646 -13.5088 -13.4780 -13.3314
   -13.0141 -12.6761 -12.3175 -11.9391 -11.6276 -11.5997 -11.5417 -11.4725
   -11.3669 -11.2251 -11.1263 -11.0504 -10.8812 -10.7045 -10.6940 -10.4554
   -10.3359 -10.2461  -9.9915  -9.9465  -9.7839  -9.5401  -9.5210  -9.3087
    -9.1205  -9.0629  -8.8191  -8.6983  -8.6929  -8.6426  -8.6323  -8.5575
    -8.4422  -8.3174  -8.2943  -8.2639  -8.2469  -8.1141  -7.9275  -7.9037
    -7.8421  -7.8191  -7.6875  -7.6640  -7.5670  -7.3950  -7.3949  -7.3218
    -7.0970  -6.9729  -6.8294  -6.7706  -6.5577  -6.4136  -6.3481  -6.1562
    -6.0317  -5.8860  -5.7742  -5.6276  -5.4532  -5.4178  -5.2023  -5.0933
    -5.0613  -4.8069  -4.7586  -4.7243  -4.5633  -4.4567  -4.3679  -4.2997
    -4.2668  -4.2274  -4.1545  -4.1464  -3.8294  -3.4019  -3.3525  -3.3452
    -3.2578  -3.1387  -2.9857  -2.8746  -2.7994  -2.5814  -2.4019  -2.3322
    -2.0517  -1.9418  -1.7397  -1.5019  -1.3959  -1.0874  -1.0102  -0.7077
    -0.5979  -0.3857  -0.1616  -0.1146   0.1053   0.2765   0.3009   0.4042
     0.4956   0.5581   0.5985   0.6219   0.6316   0.7889   1.3014   1.8367
     1.9278   2.0488   2.0703   2.1545   2.2170   2.3638   2.3931   2.4851
     2.6916   2.8723   2.9682   3.1358   3.3195   3.3710   3.4447   3.5358
     3.5595   3.6625   3.6668   3.7439   3.8282   3.9133   3.9896   4.1071
     4.1255   4.1638   4.3592   4.3962   4.4570   4.6028   4.7775   4.8276
     4.8432   4.8576   4.8769   4.9174   4.9996   5.1099   5.2404   5.2732
     5.3055   5.3979   5.4254   5.4450   5.4497   5.6970   5.7609   5.9417
     5.9428   6.0193   6.0618   6.1137   6.2431   6.3261   6.4654   6.4964
     6.6016   6.6281   6.6352   6.6648   6.7047   6.8467   6.9688   7.0723
     7.1869   7.1911   7.2227   7.2805   7.3093   7.3181   7.3423   7.3545
     7.4037   7.4906   7.5017   7.5460   7.6067   7.6147   7.7319   7.7527
     7.7963   7.8168   7.8909   7.9247   7.9639   7.9660   7.9896   8.0249
     8.1213   8.1560   8.3364   8.3405   8.3564   8.3822   8.3884   8.4507
     8.6096   8.6445   8.7061   8.7804   8.8065   8.8466   8.8820   8.9018
     8.9609   9.0353   9.0464   9.2711   9.2978   9.3033   9.3603   9.3670
     9.3705   9.4073   9.5925   9.5975   9.6072   9.6130   9.6372   9.6384
     9.6413   9.6533   9.6721   9.6975   9.6986   9.7169   9.7184   9.7256
     9.7650   9.8628   9.8836   9.9371   9.9515   9.9949   9.9962  10.0171
    10.0308  10.0431  10.0662  10.0679  10.1251  10.1419  10.1827  10.1879
    10.1895  10.2029  10.2565  10.2703  10.2750  10.2891  10.2955  10.3315
    10.4058  10.4087  10.4308  10.4566  10.4641  10.4759  10.5027  10.5195
    10.5224  10.5965  10.6025  10.6331  10.6387  10.6448  10.6558  10.6716
    10.6836  10.8534  10.8816  10.8943  10.9143  10.9264  10.9369  10.9535
    10.9730  11.0679  11.0704  11.0721  11.1444  11.2108  11.2109  11.2149
    11.2163  11.2474  11.2500  11.2907  11.2965  11.3038  11.3641  11.4182
    11.4201  11.4484  11.4566  11.4681  11.5328  11.5408  11.5420  11.5592
    11.5637  11.5850  11.6178  11.6217  11.6275  11.6566  11.6691  11.6720
    11.6847  11.6951  11.7267  11.7329  11.7587  11.7802  11.7964  11.8403
    11.8490  11.8583  11.8749  11.8896  11.8900  11.9354  11.9419  11.9455
    11.9487  11.9883  12.0034  12.0427  12.0459  12.0481  12.0492  12.0813
    12.0892  12.0953  12.1236  12.1400  12.1644  12.2300  12.2717  12.3049
    12.3311  12.3383  12.3478  12.3584  12.3785  12.3854  12.4158  12.4222
    12.4234  12.4506  12.5426  12.5598  12.5881  12.6269  12.6970  12.7531
    12.7631  12.7939  12.8156  12.8403  12.8457  12.8564  12.8686  12.9023
    12.9041  12.9298  12.9540  12.9552  12.9866  13.0422  13.0560  13.0689
    13.0848  13.0914  13.1000  13.1723  13.2587  13.3655  13.3665  13.3824
    13.4014  13.4214  13.4714  13.5010  13.5129  13.5246  13.5933  13.6402
    13.6490  13.7014  13.7457  13.7551  13.7652  13.7869  13.8375  13.9638
    13.9798  14.0447  14.0642  14.0920  14.1046  14.1566  14.1694  14.1790
    14.2113  14.2274  14.2524  14.2524  14.2971  14.3151  14.3671  14.3695
    14.3904  14.4228  14.4719  14.5176  14.5337  14.5946  14.5983  14.6096
    14.6448  14.6873  14.8221  14.8652  14.8809  14.8977  14.9002  14.9246
    14.9290  14.9309  15.0006  15.0715  15.0829  15.1059  15.1625  15.2487
    15.2684  15.2857  15.3186  15.4556

          k = 0.0000 0.0000 0.0047 ( 66029 PWs)   bands (ev):

   -20.6042 -20.5554 -20.4826 -20.3852 -20.2598 -20.1066 -19.9274 -19.7228
   -19.4927 -19.2366 -18.9546 -18.6428 -18.3071 -17.9497 -17.5704 -17.1705
   -16.7519 -16.3171 -15.8692 -15.4134 -15.3819 -15.3381 -15.2744 -15.1899
   -15.0815 -14.9568 -14.9481 -14.7922 -14.6166 -14.5124 -14.4175 -14.2827
   -14.2403 -14.1980 -14.1811 -14.1087 -14.0981 -13.9927 -13.9633 -13.8849
   -13.8164 -13.7474 -13.6218 -13.5627 -13.5163 -13.4603 -13.4326 -13.3395
   -13.0314 -12.6961 -12.3384 -11.9603 -11.6115 -11.5847 -11.5621 -11.4553
   -11.3523 -11.2095 -11.1467 -11.0325 -10.8703 -10.7137 -10.6845 -10.4479
   -10.3161 -10.2646  -9.9854  -9.9276  -9.8015  -9.5225  -9.5153  -9.3253
    -9.1044  -9.0575  -8.8351  -8.6954  -8.6783  -8.6397  -8.6273  -8.5546
    -8.4394  -8.3333  -8.2915  -8.2507  -8.2417  -8.1113  -7.9254  -7.9009
    -7.8316  -7.8307  -7.6841  -7.6612  -7.5644  -7.3922  -7.3841  -7.3345
    -7.0943  -6.9631  -6.8417  -6.7680  -6.5495  -6.4110  -6.3599  -6.1497
    -6.0292  -5.8976  -5.7692  -5.6252  -5.4659  -5.4129  -5.2001  -5.0984
    -5.0652  -4.8105  -4.7566  -4.7308  -4.5682  -4.4628  -4.3743  -4.2979
    -4.2722  -4.2351  -4.1593  -4.1552  -3.8281  -3.4177  -3.3611  -3.3520
    -3.2739  -3.1551  -3.0026  -2.8752  -2.8169  -2.6000  -2.4047  -2.3524
    -2.0746  -1.9493  -1.7681  -1.5228  -1.4408  -1.2144  -0.8842  -0.6631
    -0.5786  -0.3570  -0.1564  -0.0908   0.1270   0.2971   0.3010   0.4244
     0.5154   0.5778   0.6181   0.6414   0.6511   0.7865   1.2974   1.8317
     1.9310   2.0520   2.0735   2.1577   2.2203   2.3670   2.3873   2.4883
     2.6948   2.8755   2.9619   3.1390   3.3227   3.3742   3.4476   3.5395
     3.5536   3.6658   3.6700   3.7472   3.8315   3.9165   3.9929   4.1103
     4.1287   4.1570   4.3625   4.3994   4.4602   4.6060   4.7696   4.8316
     4.8463   4.8608   4.8801   4.9205   5.0028   5.1131   5.2436   5.2764
     5.3088   5.3900   5.4284   5.4483   5.4528   5.7001   5.7640   5.9399
     5.9449   6.0186   6.0661   6.1169   6.2461   6.3293   6.4667   6.4994
     6.6045   6.6213   6.6369   6.6689   6.7085   6.8494   6.9712   7.0743
     7.1898   7.1939   7.2155   7.2844   7.3166   7.3209   7.3368   7.3652
     7.3999   7.4847   7.5079   7.5497   7.5981   7.6169   7.7249   7.7528
     7.7887   7.8162   7.8949   7.9106   7.9619   7.9678   7.9903   8.0348
     8.1078   8.1477   8.3328   8.3356   8.3555   8.3648   8.3926   8.4529
     8.6099   8.6135   8.7138   8.7808   8.8091   8.8386   8.8858   8.9002
     8.9236   9.0356   9.0523   9.2295   9.2951   9.3027   9.3651   9.3690
     9.3719   9.4126   9.5619   9.5965   9.6103   9.6185   9.6279   9.6304
     9.6422   9.6568   9.6744   9.6915   9.7043   9.7201   9.7229   9.7317
     9.7541   9.7681   9.7989   9.8591   9.8660   9.8884   9.9195   9.9387
     9.9723   9.9870  10.0086  10.0627  10.0690  10.0700  10.1443  10.1919
    10.1982  10.2174  10.2481  10.2755  10.2915  10.3465  10.3892  10.4001
    10.4103  10.4353  10.4537  10.4667  10.4781  10.5095  10.5161  10.5223
    10.5736  10.5941  10.6090  10.6127  10.6165  10.6328  10.6549  10.7326
    10.7605  10.8046  10.8457  10.8479  10.9043  10.9341  10.9460  10.9711
    10.9947  11.0378  11.0462  11.0599  11.0933  11.0934  11.1037  11.1714
    11.2076  11.2437  11.2626  11.2842  11.3056  11.3464  11.4010  11.4225
    11.4318  11.4408  11.4501  11.4716  11.5000  11.5122  11.5445  11.5552
    11.5598  11.5791  11.6219  11.6226  11.6537  11.6599  11.6954  11.7101
    11.7244  11.7454  11.7988  11.8101  11.8113  11.8141  11.8318  11.8363
    11.8477  11.8545  11.8843  11.8893  11.8925  11.9083  11.9651  11.9673
    11.9748  11.9778  11.9830  12.0332  12.0522  12.0777  12.0873  12.0986
    12.1253  12.1490  12.1668  12.1747  12.1957  12.2139  12.2684  12.2769
    12.2908  12.3241  12.3391  12.3515  12.3603  12.3988  12.4203  12.4299
    12.4518  12.4696  12.4985  12.5230  12.5507  12.5714  12.6084  12.6292
    12.6876  12.6919  12.7404  12.7575  12.7930  12.8310  12.8312  12.8429
    12.8533  12.8608  12.9638  13.0193  13.0858  13.0896  13.1193  13.1237
    13.1433  13.1557  13.2061  13.2511  13.2643  13.3631  13.3853  13.3987
    13.4359  13.4427  13.4619  13.4705  13.4874  13.6174  13.6306  13.6485
    13.6496  13.6963  13.6984  13.7093  13.8237  13.8639  13.8928  13.9371
    13.9506  13.9862  14.0372  14.0437  14.0981  14.1471  14.1556  14.1978
    14.2292  14.2604  14.2805  14.3073  14.3263  14.3602  14.3997  14.4266
    14.4300  14.4328  14.5139  14.5233  14.5784  14.6027  14.6050  14.6244
    14.6619  14.7229  14.7814  14.8087  14.8443  14.8662  14.9120  14.9195
    14.9329  14.9350  14.9881  15.0851  15.1208  15.1956  15.2052  15.2389
    15.2546  15.3106  15.3551  15.4203

          k = 0.0000 0.0000 0.0094 ( 66055 PWs)   bands (ev):

   -20.5970 -20.5483 -20.4755 -20.3781 -20.2528 -20.0995 -19.9203 -19.7158
   -19.4857 -19.2296 -18.9477 -18.6358 -18.3003 -17.9429 -17.5637 -17.1639
   -16.7455 -16.3109 -15.8636 -15.4966 -15.4529 -15.4090 -15.3883 -15.3026
   -15.1940 -15.0595 -14.9572 -14.8998 -14.7276 -14.5292 -14.5145 -14.3124
   -14.1578 -14.1387 -14.1156 -14.0814 -14.0528 -13.9774 -13.9379 -13.8740
   -13.7577 -13.6303 -13.5170 -13.4676 -13.4038 -13.3647 -13.3481 -13.3232
   -13.0802 -12.7527 -12.3976 -12.0200 -11.6243 -11.5594 -11.5422 -11.4046
   -11.3137 -11.2035 -11.1618 -10.9850 -10.8366 -10.7687 -10.6286 -10.4264
   -10.3180 -10.2584  -9.9685  -9.8757  -9.8487  -9.5000  -9.4724  -9.3720
    -9.0583  -9.0429  -8.8799  -8.6869  -8.6364  -8.6312  -8.6137  -8.5461
    -8.4309  -8.3767  -8.2830  -8.2288  -8.2129  -8.1029  -7.9228  -7.8926
    -7.8637  -7.7990  -7.6734  -7.6529  -7.5565  -7.3840  -7.3710  -7.3529
    -7.0862  -6.9355  -6.8771  -6.7600  -6.5267  -6.4032  -6.3939  -6.1319
    -6.0217  -5.9304  -5.7563  -5.6180  -5.4980  -5.4043  -5.1933  -5.1189
    -5.0720  -4.8230  -4.7504  -4.7490  -4.5835  -4.4811  -4.3935  -4.2927
    -4.2889  -4.2580  -4.1810  -4.1739  -3.8243  -3.4642  -3.4079  -3.3504
    -3.3212  -3.2034  -3.0522  -2.8778  -2.8677  -2.6542  -2.4132  -2.4108
    -2.1400  -1.9713  -1.8470  -1.5814  -1.5517  -1.3741  -0.7277  -0.5531
    -0.5255  -0.2772  -0.1410  -0.0226   0.1899   0.3014   0.3576   0.4834
     0.5738   0.6357   0.6758   0.6990   0.7087   0.7791   1.2854   1.8167
     1.9406   2.0616   2.0832   2.1673   2.2300   2.3702   2.3767   2.4980
     2.7045   2.8852   2.9430   3.1486   3.3324   3.3838   3.4555   3.5373
     3.5506   3.6754   3.6797   3.7569   3.8412   3.9262   4.0024   4.1199
     4.1372   4.1385   4.3723   4.4091   4.4699   4.6158   4.7472   4.8426
     4.8559   4.8704   4.8897   4.9301   5.0124   5.1226   5.2531   5.2860
     5.3187   5.3667   5.4371   5.4580   5.4623   5.7094   5.7733   5.9283
     5.9546   6.0200   6.0787   6.1265   6.2550   6.3389   6.4707   6.5085
     6.6009   6.6129   6.6417   6.6808   6.7198   6.8575   6.9783   7.0803
     7.1938   7.1983   7.2024   7.2962   7.3289   7.3332   7.3370   7.3824
     7.3935   7.4711   7.5187   7.5610   7.5795   7.6233   7.6893   7.7663
     7.7681   7.8107   7.8679   7.9067   7.9639   7.9793   7.9889   8.0529
     8.0549   8.1498   8.2703   8.3100   8.3496   8.3787   8.4048   8.4594
     8.5217   8.6252   8.7144   8.7797   8.8147   8.8166   8.8425   8.8958
     8.8970   9.0331   9.0375   9.1496   9.2705   9.3175   9.3421   9.3765
     9.3793   9.4147   9.4545   9.4860   9.5070   9.5538   9.6065   9.6195
     9.6246   9.6267   9.6290   9.6346   9.6569   9.6703   9.6852   9.6975
     9.7196   9.7260   9.7376   9.7516   9.7777   9.8033   9.8299   9.8752
     9.8954   9.9431   9.9829   9.9836  10.0262  10.0509  10.0758  10.1114
    10.1215  10.1993  10.2084  10.2232  10.2307  10.2788  10.3394  10.3743
    10.3907  10.4697  10.4721  10.4739  10.4741  10.4893  10.5346  10.5507
    10.5674  10.6233  10.6256  10.6811  10.7038  10.7122  10.7331  10.7367
    10.7768  10.7942  10.8174  10.8206  10.8380  10.8528  10.8531  10.9250
    10.9451  10.9708  10.9805  11.0175  11.0781  11.1286  11.1329  11.1410
    11.1820  11.2293  11.2663  11.2706  11.3324  11.3583  11.4050  11.4305
    11.4409  11.4673  11.4735  11.4811  11.4831  11.5096  11.5592  11.5618
    11.5824  11.5922  11.6316  11.6337  11.6673  11.6761  11.7245  11.7378
    11.7473  11.7521  11.7899  11.8046  11.8220  11.8403  11.8608  11.8846
    11.8938  11.9113  11.9377  11.9494  11.9538  12.0058  12.0378  12.0534
    12.0799  12.0850  12.0856  12.0976  12.1008  12.1086  12.1282  12.1436
    12.1582  12.1609  12.2013  12.2115  12.2156  12.2204  12.2505  12.2572
    12.2695  12.2875  12.2940  12.3070  12.3258  12.3366  12.3428  12.3668
    12.3783  12.3970  12.4447  12.4488  12.4616  12.5167  12.5425  12.5736
    12.6115  12.6430  12.6589  12.7118  12.7470  12.7509  12.7516  12.7643
    12.8323  12.8539  12.9399  12.9630  12.9939  13.0881  13.1003  13.1209
    13.1646  13.1687  13.3473  13.3538  13.3943  13.4256  13.4416  13.4654
    13.4823  13.5205  13.5261  13.5636  13.5739  13.6303  13.6362  13.6515
    13.6853  13.7048  13.7584  13.7739  13.8091  13.8641  13.8666  13.9293
    13.9580  13.9611  14.0166  14.0463  14.1072  14.2153  14.2171  14.2467
    14.2908  14.3191  14.3358  14.3695  14.3821  14.4458  14.4470  14.4521
    14.4643  14.5233  14.5553  14.5569  14.6020  14.6153  14.6638  14.6684
    14.7339  14.7380  14.7909  14.8042  14.8053  14.8636  14.9362  14.9431
    14.9498  14.9908  15.0195  15.0930  15.1350  15.1427  15.1886  15.2376
    15.2829  15.3257  15.3348  15.3622

          k = 0.0000 0.0000 0.0141 ( 66041 PWs)   bands (ev):

   -20.5852 -20.5365 -20.4637 -20.3663 -20.2409 -20.0877 -19.9086 -19.7041
   -19.4740 -19.2180 -18.9361 -18.6243 -18.2889 -17.9316 -17.5525 -17.1529
   -16.7348 -16.3007 -15.8545 -15.6501 -15.6058 -15.5407 -15.4567 -15.3998
   -15.3445 -15.2082 -15.0552 -14.9463 -14.8747 -14.6752 -14.5271 -14.4517
   -14.2505 -14.1568 -14.0717 -13.9862 -13.9450 -13.8847 -13.8068 -13.7090
   -13.5957 -13.4719 -13.4131 -13.3904 -13.3362 -13.2665 -13.2179 -13.1856
   -13.1519 -12.8376 -12.4865 -12.1097 -11.7122 -11.4821 -11.4778 -11.3310
   -11.2789 -11.2608 -11.0812 -10.9249 -10.8499 -10.7730 -10.5491 -10.3963
   -10.3889 -10.1731  -9.9426  -9.9281  -9.7882  -9.4777  -9.4488  -9.3890
    -9.0220  -8.9915  -8.9432  -8.6727  -8.6170  -8.5940  -8.5725  -8.5320
    -8.4409  -8.4168  -8.2689  -8.2107  -8.1551  -8.0889  -7.9505  -7.8810
    -7.8786  -7.7534  -7.6541  -7.6391  -7.5438  -7.4271  -7.3703  -7.3058
    -7.0727  -6.9322  -6.8944  -6.7467  -6.4932  -6.4469  -6.3903  -6.1066
    -6.0091  -5.9811  -5.7394  -5.6060  -5.5462  -5.3963  -5.1821  -5.1589
    -5.0783  -4.8485  -4.7755  -4.7403  -4.6103  -4.5112  -4.4255  -4.3180
    -4.2952  -4.2841  -4.2226  -4.1985  -3.8180  -3.5388  -3.4830  -3.3973
    -3.3476  -3.2806  -3.1312  -2.9503  -2.8803  -2.7397  -2.5021  -2.4274
    -2.2403  -2.0079  -1.9623  -1.6972  -1.6655  -1.5360  -0.5709  -0.4482
    -0.4110  -0.1599  -0.1160   0.0823   0.2888   0.3023   0.4534   0.5778
     0.6674   0.7290   0.7673   0.7689   0.7921   0.8017   1.2659   1.7922
     1.9566   2.0776   2.0994   2.1834   2.2462   2.3420   2.3928   2.5142
     2.7206   2.9014   2.9120   3.1647   3.3485   3.3999   3.4608   3.5182
     3.5690   3.6915   3.6958   3.7731   3.8573   3.9425   4.0179   4.1050
     4.1360   4.1547   4.3886   4.4252   4.4858   4.6320   4.7115   4.8599
     4.8717   4.8865   4.9058   4.9460   5.0283   5.1385   5.2691   5.3019
     5.3289   5.3349   5.4515   5.4742   5.4780   5.7249   5.7887   5.9025
     5.9706   6.0291   6.0991   6.1424   6.2698   6.3546   6.4772   6.5234
     6.5674   6.6262   6.6496   6.7007   6.7386   6.8707   6.9894   7.0902
     7.1581   7.2122   7.2164   7.3158   7.3352   7.3425   7.3593   7.3958
     7.3982   7.4600   7.5117   7.5756   7.5797   7.6265   7.6448   7.7293
     7.7698   7.7879   7.8402   7.9262   7.9413   7.9720   7.9983   8.0190
     8.0645   8.1621   8.1739   8.2723   8.3407   8.3622   8.4250   8.4430
     8.4713   8.6215   8.6444   8.7755   8.7799   8.8064   8.8264   8.8866
     8.9123   8.9153   9.0405   9.1190   9.1595   9.1950   9.2301   9.2378
     9.2857   9.3418   9.3656   9.3888   9.4027   9.4300   9.4763   9.4913
     9.5351   9.5994   9.6238   9.6327   9.6346   9.6429   9.6603   9.6854
     9.7063   9.7154   9.7213   9.7388   9.7404   9.7634   9.7850   9.7957
     9.8904   9.8972   9.9311   9.9375   9.9510   9.9810  10.0279  10.0748
    10.0837  10.1089  10.1303  10.1812  10.2077  10.2130  10.2550  10.2755
    10.3299  10.3855  10.3911  10.4390  10.4488  10.4788  10.4801  10.4819
    10.5328  10.5455  10.5465  10.5738  10.5833  10.6011  10.6072  10.6266
    10.6595  10.6723  10.7461  10.8006  10.8758  10.9411  10.9775  10.9952
    11.0094  11.0139  11.0181  11.0207  11.0752  11.1214  11.2065  11.2246
    11.2376  11.2781  11.2931  11.2965  11.3682  11.3878  11.4058  11.4064
    11.4288  11.4476  11.4554  11.4970  11.5046  11.5555  11.5754  11.5819
    11.5918  11.6210  11.6614  11.6630  11.6896  11.6938  11.7371  11.7540
    11.7982  11.8068  11.8133  11.8543  11.8658  11.8778  11.8968  11.9086
    11.9126  11.9440  11.9589  11.9835  11.9866  12.0055  12.0232  12.0379
    12.0480  12.0848  12.0885  12.0928  12.1129  12.1306  12.1361  12.1597
    12.1721  12.1726  12.2194  12.2203  12.2252  12.2521  12.2955  12.3001
    12.3038  12.3149  12.3282  12.3307  12.3512  12.3524  12.3566  12.3568
    12.3733  12.4191  12.4304  12.4339  12.4679  12.4809  12.4840  12.5168
    12.5357  12.5399  12.5849  12.6525  12.6592  12.7345  12.7518  12.7831
    12.8516  12.8664  12.8765  12.8859  12.9635  12.9894  13.0538  13.0633
    13.1002  13.2065  13.2510  13.3607  13.4082  13.4171  13.4521  13.4623
    13.5168  13.5699  13.5803  13.5822  13.6835  13.7272  13.7381  13.7764
    13.7875  13.7963  13.7964  13.8413  13.8790  13.9074  13.9146  13.9516
    13.9736  14.0277  14.1201  14.1700  14.2352  14.2504  14.2507  14.2681
    14.2754  14.3712  14.3949  14.4137  14.4363  14.5084  14.5153  14.5373
    14.5390  14.5585  14.5715  14.6232  14.6402  14.6845  14.7187  14.7198
    14.7653  14.8149  14.8225  14.8352  14.9144  14.9297  14.9412  15.0028
    15.0077  15.0193  15.0333  15.0975  15.1184  15.1378  15.1431  15.1547
    15.2437  15.2739  15.2900  15.3262

          k = 0.0000 0.0000 0.0188 ( 66077 PWs)   bands (ev):

   -20.5686 -20.5199 -20.4471 -20.3497 -20.2244 -20.0712 -19.8921 -19.6877
   -19.4576 -19.2017 -18.9199 -18.6082 -18.2729 -17.9157 -17.5368 -17.1376
   -16.7199 -16.2866 -15.8424 -15.8219 -15.7775 -15.7114 -15.6255 -15.5132
   -15.4023 -15.3645 -15.2198 -15.0387 -14.9473 -14.8332 -14.6337 -14.5156
   -14.4062 -14.2186 -14.2117 -13.7897 -13.7491 -13.6902 -13.6141 -13.5194
   -13.4216 -13.4111 -13.3402 -13.2859 -13.2356 -13.1622 -13.1398 -13.0612
   -13.0373 -12.9404 -12.5960 -12.2204 -11.8218 -11.4229 -11.3795 -11.3709
   -11.2048 -11.2006 -10.9871 -10.9316 -10.8685 -10.6749 -10.4910 -10.4690
   -10.3233 -10.0717 -10.0201  -9.9057  -9.6848  -9.5355  -9.4499  -9.2925
    -9.0382  -8.9968  -8.8908  -8.6528  -8.5972  -8.5700  -8.5349  -8.5121
    -8.4780  -8.3970  -8.2492  -8.1880  -8.0859  -8.0693  -8.0181  -7.8659
    -7.8592  -7.7051  -7.6246  -7.6197  -7.5266  -7.4945  -7.3512  -7.2483
    -7.0538  -7.0028  -6.8447  -6.7282  -6.5155  -6.4537  -6.3721  -6.0781
    -6.0469  -5.9916  -5.7224  -5.6087  -5.5892  -5.3914  -5.2157  -5.1664
    -5.0877  -4.8917  -4.8065  -4.7261  -4.6501  -4.5528  -4.4702  -4.3622
    -4.3452  -4.2768  -4.2721  -4.2332  -3.8093  -3.6378  -3.5826  -3.4978
    -3.3826  -3.3442  -3.2352  -3.0573  -2.8853  -2.8510  -2.6193  -2.4478
    -2.3660  -2.1046  -2.0543  -1.8559  -1.7698  -1.6988  -0.4152  -0.3554
    -0.2545  -0.0822  -0.0180   0.2149   0.3042   0.4167   0.5791   0.7026
     0.7515   0.7920   0.8535   0.8936   0.9168   0.9266   1.2394   1.7585
     1.9790   2.1000   2.1220   2.2060   2.2688   2.3035   2.4153   2.5368
     2.7431   2.8697   2.9240   3.1872   3.3710   3.4225   3.4381   3.5223
     3.5941   3.7141   3.7183   3.7957   3.8800   3.9652   4.0346   4.0663
     4.1585   4.1775   4.4113   4.4477   4.5080   4.6546   4.6634   4.8835
     4.8938   4.9089   4.9282   4.9683   5.0506   5.1607   5.2778   5.2914
     5.3241   5.3571   5.4714   5.4969   5.5001   5.7466   5.8099   5.8614
     5.9931   6.0477   6.1266   6.1647   6.2900   6.3763   6.4860   6.5215
     6.5442   6.6433   6.6600   6.7282   6.7645   6.8889   7.0034   7.1040
     7.1088   7.2308   7.2355   7.3423   7.3428   7.3613   7.3679   7.3968
     7.4194   7.4584   7.4919   7.5789   7.5909   7.6057   7.6533   7.6783
     7.6989   7.7846   7.8402   7.8657   7.9527   7.9624   8.0189   8.0245
     8.0254   8.1308   8.1736   8.2180   8.2207   8.3803   8.4124   8.4530
     8.4701   8.4895   8.6695   8.7227   8.7363   8.7549   8.7971   8.8416
     8.8629   8.8808   8.9167   8.9396   9.0052   9.0411   9.0741   9.0979
     9.1189   9.1744   9.2610   9.3239   9.3533   9.3750   9.4105   9.4347
     9.4556   9.4953   9.5426   9.5465   9.5945   9.6557   9.6558   9.6935
     9.6941   9.7051   9.7076   9.7239   9.7652   9.7707   9.7911   9.7979
     9.8233   9.8291   9.8313   9.8783   9.9111   9.9526   9.9529   9.9906
    10.0517  10.0875  10.1127  10.1239  10.1241  10.1387  10.2112  10.2314
    10.2418  10.2471  10.2571  10.2802  10.2912  10.3152  10.3306  10.3609
    10.3682  10.3690  10.3776  10.5187  10.5371  10.5438  10.5687  10.5853
    10.6291  10.6697  10.6956  10.7269  10.7348  10.8189  10.8603  10.9543
    11.0174  11.0194  11.0207  11.1086  11.1264  11.2033  11.2094  11.3038
    11.3190  11.3285  11.3387  11.3836  11.4055  11.4219  11.4368  11.4705
    11.4745  11.5187  11.5189  11.5290  11.5668  11.5677  11.5995  11.6206
    11.6281  11.6587  11.6759  11.6936  11.6959  11.7093  11.7253  11.7409
    11.7939  11.7978  11.7985  11.8148  11.8290  11.8778  11.8841  11.8943
    11.9327  11.9364  11.9449  11.9539  11.9549  12.0094  12.0228  12.0248
    12.0379  12.0460  12.0655  12.0666  12.1175  12.1351  12.1551  12.1627
    12.1653  12.1903  12.2438  12.2519  12.2689  12.2830  12.2867  12.3117
    12.3180  12.3250  12.3520  12.3843  12.4052  12.4072  12.4183  12.4388
    12.4414  12.4723  12.4833  12.4967  12.5076  12.5279  12.5297  12.5605
    12.5912  12.6265  12.6291  12.6353  12.6446  12.6671  12.7180  12.7268
    12.7916  12.7977  12.8409  12.8415  12.8835  12.9571  13.0907  13.0928
    13.1137  13.1306  13.1866  13.2668  13.3087  13.3686  13.4329  13.4439
    13.5194  13.5247  13.5298  13.5337  13.6923  13.7453  13.7695  13.8365
    13.8616  13.9428  13.9640  13.9763  13.9844  14.0550  14.0966  14.1302
    14.1419  14.1630  14.1962  14.2191  14.2322  14.2404  14.2891  14.3355
    14.3857  14.4228  14.4247  14.4806  14.4971  14.5589  14.5738  14.5965
    14.6022  14.6621  14.6688  14.7183  14.7365  14.7410  14.7704  14.8116
    14.8350  14.8400  14.8570  14.8867  14.8916  14.9183  14.9523  14.9580
    14.9784  15.0629  15.1332  15.1334  15.1461  15.1643  15.1851  15.2227
    15.2341  15.2591  15.3007  15.3624

          k = 0.0000 0.0000 0.0235 ( 66065 PWs)   bands (ev):

   -20.5473 -20.4986 -20.4258 -20.3285 -20.2032 -20.0500 -19.8710 -19.6666
   -19.4366 -19.1808 -18.8991 -18.5875 -18.2523 -17.8954 -17.5167 -17.1179
   -16.7008 -16.2686 -16.0026 -15.9575 -15.8927 -15.8254 -15.8038 -15.6894
   -15.5555 -15.3935 -15.3770 -15.2084 -15.0236 -14.9218 -14.7976 -14.5682
   -14.5355 -14.3565 -14.2982 -13.5778 -13.5380 -13.4815 -13.4447 -13.4067
   -13.3534 -13.3120 -13.2630 -13.1967 -13.0946 -13.0735 -13.0039 -12.9768
   -12.8897 -12.8888 -12.7168 -12.3445 -11.9453 -11.5275 -11.2835 -11.2571
   -11.1516 -11.0731 -11.0478 -10.8263 -10.8198 -10.6144 -10.5263 -10.4107
   -10.2243 -10.1140  -9.9787  -9.8451  -9.6317  -9.5727  -9.4148  -9.1817
    -9.1323  -8.9677  -8.7881  -8.6272  -8.6216  -8.5716  -8.5422  -8.4867
    -8.3907  -8.3716  -8.2239  -8.1605  -8.1153  -8.0441  -7.9967  -7.8383
    -7.8341  -7.6667  -7.6205  -7.5949  -7.5260  -7.5048  -7.3266  -7.1898
    -7.0806  -7.0295  -6.7924  -6.7043  -6.5956  -6.4128  -6.3488  -6.1251
    -6.0503  -5.9690  -5.7085  -5.6839  -5.5676  -5.3918  -5.2864  -5.1462
    -5.1037  -4.9531  -4.8424  -4.7079  -4.7045  -4.6058  -4.5275  -4.4259
    -4.4067  -4.3382  -4.2776  -4.2568  -3.7983  -3.7573  -3.7026  -3.6187
    -3.5050  -3.3611  -3.3385  -3.1847  -2.9823  -2.8923  -2.7558  -2.5139
    -2.4702  -2.2589  -2.1152  -2.0223  -1.8859  -1.8620  -0.2608  -0.2533
    -0.0913  -0.0405   0.1394   0.3074   0.3676   0.5671   0.7289   0.7323
     0.8527   0.9426   1.0048   1.0453   1.0690   1.0790   1.2064   1.7166
     2.0078   2.1287   2.1511   2.2349   2.2552   2.2979   2.4443   2.5659
     2.7720   2.8166   2.9531   3.2161   3.3883   3.4000   3.4515   3.5492
     3.6254   3.7430   3.7472   3.8244   3.9090   3.9944   3.9995   4.0754
     4.1874   4.2067   4.4405   4.4767   4.5353   4.6046   4.6838   4.9132
     4.9222   4.9377   4.9571   4.9970   5.0793   5.1893   5.2145   5.3201
     5.3527   5.3850   5.4965   5.5260   5.5285   5.7745   5.8071   5.8369
     6.0218   6.0747   6.1606   6.1933   6.3152   6.4035   6.4642   6.4968
     6.5706   6.6623   6.6727   6.7632   6.7974   6.9115   7.0182   7.0467
     7.1215   7.2531   7.2593   7.3535   7.3759   7.3771   7.3855   7.3926
     7.4160   7.4473   7.4840   7.5356   7.5953   7.6141   7.6388   7.6609
     7.6703   7.7124   7.8430   7.8511   7.8636   7.9846   8.0113   8.0263
     8.0577   8.0731   8.1184   8.1568   8.2076   8.3225   8.3620   8.4028
     8.4885   8.5043   8.5697   8.5811   8.6234   8.6475   8.6785   8.7053
     8.7096   8.7617   8.8434   8.8485   8.8731   8.9670   8.9817   9.0125
     9.0301   9.0700   9.1055   9.1206   9.1803   9.3286   9.3417   9.4142
     9.4293   9.4467   9.4731   9.4745   9.5316   9.5550   9.6462   9.6501
     9.6543   9.6829   9.7298   9.7342   9.7362   9.7684   9.7843   9.7982
     9.8031   9.8114   9.8181   9.8412   9.8847   9.8888   9.9313   9.9443
     9.9473  10.0126  10.0161  10.0440  10.0457  10.0504  10.0507  10.0621
    10.0904  10.1073  10.1279  10.1491  10.1501  10.1567  10.2026  10.2509
    10.2564  10.2794  10.3001  10.3485  10.4184  10.5426  10.5517  10.5836
    10.6037  10.6119  10.6686  10.6905  10.7092  10.7424  10.7571  10.8817
    10.9316  10.9474  11.0206  11.0356  11.0462  11.0637  11.1709  11.2955
    11.3236  11.3357  11.3435  11.3626  11.3716  11.4394  11.4460  11.4730
    11.4865  11.4990  11.5475  11.5571  11.5612  11.5831  11.6303  11.6394
    11.6613  11.6787  11.6831  11.7239  11.7355  11.7572  11.7691  11.7840
    11.8007  11.8327  11.8417  11.8439  11.8480  11.8642  11.8927  11.9048
    11.9242  11.9338  11.9449  11.9462  11.9735  11.9954  12.0115  12.0231
    12.0593  12.0745  12.0754  12.1310  12.1611  12.1843  12.1978  12.2019
    12.2052  12.2197  12.2251  12.2599  12.2933  12.2945  12.2962  12.3209
    12.3380  12.3656  12.3668  12.3772  12.3963  12.4300  12.4366  12.4764
    12.5146  12.5274  12.5282  12.5336  12.5523  12.5620  12.5938  12.6050
    12.6308  12.6338  12.6386  12.7052  12.7497  12.7700  12.7959  12.7968
    12.8054  12.8329  12.8715  12.8950  12.9036  12.9230  12.9256  13.0009
    13.0206  13.1154  13.1281  13.2802  13.3243  13.3316  13.3822  13.4187
    13.4463  13.4544  13.4950  13.5291  13.6700  13.6993  13.8920  13.9089
    13.9439  13.9926  14.0502  14.0596  14.0597  14.0845  14.0984  14.1967
    14.2009  14.2793  14.2968  14.3466  14.3713  14.4054  14.4229  14.4267
    14.4472  14.5096  14.5475  14.5728  14.5996  14.6171  14.6186  14.6743
    14.7013  14.7261  14.7354  14.7585  14.7673  14.8031  14.8132  14.8253
    14.8328  14.8363  14.9175  14.9424  14.9642  14.9678  14.9929  15.0214
    15.0373  15.0542  15.0934  15.1380  15.1834  15.2138  15.2145  15.2313
    15.2644  15.3057  15.3838  15.4072

          k = 0.0000 0.0000 0.0282 ( 66100 PWs)   bands (ev):

   -20.5213 -20.4725 -20.3998 -20.3025 -20.1773 -20.0242 -19.8452 -19.6409
   -19.4110 -19.1553 -18.8737 -18.5623 -18.2272 -17.8705 -17.4923 -17.0939
   -16.6776 -16.2474 -16.1863 -16.1406 -16.0745 -15.9853 -15.8763 -15.8018
   -15.7338 -15.5696 -15.4090 -15.3379 -15.1904 -14.9663 -14.9251 -14.7300
   -14.5716 -14.4946 -14.3955 -13.4601 -13.4393 -13.3557 -13.3169 -13.2602
   -13.2154 -13.1842 -13.1815 -13.0980 -12.9912 -12.9294 -12.8709 -12.8546
   -12.7836 -12.7330 -12.7141 -12.4754 -12.0774 -11.6564 -11.2254 -11.1654
   -11.1206 -11.0086 -10.9249 -10.8070 -10.6775 -10.6757 -10.3871 -10.3812
   -10.2317 -10.0632  -9.9263  -9.7789  -9.6865  -9.4774  -9.3660  -9.2193
    -9.0691  -8.9349  -8.7159  -8.6795  -8.5960  -8.5405  -8.5107  -8.4555
    -8.3405  -8.2931  -8.2098  -8.1929  -8.1272  -8.0133  -7.9188  -7.8035
    -7.7986  -7.7076  -7.6240  -7.5645  -7.4789  -7.4708  -7.2965  -7.2021
    -7.0949  -6.9998  -6.7523  -6.6752  -6.6735  -6.3761  -6.3204  -6.2116
    -6.0270  -5.9415  -5.7695  -5.7007  -5.5413  -5.4001  -5.3692  -5.1287
    -5.1217  -5.0302  -4.8862  -4.7745  -4.6858  -4.6704  -4.5979  -4.5110
    -4.4778  -4.4030  -4.3314  -4.2382  -3.8930  -3.8390  -3.7851  -3.7559
    -3.6434  -3.5005  -3.3348  -3.3276  -3.1285  -2.9154  -2.8922  -2.6692
    -2.5034  -2.4229  -2.1922  -2.1858  -2.0251  -2.0100  -0.1456  -0.1079
     0.0084   0.0750   0.3065   0.3127   0.5344   0.7105   0.7346   0.8976
     1.0231   1.1147   1.1680   1.1783   1.2200   1.2444   1.2549   1.6671
     2.0429   2.1638   2.1867   2.1980   2.2703   2.3335   2.4798   2.6015
     2.7539   2.8075   2.9887   3.2515   3.3243   3.4354   3.4869   3.5868
     3.6614   3.7784   3.7825   3.8574   3.9389   3.9445   4.0301   4.1097
     4.2227   4.2424   4.4760   4.5120   4.5262   4.5776   4.7194   4.9491
     4.9567   4.9729   4.9923   5.0321   5.1143   5.1402   5.2242   5.3551
     5.3875   5.4171   5.5263   5.5615   5.5633   5.7423   5.8085   5.8692
     6.0568   6.1093   6.1999   6.2281   6.3443   6.3974   6.4356   6.5096
     6.6022   6.6805   6.6871   6.8054   6.8370   6.9380   6.9726   7.0309
     7.1425   7.2771   7.2863   7.3660   7.3903   7.3936   7.3972   7.4145
     7.4164   7.4172   7.4501   7.4918   7.5385   7.5508   7.6244   7.6788
     7.6853   7.7071   7.7566   7.8494   7.8564   7.9208   7.9795   8.0112
     8.0632   8.0916   8.0975   8.1012   8.2158   8.2290   8.2852   8.3089
     8.3501   8.3975   8.4207   8.4471   8.5165   8.5310   8.5370   8.5609
     8.5661   8.6918   8.7269   8.7491   8.7953   8.8894   8.9240   8.9648
     8.9750   8.9768   9.0079   9.0420   9.0839   9.1445   9.1505   9.2674
     9.3676   9.3687   9.4719   9.4769   9.5012   9.5189   9.5311   9.5870
     9.5871   9.6083   9.6745   9.7167   9.7585   9.7600   9.7624   9.7688
     9.7704   9.7857   9.7979   9.7996   9.8001   9.8263   9.8316   9.8490
     9.8639   9.8941   9.9017   9.9081   9.9100   9.9562   9.9570   9.9595
     9.9602   9.9680   9.9827  10.0487  10.0804  10.0887  10.1208  10.1365
    10.2211  10.2268  10.2641  10.2841  10.3027  10.4278  10.4980  10.5436
    10.5728  10.5774  10.6010  10.6147  10.7068  10.7616  10.7616  10.7701
    10.8016  10.8141  10.8606  11.0514  11.0560  11.0810  11.0860  11.0926
    11.0996  11.1709  11.1867  11.2999  11.3256  11.3472  11.3762  11.3958
    11.4116  11.4750  11.5217  11.5379  11.5426  11.5833  11.5978  11.6472
    11.6581  11.6665  11.7014  11.7152  11.7356  11.7746  11.7912  11.7947
    11.8113  11.8271  11.8739  11.8853  11.9005  11.9377  11.9384  11.9425
    12.0031  12.0096  12.0146  12.0254  12.0457  12.0648  12.0725  12.0983
    12.0985  12.1028  12.1556  12.1661  12.2100  12.2314  12.2476  12.2519
    12.2568  12.2642  12.2719  12.2864  12.2889  12.2978  12.3322  12.3350
    12.3437  12.3583  12.4147  12.4294  12.4448  12.4588  12.4728  12.4809
    12.4926  12.5397  12.5425  12.5899  12.6208  12.6513  12.6529  12.6614
    12.6682  12.6817  12.6999  12.7342  12.7539  12.8016  12.8188  12.8404
    12.8448  12.8578  12.8640  12.9352  12.9628  12.9712  12.9856  13.0077
    13.1007  13.1446  13.1590  13.1911  13.2008  13.2321  13.3180  13.3649
    13.4702  13.4980  13.5109  13.6191  13.6602  13.6883  13.8857  13.9112
    13.9177  14.0083  14.0579  14.0658  14.1497  14.1706  14.1812  14.2054
    14.2469  14.2801  14.3259  14.3389  14.3683  14.3997  14.5541  14.5831
    14.6104  14.6393  14.6797  14.6878  14.7112  14.7230  14.7458  14.7481
    14.7713  14.7915  14.7950  14.8221  14.8673  14.8704  14.8834  14.8916
    14.9125  14.9206  14.9240  14.9551  14.9577  14.9672  15.0085  15.0231
    15.0787  15.1540  15.1880  15.2042  15.2345  15.2472  15.2747  15.3186
    15.3193  15.3202  15.3497  15.4061

          k = 0.0000 0.0000 0.0329 ( 66132 PWs)   bands (ev):

   -20.4905 -20.4418 -20.3691 -20.2718 -20.1466 -19.9936 -19.8146 -19.6105
   -19.3807 -19.1251 -18.8436 -18.5324 -18.1976 -17.8412 -17.4634 -17.0656
   -16.6505 -16.3704 -16.3252 -16.2576 -16.2246 -16.1648 -16.0546 -15.9128
   -15.7976 -15.7327 -15.5712 -15.3625 -15.3376 -15.1334 -14.9484 -14.8683
   -14.6814 -14.5720 -14.5071 -13.5231 -13.4704 -13.2979 -13.1657 -13.1263
   -13.0878 -13.0332 -12.9778 -12.9601 -12.8806 -12.8307 -12.7752 -12.6684
   -12.6143 -12.6123 -12.5704 -12.5322 -12.2130 -11.7917 -11.3522 -11.0349
   -10.9815 -10.8991 -10.8935 -10.7683 -10.6401 -10.5141 -10.4289 -10.2482
   -10.2282  -9.9475  -9.9152  -9.7970  -9.5769  -9.4565  -9.3387  -9.2062
    -8.9872  -8.9032  -8.7764  -8.5782  -8.5591  -8.5036  -8.4771  -8.4188
    -8.3038  -8.2995  -8.2001  -8.1564  -8.0851  -7.9769  -7.8513  -7.8034
    -7.7673  -7.7409  -7.5904  -7.5287  -7.4493  -7.3965  -7.2953  -7.2610
    -7.0353  -6.9648  -6.8069  -6.6677  -6.6408  -6.3633  -6.2876  -6.2868
    -6.0133  -5.9090  -5.8616  -5.7019  -5.5104  -5.4618  -5.4184  -5.1645
    -5.1207  -5.0927  -4.9407  -4.8607  -4.7469  -4.6834  -4.6598  -4.6131
    -4.5567  -4.4717  -4.3938  -4.2165  -4.0414  -3.9878  -3.9055  -3.7955
    -3.7686  -3.6528  -3.4820  -3.3319  -3.2834  -3.0692  -2.9102  -2.8340
    -2.5922  -2.5416  -2.3636  -2.2660  -2.1874  -2.1395  -0.0344   0.0413
     0.0656   0.2423   0.3210   0.4797   0.6876   0.7111   0.9145   1.0809
     1.1252   1.2099   1.3044   1.3703   1.4137   1.4392   1.4505   1.6111
     2.0845   2.1331   2.2052   2.2288   2.3121   2.3756   2.5217   2.6436
     2.6825   2.8493   3.0307   3.2498   3.2933   3.4771   3.5288   3.6322
     3.6969   3.8202   3.8243   3.8582   3.9133   3.9864   4.0723   4.1516
     4.2644   4.2845   4.4480   4.5179   4.5538   4.6164   4.7614   4.9910
     4.9965   5.0144   5.0339   5.0572   5.0735   5.1558   5.2656   5.3966
     5.4285   5.4497   5.5598   5.6034   5.6043   5.6724   5.8487   5.9063
     6.0978   6.1508   6.2403   6.2692   6.3269   6.3759   6.4713   6.5240
     6.6378   6.6941   6.7029   6.8545   6.8773   6.8932   6.9674   7.0362
     7.1661   7.2975   7.3123   7.3754   7.3788   7.3790   7.4033   7.4086
     7.4115   7.4328   7.4337   7.4472   7.4815   7.4832   7.5365   7.6387
     7.6731   7.7254   7.7919   7.8058   7.8452   7.8866   7.9122   7.9644
     8.0255   8.0479   8.0750   8.0931   8.1169   8.1431   8.1489   8.1543
     8.2132   8.2818   8.2836   8.3148   8.3370   8.4532   8.4702   8.4910
     8.5206   8.5509   8.5797   8.6621   8.7753   8.7842   8.7963   8.8887
     8.9001   8.9059   8.9875   8.9918   9.0353   9.0463   9.0559   9.1482
     9.1506   9.2503   9.2988   9.4527   9.4544   9.4867   9.4880   9.4892
     9.5050   9.5174   9.5305   9.5558   9.5892   9.5971   9.6037   9.6737
     9.6839   9.7485   9.7510   9.7600   9.7676   9.7700   9.7890   9.8023
     9.8032   9.8125   9.8128   9.8208   9.8455   9.8644   9.8669   9.8884
     9.8979   9.9521  10.0076  10.0092  10.0325  10.0441  10.0678  10.0828
    10.0860  10.1833  10.2317  10.2474  10.3062  10.3251  10.3964  10.4079
    10.4491  10.5399  10.5913  10.6393  10.6482  10.6903  10.7186  10.7341
    10.7359  10.7800  10.8102  10.8165  10.8342  10.8969  10.9029  11.0194
    11.0801  11.1102  11.1199  11.1217  11.1762  11.1906  11.2998  11.3432
    11.3966  11.4111  11.4622  11.5048  11.5424  11.5733  11.5801  11.6011
    11.6259  11.6559  11.6908  11.6928  11.7123  11.7285  11.7721  11.7966
    11.8276  11.8373  11.8450  11.8706  11.8946  11.9257  11.9286  11.9409
    11.9785  11.9817  12.0643  12.0764  12.0884  12.1145  12.1149  12.1431
    12.1938  12.2100  12.2200  12.2263  12.2563  12.2805  12.2977  12.3146
    12.3164  12.3231  12.3306  12.3583  12.3614  12.3898  12.3998  12.4068
    12.4646  12.4719  12.4879  12.4886  12.4993  12.5164  12.5286  12.5655
    12.5745  12.5838  12.5872  12.6152  12.6168  12.6237  12.6463  12.6943
    12.7068  12.7162  12.7236  12.7538  12.7776  12.8277  12.8636  12.8746
    12.8951  12.9137  12.9269  12.9672  12.9763  12.9852  13.0089  13.0418
    13.0506  13.1309  13.1851  13.2050  13.2330  13.3594  13.3839  13.3874
    13.4289  13.4992  13.5342  13.6459  13.6571  13.7772  13.8096  13.8746
    13.9056  13.9919  13.9994  14.0863  14.1518  14.1697  14.1823  14.2335
    14.2861  14.2893  14.3658  14.4081  14.4275  14.4386  14.4742  14.5283
    14.6144  14.6301  14.6725  14.6778  14.8201  14.8405  14.8871  14.8894
    14.8910  14.9102  14.9188  14.9464  14.9492  14.9603  14.9881  14.9969
    15.0015  15.0091  15.0126  15.0257  15.0703  15.0817  15.1090  15.1315
    15.1400  15.1401  15.1638  15.2190  15.2354  15.2542  15.3000  15.3241
    15.3249  15.3664  15.4459  15.4642

          k = 0.0000 0.0000 0.0376 ( 66142 PWs)   bands (ev):

   -20.4550 -20.4063 -20.3336 -20.2363 -20.1113 -19.9583 -19.7795 -19.5754
   -19.3457 -19.0903 -18.8090 -18.4980 -18.1635 -17.8075 -17.4302 -17.0333
   -16.6202 -16.5535 -16.5078 -16.4395 -16.3514 -16.2343 -16.1955 -16.0872
   -15.9346 -15.7504 -15.7446 -15.5322 -15.3531 -15.2700 -15.0804 -14.8996
   -14.8307 -14.6291 -14.6250 -13.5943 -13.5012 -13.3799 -13.1752 -13.0489
   -12.8912 -12.8536 -12.8096 -12.7985 -12.7320 -12.6939 -12.6438 -12.5568
   -12.4869 -12.4569 -12.3792 -12.3627 -12.3385 -11.9292 -11.4871 -11.0347
   -10.8701 -10.8494 -10.7573 -10.6268 -10.5395 -10.5372 -10.3456 -10.2013
   -10.0692 -10.0376  -9.7687  -9.7562  -9.5366  -9.4301  -9.3133  -9.0859
    -9.0221  -8.8696  -8.7196  -8.5333  -8.5166  -8.4612  -8.4509  -8.3764
    -8.3250  -8.2616  -8.1288  -8.1143  -8.0340  -7.9350  -7.8903  -7.7987
    -7.7257  -7.6674  -7.5533  -7.4873  -7.4282  -7.3848  -7.3205  -7.2201
    -6.9730  -6.9245  -6.9093  -6.6255  -6.6011  -6.4374  -6.2911  -6.2481
    -6.0257  -5.9442  -5.8716  -5.7158  -5.5614  -5.4747  -5.4487  -5.2227
    -5.2127  -5.0595  -5.0073  -4.9633  -4.8350  -4.7902  -4.7219  -4.6421
    -4.6300  -4.5461  -4.4642  -4.1996  -4.1918  -4.1460  -4.0643  -3.9544
    -3.8138  -3.7533  -3.6439  -3.4524  -3.3226  -3.2362  -3.0038  -2.9247
    -2.7639  -2.5883  -2.5326  -2.3638  -2.3392  -2.2729   0.0789   0.1218
     0.1957   0.3309   0.4117   0.6527   0.6680   0.8945   1.0786   1.1038
     1.2759   1.4094   1.5081   1.5497   1.5773   1.6230   1.6503   1.6626
     2.0613   2.1323   2.2530   2.2773   2.3603   2.4241   2.5700   2.6034
     2.6921   2.8977   3.0793   3.1663   3.3416   3.5252   3.5771   3.6844
     3.7019   3.8248   3.8684   3.8724   3.9564   4.0345   4.1209   4.2002
     4.3122   4.3329   4.3591   4.5660   4.6020   4.6640   4.8098   4.9610
     5.0385   5.0469   5.0622   5.0817   5.1214   5.2037   5.3134   5.4445
     5.4658   5.4756   5.5953   5.6154   5.6515   5.6518   5.8948   5.9475
     6.1447   6.1991   6.2231   6.3139   6.3164   6.4061   6.5081   6.5396
     6.6744   6.6985   6.7216   6.7907   6.9103   6.9368   6.9978   7.0270
     7.1898   7.3012   7.3231   7.3391   7.3402   7.3427   7.3726   7.3841
     7.3926   7.4163   7.4388   7.4411   7.4478   7.4809   7.5275   7.5602
     7.5919   7.7060   7.7485   7.7599   7.7780   7.7957   7.8397   7.8664
     7.8768   7.9215   7.9732   7.9973   8.0501   8.0764   8.0984   8.1386
     8.1886   8.1925   8.1977   8.2357   8.3072   8.3249   8.3475   8.3634
     8.3787   8.5265   8.5350   8.6126   8.6313   8.6580   8.7193   8.7897
     8.7931   8.8478   8.8990   8.9320   9.0254   9.0303   9.0328   9.0419
     9.0707   9.1047   9.1599   9.2254   9.2504   9.2709   9.2894   9.3253
     9.3282   9.3895   9.4397   9.4546   9.5069   9.5216   9.5703   9.5819
     9.5931   9.6118   9.6131   9.6448   9.6464   9.6719   9.6828   9.7107
     9.7471   9.7496   9.8003   9.8112   9.8529   9.8643   9.8760   9.8771
     9.8930   9.9058   9.9429   9.9849   9.9932  10.0291  10.0502  10.0690
    10.1178  10.1276  10.1307  10.2552  10.2558  10.2919  10.2951  10.3501
    10.3639  10.3977  10.5108  10.5135  10.5590  10.6321  10.6329  10.6393
    10.6644  10.6965  10.7041  10.7218  10.7696  10.7959  10.8456  10.8598
    10.8692  10.9817  11.0090  11.0596  11.0886  11.1060  11.1677  11.2699
    11.3389  11.4083  11.4096  11.4372  11.4924  11.5027  11.5188  11.6084
    11.6229  11.6248  11.6253  11.6732  11.6921  11.7174  11.7509  11.7612
    11.7744  11.8325  11.8655  11.8740  11.8786  11.9340  11.9556  11.9689
    11.9906  12.0276  12.0411  12.0836  12.0956  12.0996  12.1646  12.1659
    12.1660  12.1922  12.1996  12.2097  12.2675  12.2956  12.3065  12.3102
    12.3537  12.3674  12.3694  12.4207  12.4300  12.4354  12.4610  12.4840
    12.5092  12.5298  12.5675  12.5947  12.6062  12.6244  12.6258  12.6342
    12.6484  12.6619  12.6791  12.7180  12.7273  12.7306  12.7594  12.7615
    12.7626  12.7651  12.7896  12.7970  12.7990  12.8101  12.8904  12.8933
    12.9326  12.9426  12.9460  12.9692  12.9824  13.0129  13.0248  13.0432
    13.0888  13.2345  13.2374  13.2768  13.3001  13.3267  13.4028  13.4886
    13.5138  13.5632  13.5780  13.6147  13.6419  13.7216  13.8044  13.8877
    13.8885  13.8954  13.9966  14.0158  14.1576  14.2089  14.2440  14.2456
    14.2660  14.3076  14.3089  14.3803  14.4268  14.4317  14.4603  14.5915
    14.6314  14.6404  14.7129  14.7189  14.8042  14.8097  14.8556  14.8946
    14.9437  14.9504  14.9660  15.0089  15.0279  15.0295  15.0654  15.0658
    15.0900  15.1054  15.1058  15.1370  15.1877  15.1963  15.2296  15.2399
    15.2610  15.2785  15.3020  15.3092  15.3474  15.3508  15.3867  15.4030
    15.4315  15.4571  15.4713  15.4944

          k = 0.0000 0.0000 0.0423 ( 66166 PWs)   bands (ev):

   -20.4148 -20.3661 -20.2935 -20.1962 -20.0712 -19.9183 -19.7396 -19.5357
   -19.3061 -19.0509 -18.7698 -18.4591 -18.1249 -17.7693 -17.3927 -16.9970
   -16.7348 -16.6885 -16.6238 -16.5829 -16.5300 -16.4110 -16.2780 -16.1523
   -16.1076 -15.9156 -15.7548 -15.6730 -15.4907 -15.2818 -15.2403 -14.9832
   -14.9087 -14.7558 -14.6898 -13.6491 -13.5835 -13.3965 -13.2825 -13.0242
   -12.9161 -12.6517 -12.6410 -12.6148 -12.5620 -12.5178 -12.4976 -12.4166
   -12.3441 -12.3149 -12.2462 -12.1989 -12.1793 -12.0599 -11.6239 -11.1641
   -10.7439 -10.7127 -10.6603 -10.5622 -10.5216 -10.3852 -10.1974 -10.1602
   -10.1146  -9.8905  -9.7196  -9.6556  -9.5850  -9.2777  -9.2708  -9.1233
    -8.9466  -8.8256  -8.6061  -8.6034  -8.4685  -8.4131  -8.4086  -8.3284
    -8.2484  -8.2137  -8.1149  -8.0666  -8.0166  -7.8882  -7.8875  -7.7554
    -7.6785  -7.6010  -7.5129  -7.4969  -7.4405  -7.3675  -7.2491  -7.1738
    -7.0182  -6.9161  -6.8788  -6.5874  -6.5563  -6.5447  -6.2759  -6.2044
    -6.1053  -5.9771  -5.8293  -5.7516  -5.6592  -5.4932  -5.4345  -5.3343
    -5.2743  -5.0870  -5.0819  -5.0221  -4.9340  -4.9226  -4.8296  -4.7330
    -4.6267  -4.5967  -4.5417  -4.3642  -4.3111  -4.2304  -4.1643  -4.1205
    -3.9806  -3.8156  -3.7316  -3.6216  -3.4073  -3.3192  -3.1757  -2.9571
    -2.9218  -2.7124  -2.6297  -2.5165  -2.4418  -2.4087   0.1872   0.1934
     0.3443   0.3465   0.5792   0.6403   0.8367   1.0286   1.0840   1.2999
     1.4793   1.4837   1.6194   1.7231   1.7965   1.8453   1.8747   1.8883
     1.9838   2.1866   2.3071   2.3323   2.4150   2.4791   2.5176   2.6248
     2.7472   2.9525   3.0753   3.1343   3.3963   3.5796   3.6319   3.6374
     3.7425   3.8545   3.9230   3.9269   4.0106   4.0887   4.1761   4.2551
     4.2625   4.3673   4.3878   4.6198   4.6565   4.7181   4.8618   4.8646
     5.0903   5.0994   5.1162   5.1358   5.1756   5.2579   5.3675   5.4237
     5.4987   5.5286   5.6150   5.6286   5.7056   5.7059   5.9469   5.9914
     6.1455   6.1970   6.2539   6.3662   6.3694   6.4259   6.5393   6.5563
     6.6864   6.6918   6.7028   6.7504   6.9725   6.9954   6.9987   7.0252
     7.2024   7.2331   7.2667   7.2864   7.2919   7.3033   7.3443   7.3521
     7.3749   7.4157   7.4229   7.4638   7.4714   7.4966   7.5016   7.5078
     7.5173   7.5517   7.5879   7.5995   7.6367   7.6712   7.7069   7.7498
     7.8370   7.8399   7.8715   7.8891   7.9472   8.0384   8.0765   8.1174
     8.1294   8.1892   8.2057   8.2116   8.2473   8.2554   8.2793   8.3107
     8.3529   8.3856   8.3959   8.4940   8.5838   8.6247   8.6341   8.6807
     8.7152   8.7618   8.8231   8.8604   8.8735   8.9470   8.9618   8.9652
     9.0022   9.0423   9.0643   9.0651   9.0911   9.0994   9.1162   9.1385
     9.2061   9.2427   9.2806   9.2863   9.3016   9.3401   9.4247   9.4254
     9.4594   9.5038   9.5124   9.5969   9.6316   9.6350   9.6447   9.6622
     9.6690   9.7018   9.7311   9.7546   9.7955   9.8174   9.8493   9.8737
     9.8793   9.9033   9.9179   9.9278   9.9766   9.9953  10.0162  10.0661
    10.0993  10.1079  10.1739  10.2175  10.2210  10.2274  10.2568  10.2831
    10.3001  10.3028  10.3609  10.3834  10.4195  10.4365  10.4537  10.4915
    10.5856  10.5879  10.6337  10.7111  10.7333  10.7570  10.8063  10.8102
    10.8186  10.8847  10.8899  10.9141  10.9693  11.0748  11.1317  11.1514
    11.2182  11.2809  11.3460  11.3872  11.3970  11.4200  11.4819  11.5240
    11.5413  11.6263  11.6394  11.6566  11.6766  11.7263  11.7329  11.7605
    11.7798  11.8158  11.8280  11.8771  11.9128  11.9253  11.9618  12.0053
    12.0248  12.0604  12.0613  12.0800  12.0947  12.0988  12.1506  12.1704
    12.1801  12.2168  12.2268  12.2347  12.2565  12.2870  12.2894  12.3297
    12.3602  12.3801  12.3911  12.3977  12.4243  12.4629  12.4727  12.4837
    12.4889  12.5079  12.5752  12.5811  12.5962  12.6110  12.6648  12.6707
    12.6800  12.7062  12.7167  12.7490  12.7901  12.8035  12.8138  12.8497
    12.8872  12.9116  12.9241  12.9488  12.9719  12.9743  12.9870  12.9907
    12.9951  13.0048  13.0075  13.0592  13.0653  13.0712  13.0930  13.1410
    13.2087  13.2362  13.2760  13.2988  13.3047  13.3138  13.4553  13.4985
    13.5251  13.6031  13.6158  13.6265  13.6404  13.6583  13.7877  13.8232
    13.8419  13.9300  13.9448  14.0519  14.1287  14.1452  14.1854  14.2228
    14.3261  14.3317  14.3562  14.4012  14.4216  14.4336  14.5035  14.5511
    14.6569  14.6769  14.6806  14.7010  14.7699  14.8285  14.8367  14.8967
    14.9355  14.9757  14.9888  15.0113  15.0425  15.0795  15.0828  15.1118
    15.1446  15.2511  15.2520  15.2742  15.2805  15.3069  15.3545  15.3616
    15.3775  15.3868  15.3973  15.4033  15.4300  15.4369  15.4894  15.4948
    15.5342  15.5685  15.5747  15.6022

          k = 0.0000 0.0000 0.0469 ( 66202 PWs)   bands (ev):

   -20.3698 -20.3212 -20.2486 -20.1514 -20.0265 -19.8737 -19.6951 -19.4913
   -19.2619 -19.0069 -18.7260 -18.4156 -18.0818 -17.7268 -17.3511 -16.9578
   -16.9133 -16.8663 -16.7987 -16.7062 -16.6008 -16.5349 -16.4489 -16.2787
   -16.1435 -16.0639 -15.8902 -15.6780 -15.6531 -15.3994 -15.2722 -15.1294
   -14.9434 -14.8659 -14.7698 -13.6875 -13.6801 -13.4049 -13.3845 -13.0462
   -12.9823 -12.6441 -12.5726 -12.4073 -12.3721 -12.3218 -12.2638 -12.2262
   -12.2200 -12.1821 -12.0986 -12.0311 -12.0138 -11.9856 -11.7572 -11.2986
   -10.8265 -10.5510 -10.5431 -10.4410 -10.3950 -10.2833 -10.1817 -10.1079
    -9.9634  -9.7626  -9.7326  -9.6517  -9.4235  -9.2442  -9.2226  -9.1136
    -8.8083  -8.7791  -8.7085  -8.4770  -8.4148  -8.3610  -8.3594  -8.2748
    -8.1948  -8.1603  -8.1421  -8.0134  -7.9858  -7.8345  -7.8066  -7.7330
    -7.6264  -7.6259  -7.4775  -7.4698  -7.3883  -7.3248  -7.2000  -7.1221
    -7.1138  -6.8683  -6.8278  -6.6584  -6.5582  -6.5062  -6.2681  -6.2169
    -6.1556  -5.9954  -5.8324  -5.7822  -5.7325  -5.5561  -5.4516  -5.3896
    -5.3509  -5.2153  -5.1806  -5.0751  -5.0426  -4.9805  -4.9385  -4.8287
    -4.7134  -4.6256  -4.5600  -4.5337  -4.4807  -4.4002  -4.2909  -4.1586
    -4.1278  -3.9863  -3.7942  -3.7141  -3.5797  -3.3600  -3.3049  -3.1161
    -2.9566  -2.8817  -2.6866  -2.6765  -2.5458  -2.5413   0.2566   0.3072
     0.3678   0.4914   0.6196   0.7463   0.9796   1.0171   1.2747   1.4136
     1.5021   1.6890   1.8370   1.9011   1.9479   2.0257   2.0783   2.1102
     2.1255   2.2471   2.3675   2.3937   2.4263   2.4761   2.5406   2.6860
     2.8087   2.9778   3.0138   3.1958   3.4574   3.5432   3.6403   3.6931
     3.8044   3.9125   3.9841   3.9875   4.0718   4.1395   4.1722   4.2378
     4.3162   4.4281   4.4490   4.6755   4.7175   4.7601   4.7785   4.9258
     5.1420   5.1587   5.1764   5.1962   5.2362   5.3186   5.3410   5.4280
     5.5594   5.5875   5.6504   5.6585   5.7657   5.7661   6.0042   6.0353
     6.0722   6.2538   6.3152   6.4103   6.4292   6.4324   6.5495   6.5743
     6.5744   6.6834   6.7223   6.7923   6.9578   7.0392   7.0397   7.0601
     7.1147   7.1706   7.1995   7.2364   7.2438   7.2447   7.2658   7.3054
     7.3278   7.3293   7.3642   7.3777   7.4026   7.4310   7.4407   7.4589
     7.4702   7.5103   7.5259   7.5615   7.5679   7.6108   7.6249   7.6273
     7.6541   7.7057   7.7955   7.8312   7.9047   7.9477   7.9543   7.9950
     8.0928   8.0977   8.1591   8.2282   8.2294   8.2393   8.2955   8.3105
     8.3175   8.3524   8.3779   8.4195   8.4918   8.5135   8.5411   8.6216
     8.6698   8.7162   8.7181   8.7212   8.7520   8.7522   8.8076   8.8118
     8.8252   8.8950   8.9439   8.9775   8.9876   9.0002   9.0532   9.0690
     9.0773   9.1248   9.1510   9.1865   9.2205   9.2324   9.2410   9.2636
     9.2973   9.3501   9.4314   9.4499   9.4568   9.5033   9.5775   9.6076
     9.6392   9.6860   9.6977   9.7247   9.7296   9.7455   9.7656   9.7793
     9.8330   9.9131   9.9600   9.9769   9.9813   9.9933  10.0052  10.0188
    10.0223  10.0439  10.0582  10.0690  10.1178  10.1514  10.1554  10.2304
    10.2532  10.2992  10.3063  10.3172  10.3580  10.3665  10.3969  10.4130
    10.4504  10.4878  10.4983  10.5490  10.5664  10.7645  10.7654  10.7696
    10.8352  10.8546  10.8608  10.9111  10.9455  10.9563  10.9757  11.1004
    11.1445  11.1551  11.2534  11.2695  11.2885  11.3573  11.3577  11.4322
    11.4551  11.5993  11.6270  11.6623  11.6636  11.7218  11.7350  11.7588
    11.7882  11.8433  11.8755  11.8806  11.8928  11.9295  11.9814  12.0405
    12.0463  12.0555  12.0701  12.0833  12.1048  12.1426  12.1508  12.1588
    12.1642  12.1667  12.1898  12.2467  12.2643  12.2809  12.3092  12.3225
    12.3928  12.3978  12.4036  12.4054  12.4270  12.4448  12.4755  12.4928
    12.4959  12.5394  12.5421  12.5566  12.5873  12.5914  12.5937  12.6533
    12.7331  12.7448  12.7511  12.7840  12.8232  12.8307  12.8654  12.8912
    12.9050  12.9267  12.9692  13.0064  13.0106  13.0562  13.0651  13.1165
    13.1247  13.1319  13.1371  13.1422  13.2289  13.2400  13.2592  13.2874
    13.2894  13.3238  13.3498  13.3536  13.4017  13.4136  13.4362  13.4789
    13.4822  13.5610  13.6296  13.6427  13.6625  13.6878  13.6942  13.7427
    13.7793  13.8802  13.9821  14.0223  14.1038  14.1393  14.1549  14.2624
    14.2727  14.3543  14.4061  14.4420  14.4427  14.4566  14.5326  14.5612
    14.5817  14.6107  14.6424  14.7164  14.7386  14.8117  14.8270  14.9761
    14.9870  15.0209  15.0362  15.0690  15.0910  15.1563  15.1651  15.1657
    15.1979  15.2359  15.2526  15.3319  15.3691  15.4141  15.4305  15.4326
    15.4424  15.4520  15.4680  15.5091  15.5353  15.5520  15.5583  15.5699
    15.5896  15.6118  15.6240  15.6836

          k = 0.0000 0.0000 0.0516 ( 66212 PWs)   bands (ev):

   -20.3202 -20.2716 -20.1990 -20.1019 -19.9771 -19.8244 -19.6459 -19.4423
   -19.2131 -18.9583 -18.6777 -18.3677 -18.0344 -17.6801 -17.3058 -17.0888
   -17.0426 -16.9730 -16.9223 -16.8715 -16.7657 -16.6189 -16.5160 -16.4341
   -16.2707 -16.0694 -16.0527 -15.8134 -15.6622 -15.5448 -15.3244 -15.2113
   -15.0540 -14.9122 -14.8636 -13.7680 -13.7155 -13.5176 -13.3724 -13.1651
   -12.9527 -12.7598 -12.5223 -12.3295 -12.1599 -12.1402 -12.1239 -12.0779
   -12.0166 -11.9488 -11.9021 -11.8771 -11.8652 -11.8061 -11.7798 -11.4309
   -10.9549 -10.4820 -10.3977 -10.3610 -10.2450 -10.2107 -10.0560 -10.0072
    -9.8745  -9.7620  -9.6424  -9.5221  -9.3441  -9.2634  -9.1703  -8.9603
    -8.8300  -8.7317  -8.6525  -8.3617  -8.3555  -8.3121  -8.3002  -8.2890
    -8.2157  -8.1013  -8.0333  -7.9546  -7.9390  -7.7946  -7.7760  -7.7155
    -7.6232  -7.5677  -7.4273  -7.4060  -7.3307  -7.2769  -7.2645  -7.1012
    -7.0651  -6.8432  -6.7716  -6.7631  -6.5408  -6.4510  -6.3367  -6.2717
    -6.1017  -6.0223  -5.9491  -5.7902  -5.7303  -5.6485  -5.5638  -5.4458
    -5.3590  -5.3404  -5.2914  -5.2388  -5.1594  -5.0510  -4.9350  -4.9291
    -4.8055  -4.7151  -4.7062  -4.6536  -4.5729  -4.5213  -4.4623  -4.3269
    -4.1599  -4.1018  -3.9671  -3.7623  -3.6854  -3.5291  -3.3072  -3.2886
    -3.0505  -2.9815  -2.8351  -2.7493  -2.6824  -2.6445   0.3298   0.3836
     0.4320   0.5956   0.6436   0.9068   0.9356   1.1976   1.3434   1.4679
     1.7062   1.8146   1.9052   2.0606   2.1787   2.2624   2.3140   2.3199
     2.3310   2.3549   2.3720   2.4342   2.4616   2.5435   2.6086   2.7537
     2.8750   2.8767   3.0815   3.2638   3.4381   3.5250   3.7072   3.7608
     3.8617   3.9810   4.0476   4.0515   4.0701   4.1393   4.2205   4.3060
     4.3825   4.4954   4.5164   4.6350   4.7567   4.7848   4.8448   4.9934
     5.1590   5.2240   5.2427   5.2625   5.2813   5.3032   5.3856   5.4949
     5.6264   5.6426   5.6516   5.7167   5.8314   5.8322   6.0263   6.0649
     6.0720   6.3124   6.3494   6.3827   6.4568   6.4950   6.4987   6.5234
     6.5893   6.6926   6.7442   6.8379   6.9089   6.9831   7.0031   7.0166
     7.0603   7.0905   7.1175   7.1307   7.1315   7.1788   7.2043   7.2075
     7.2406   7.2534   7.2559   7.3187   7.3554   7.3766   7.3846   7.4110
     7.4443   7.4823   7.4895   7.5277   7.5462   7.5531   7.5623   7.5813
     7.6012   7.6751   7.7063   7.7220   7.7589   7.9006   7.9373   7.9595
     7.9653   7.9751   7.9927   8.0201   8.1867   8.2007   8.2581   8.2961
     8.3468   8.3642   8.4200   8.4486   8.4689   8.4745   8.4920   8.5026
     8.5301   8.5538   8.5819   8.5832   8.5934   8.6634   8.6995   8.7180
     8.7359   8.7647   8.8189   8.8524   8.8629   8.8744   8.8886   8.8931
     9.0324   9.0695   9.0891   9.0914   9.1260   9.1371   9.1987   9.2092
     9.2182   9.2715   9.2998   9.3041   9.3213   9.3506   9.4475   9.4785
     9.4937   9.5040   9.5705   9.6519   9.7204   9.7383   9.7489   9.7779
     9.8004   9.8362   9.8397   9.8777   9.8827   9.8929   9.9526   9.9745
    10.0023  10.0130  10.0232  10.0363  10.0432  10.0516  10.1021  10.1167
    10.2095  10.2173  10.2435  10.3076  10.3399  10.3458  10.3523  10.3559
    10.3929  10.4210  10.4518  10.4932  10.5465  10.5908  10.6122  10.7570
    10.8231  10.8558  10.8598  10.8910  10.9020  10.9216  10.9416  11.0218
    11.0340  11.0496  11.1471  11.1740  11.1910  11.2829  11.2863  11.3546
    11.3986  11.5016  11.5422  11.6101  11.6563  11.7063  11.7267  11.7952
    11.8040  11.8539  11.8658  11.9391  11.9395  11.9510  11.9778  11.9947
    12.0391  12.0503  12.0570  12.0689  12.0814  12.1230  12.1541  12.1656
    12.1683  12.1948  12.2101  12.2679  12.2735  12.2997  12.3306  12.3384
    12.3646  12.3702  12.3901  12.4168  12.4264  12.4455  12.4741  12.4796
    12.4934  12.5040  12.5758  12.5834  12.6028  12.6182  12.6309  12.6806
    12.7342  12.7649  12.7687  12.7874  12.7949  12.8068  12.8610  12.8774
    12.9804  12.9858  12.9861  13.0236  13.0562  13.0872  13.1275  13.1333
    13.1804  13.1873  13.1975  13.2058  13.2353  13.3218  13.3582  13.3647
    13.4068  13.4322  13.4513  13.4630  13.4794  13.5053  13.5667  13.5844
    13.5979  13.5984  13.6149  13.6316  13.6336  13.7044  13.7154  13.7182
    13.7729  13.7738  13.9889  14.0393  14.0442  14.1302  14.1514  14.1988
    14.3054  14.3280  14.3411  14.4513  14.4540  14.4600  14.5222  14.5279
    14.5589  14.6142  14.6420  14.7486  14.7847  14.8857  14.8976  14.9576
    14.9995  15.0702  15.0928  15.1065  15.1114  15.1950  15.2124  15.2348
    15.2501  15.2800  15.3002  15.3263  15.3789  15.4480  15.4583  15.5074
    15.5168  15.5393  15.5778  15.5916  15.5944  15.5960  15.5987  15.6214
    15.6480  15.7103  15.7437  15.7479

          k = 0.0000 0.0000 0.0563 ( 66234 PWs)   bands (ev):

   -20.2659 -20.2173 -20.1448 -20.0478 -19.9230 -19.7704 -19.5921 -19.3886
   -19.1597 -18.9051 -18.6249 -18.3153 -17.9826 -17.6293 -17.2634 -17.2559
   -17.2141 -17.1428 -17.0549 -16.9340 -16.8708 -16.7787 -16.6288 -16.4464
   -16.4322 -16.2123 -16.0525 -15.9524 -15.7435 -15.5869 -15.4625 -15.2080
   -15.1891 -14.9675 -14.9476 -13.8399 -13.7535 -13.5982 -13.4020 -13.2323
   -12.9920 -12.8031 -12.5568 -12.3597 -12.1147 -11.9505 -11.9094 -11.8762
   -11.8318 -11.7741 -11.7551 -11.7037 -11.6419 -11.6014 -11.5987 -11.5403
   -11.0847 -10.5963 -10.2389 -10.1831 -10.1218 -10.0967 -10.0152  -9.8544
    -9.8197  -9.6212  -9.5883  -9.4380  -9.3243  -9.1612  -9.0811  -8.9137
    -8.8082  -8.6896  -8.5138  -8.4135  -8.2906  -8.2642  -8.2354  -8.2145
    -8.1510  -8.0368  -7.9459  -7.8903  -7.8881  -7.8787  -7.7121  -7.6286
    -7.5784  -7.5042  -7.4235  -7.3368  -7.3290  -7.2676  -7.2250  -7.0544
    -7.0027  -6.9192  -6.7796  -6.7101  -6.5433  -6.4543  -6.3907  -6.2888
    -6.0795  -6.0617  -6.0430  -5.8542  -5.7769  -5.6737  -5.6639  -5.5713
    -5.4994  -5.4425  -5.3870  -5.2867  -5.2835  -5.1677  -5.0335  -4.9024
    -4.8867  -4.8797  -4.8277  -4.8093  -4.7467  -4.6398  -4.5011  -4.4759
    -4.3333  -4.1488  -4.0603  -3.9334  -3.7022  -3.6678  -3.4596  -3.3088
    -3.2149  -3.0218  -2.9800  -2.8363  -2.8000  -2.7512   0.4065   0.4155
     0.5464   0.5838   0.7865   0.8794   1.0800   1.2689   1.3809   1.6608
     1.7286   1.9130   2.1229   2.2289   2.2912   2.3871   2.4155   2.5069
     2.5072   2.5360   2.5685   2.6071   2.6174   2.6263   2.6830   2.7680
     2.8278   2.9512   3.1557   3.3265   3.3383   3.5991   3.7803   3.8349
     3.8616   4.0247   4.0556   4.1252   4.1301   4.2123   4.2937   4.3807
     4.4452   4.5341   4.5691   4.5901   4.8273   4.8584   4.9158   5.0672
     5.0779   5.2951   5.3146   5.3169   5.3349   5.3766   5.4590   5.5680
     5.5888   5.6998   5.7198   5.7805   5.8993   5.9045   6.0256   6.0837
     6.1151   6.2572   6.3368   6.3629   6.4568   6.4899   6.5593   6.5743
     6.5763   6.7032   6.7222   6.8114   6.8362   6.8478   6.8480   6.8771
     6.9695   6.9748   6.9938   7.0581   7.1215   7.1256   7.1505   7.1889
     7.1973   7.2065   7.2241   7.2390   7.2853   7.3076   7.3458   7.3568
     7.4028   7.4198   7.4209   7.4393   7.5058   7.5249   7.5324   7.6073
     7.6217   7.6417   7.6791   7.7015   7.7368   7.7534   7.7676   7.8006
     7.8477   7.9866   7.9899   8.0092   8.0272   8.0398   8.0867   8.2404
     8.2576   8.2644   8.2786   8.3266   8.3362   8.3367   8.4139   8.4441
     8.5096   8.5315   8.5408   8.5414   8.5795   8.5862   8.5892   8.6324
     8.6351   8.6906   8.6948   8.7660   8.7793   8.7823   8.8339   8.8763
     8.8937   8.9396   8.9472   8.9603   9.0585   9.0992   9.1251   9.1508
     9.1823   9.1908   9.1944   9.2214   9.2757   9.2801   9.2999   9.3070
     9.3741   9.4287   9.4869   9.5048   9.5395   9.5537   9.6336   9.6346
     9.6429   9.7387   9.7581   9.7973   9.8424   9.8670   9.8758   9.9180
     9.9279   9.9680   9.9849  10.0181  10.0459  10.0768  10.0917  10.0953
    10.1157  10.1249  10.1675  10.1846  10.2606  10.2847  10.3656  10.3708
    10.3930  10.4104  10.4440  10.4632  10.5530  10.5702  10.6123  10.6189
    10.6884  10.7175  10.7727  10.8265  10.8863  10.9467  10.9528  10.9646
    10.9799  11.0712  11.0747  11.1076  11.1276  11.1869  11.2546  11.2775
    11.3873  11.4131  11.4135  11.5161  11.6112  11.6386  11.7048  11.7538
    11.7995  11.8721  11.8791  11.9240  11.9333  11.9440  11.9992  12.0068
    12.0436  12.0508  12.0639  12.0679  12.1098  12.1166  12.1766  12.1792
    12.2037  12.2157  12.2291  12.2822  12.3013  12.3277  12.3283  12.3352
    12.3447  12.3851  12.3931  12.4100  12.4341  12.4374  12.4507  12.4747
    12.4847  12.5080  12.5434  12.5470  12.6173  12.6239  12.6398  12.6783
    12.6818  12.7541  12.7897  12.8001  12.8420  12.8701  12.9042  12.9341
    12.9381  12.9919  13.0358  13.0452  13.0467  13.1306  13.1366  13.1433
    13.1823  13.2283  13.2609  13.2737  13.2798  13.2911  13.3121  13.3521
    13.3988  13.4407  13.4836  13.4896  13.5120  13.5408  13.5517  13.6055
    13.6525  13.6764  13.7358  13.7359  13.8043  13.8114  13.8172  13.8572
    13.8723  13.8851  13.9903  14.0020  14.0035  14.0622  14.1044  14.1514
    14.2764  14.3009  14.3794  14.3969  14.4022  14.4798  14.5101  14.5357
    14.5853  14.6195  14.6913  14.7872  14.8047  14.8986  14.9073  14.9389
    14.9900  15.0716  15.0907  15.1043  15.1602  15.2665  15.2823  15.3123
    15.3192  15.3419  15.3663  15.4023  15.4156  15.4334  15.4675  15.5160
    15.5447  15.5576  15.6047  15.6224  15.6407  15.6590  15.7199  15.7300
    15.7450  15.7778  15.7872  15.7892

          k = 0.0000 0.0000 0.0610 ( 66212 PWs)   bands (ev):

   -20.2068 -20.1583 -20.0858 -19.9889 -19.8643 -19.7118 -19.5337 -19.3304
   -19.1017 -18.8474 -18.5676 -18.2585 -17.9266 -17.5752 -17.4296 -17.3821
   -17.3156 -17.2205 -17.2049 -17.0952 -16.9631 -16.8039 -16.7887 -16.5904
   -16.4310 -16.3424 -16.1551 -15.9644 -15.8901 -15.6088 -15.5612 -15.3249
   -15.2024 -15.0744 -14.9951 -13.8926 -13.8246 -13.6235 -13.4967 -13.2243
   -13.1012 -12.7718 -12.6690 -12.3116 -12.2125 -11.8903 -11.7478 -11.6561
   -11.6246 -11.5813 -11.5551 -11.5297 -11.4675 -11.4333 -11.4065 -11.3766
   -11.2049 -10.7212 -10.2276 -10.0367 -10.0172  -9.9632  -9.8303  -9.7636
    -9.6902  -9.6218  -9.4063  -9.4045  -9.1798  -9.1609  -8.9814  -8.8846
    -8.6907  -8.6526  -8.4744  -8.3779  -8.2281  -8.2202  -8.1651  -8.0964
    -8.0809  -8.0059  -7.9668  -7.8377  -7.8206  -7.8128  -7.6427  -7.5658
    -7.5252  -7.4979  -7.4352  -7.2945  -7.2765  -7.1992  -7.1716  -7.0351
    -7.0148  -6.9351  -6.7660  -6.6434  -6.6172  -6.5175  -6.3253  -6.3231
    -6.2150  -6.1152  -5.9793  -5.9303  -5.9275  -5.7656  -5.7346  -5.6310
    -5.6272  -5.6124  -5.5195  -5.4137  -5.2880  -5.2290  -5.1415  -5.0549
    -5.0033  -5.0020  -4.9231  -4.9076  -4.8318  -4.8138  -4.6746  -4.5139
    -4.4238  -4.3202  -4.1062  -4.0279  -3.8729  -3.6619  -3.6137  -3.3925
    -3.2965  -3.1570  -3.0323  -2.9681  -2.8771  -2.8603   0.4505   0.4853
     0.5754   0.6634   0.8340   0.9310   1.1979   1.2442   1.5606   1.6361
     1.8585   2.1122   2.1373   2.3434   2.4665   2.5217   2.5863   2.6169
     2.6463   2.6674   2.6977   2.7556   2.7639   2.8235   2.8654   2.8871
     2.9084   3.0321   3.2103   3.2364   3.4193   3.6797   3.7691   3.8596
     3.9155   4.0822   4.1304   4.2054   4.2098   4.2855   4.3737   4.4017
     4.4619   4.5515   4.6491   4.6698   4.9065   4.9382   4.9435   5.0116
     5.1472   5.3710   5.3846   5.3912   5.4129   5.4563   5.4964   5.5386
     5.6470   5.7796   5.7872   5.8415   5.9479   5.9787   6.0473   6.0645
     6.0801   6.2234   6.2525   6.3929   6.4336   6.5065   6.5165   6.5368
     6.6062   6.6442   6.6547   6.7067   6.7286   6.7368   6.7758   6.8739
     6.8882   6.8945   6.9129   6.9692   6.9958   7.0369   7.0740   7.1308
     7.1512   7.1898   7.2117   7.2541   7.2553   7.2776   7.2815   7.2824
     7.2921   7.3382   7.4227   7.4500   7.4564   7.5029   7.5379   7.5550
     7.5677   7.5800   7.6238   7.6715   7.6765   7.7335   7.7420   7.8019
     7.8071   7.8183   7.8690   7.8700   7.9371   8.0331   8.0554   8.0581
     8.0718   8.1290   8.1339   8.1386   8.1506   8.2243   8.3035   8.3061
     8.3513   8.3967   8.4106   8.4495   8.4864   8.5212   8.5563   8.6086
     8.6386   8.6419   8.6447   8.7068   8.7252   8.7694   8.8023   8.8316
     8.8539   8.9100   8.9303   8.9513   8.9583   8.9927   8.9974   9.0020
     9.0558   9.0796   9.0938   9.1884   9.2313   9.2342   9.2664   9.2902
     9.3199   9.3267   9.3700   9.3750   9.3983   9.4059   9.4129   9.4699
     9.5164   9.6345   9.6415   9.6548   9.6836   9.7862   9.8422   9.8487
     9.8503   9.8827   9.9478   9.9492  10.0268  10.0295  10.0641  10.1039
    10.1210  10.1601  10.1662  10.1932  10.2004  10.2563  10.2700  10.3557
    10.3576  10.3816  10.4000  10.4976  10.5340  10.5477  10.5697  10.5870
    10.6261  10.6493  10.6595  10.6872  10.7925  10.8948  10.9535  10.9871
    11.0077  11.0267  11.0714  11.0737  11.1571  11.1856  11.1932  11.2330
    11.2398  11.3430  11.3991  11.4703  11.4755  11.4822  11.6061  11.7221
    11.8032  11.8291  11.8685  11.9142  11.9536  11.9990  12.0148  12.0284
    12.0731  12.0876  12.1041  12.1093  12.1301  12.1378  12.1520  12.2048
    12.2088  12.2104  12.2754  12.2843  12.2921  12.3042  12.3186  12.3189
    12.3293  12.3521  12.3553  12.3597  12.3874  12.4275  12.4354  12.4935
    12.4992  12.5132  12.5609  12.5840  12.6111  12.6467  12.6624  12.7109
    12.7528  12.7573  12.7756  12.7880  12.7963  12.9067  12.9283  12.9448
    12.9556  12.9849  13.0092  13.0234  13.0919  13.1243  13.1353  13.1891
    13.1945  13.2075  13.2387  13.2570  13.2950  13.3284  13.3415  13.3532
    13.3544  13.3668  13.4395  13.4705  13.5534  13.5835  13.5930  13.6104
    13.6653  13.7887  13.8273  13.8663  13.8685  13.8897  13.9090  13.9433
    13.9598  13.9675  13.9915  14.0284  14.0301  14.1211  14.1519  14.1767
    14.3306  14.3371  14.3448  14.3766  14.4235  14.4935  14.5370  14.5660
    14.6320  14.6448  14.7086  14.7420  14.7570  14.7997  14.8205  14.9629
    14.9879  15.0139  15.0863  15.1925  15.2131  15.2847  15.2888  15.2967
    15.3026  15.3905  15.4367  15.4480  15.4954  15.5087  15.5213  15.5840
    15.5856  15.5908  15.5916  15.6224  15.6482  15.6614  15.6745  15.6801
    15.6814  15.7098  15.7634  15.8100

          k = 0.0000 0.0000 0.0657 ( 66210 PWs)   bands (ev):

   -20.1431 -20.0946 -20.0222 -19.9254 -19.8009 -19.6486 -19.4706 -19.2676
   -19.0392 -18.7852 -18.5058 -18.1974 -17.8668 -17.5944 -17.5518 -17.5141
   -17.4779 -17.3813 -17.2715 -17.1384 -17.1207 -16.9450 -16.7919 -16.7096
   -16.5488 -16.3316 -16.3037 -16.0382 -15.9288 -15.7489 -15.5475 -15.4417
   -15.2387 -15.1493 -15.0574 -13.9262 -13.9092 -13.6145 -13.6075 -13.2217
   -13.1905 -12.7913 -12.7247 -12.3323 -12.2517 -11.8550 -11.8097 -11.4468
[...]
     0.7788   0.8954   1.0268   1.2134   1.3736   1.6173   1.7848   2.0797
     2.2337   2.5791   2.6981   3.0979   3.1554   3.4523   3.5669   3.5746
     3.6344   3.6409   3.7061   3.7814   3.9196   3.9763   4.0506   4.1554
     4.2472   4.3283   4.3681   4.4445   4.4919   4.6007   4.6297   4.6517
     4.6656   4.7086   4.7472   4.8643   4.8724   4.8826   4.9378   5.0198
     5.0525   5.1131   5.1431   5.2014   5.2151   5.2259   5.2285   5.2617
     5.2854   5.3369   5.3639   5.3897   5.4084   5.4856   5.5471   5.5757
     5.6537   5.6539   5.6932   5.7867   5.8792   5.9036   5.9595   5.9621
     6.0164   6.1009   6.1428   6.1979   6.2225   6.2319   6.3171   6.3315
     6.3928   6.4026   6.4060   6.4097   6.4445   6.4526   6.4572   6.4671
     6.4680   6.5031   6.5373   6.5377   6.5432   6.6073   6.6286   6.6454
     6.6483   6.6699   6.6716   6.7773   6.7877   6.8174   6.8657   6.8834
     6.8870   6.9120   6.9212   6.9489   6.9569   6.9691   6.9868   6.9947
     7.0252   7.0425   7.0538   7.0761   7.1210   7.1388   7.2278   7.2569
     7.3138   7.3186   7.3246   7.3624   7.3651   7.3787   7.4217   7.4503
     7.4538   7.4813   7.5329   7.5355   7.5974   7.6032   7.6518   7.6888
     7.6947   7.7207   7.7473   7.7698   7.7809   7.8428   7.8475   7.8814
     7.9080   7.9556   7.9961   7.9971   8.0558   8.0799   8.1183   8.1976
     8.1989   8.2951   8.3344   8.3477   8.3887   8.4001   8.4137   8.4390
     8.4646   8.4853   8.5335   8.5472   8.6180   8.6500   8.6907   8.7308
     8.7417   8.8325   8.8696   8.8773   9.0039   9.0071   9.1068   9.1560
     9.1596   9.1865   9.2045   9.2461   9.3748   9.4125   9.4744   9.4928
     9.5584   9.6210   9.6485   9.6769   9.6824   9.6936   9.8383   9.8400
     9.9304   9.9866  10.0418  10.0659  10.1006  10.2454  10.2523  10.3440
    10.3724  10.3908  10.3972  10.4840  10.5501  10.5849  10.5892  10.6060
    10.6163  10.6977  10.7780  10.8113  10.9021  10.9214  10.9487  10.9733
    11.0227  11.0441  11.0527  11.0883  11.1002  11.1141  11.1346  11.1794
    11.1946  11.1949  11.1998  11.2215  11.2644  11.3212  11.3357  11.3649
    11.4119  11.4231  11.4667  11.5436  11.6921  11.6997  11.7316  11.7834
    11.7933  11.8859  11.8999  11.9029  11.9289  11.9783  11.9946  12.0094
    12.0116  12.0411  12.0541  12.0644  12.1236  12.1553  12.1601  12.1602
    12.1661  12.1781  12.1803  12.1860  12.2629  12.2912  12.3084  12.3930
    12.4655  12.4764  12.4930  12.6543  12.6548  12.7422  12.7961  12.8368
    12.8410  12.8578  12.9251  12.9387  12.9465  12.9665  12.9729  12.9799
    12.9828  12.9864  13.0483  13.0779  13.0817  13.0904  13.0926  13.1302
    13.1724  13.1789  13.1905  13.2226  13.2396  13.3074  13.3588  13.3614
    13.4523  13.4627  13.4929  13.5457  13.5690  13.5949  13.7341  13.7718
    13.8272  13.8311  13.8439  13.8622  13.8809  13.9048  13.9214  13.9807
    14.0724  14.0735  14.0796  14.1120  14.2242  14.2541  14.3043  14.3101
    14.3244  14.3639  14.4167  14.4389  14.5131  14.5583  14.5667  14.6368
    14.6488  14.7192  14.7849  14.8160  14.8269  14.8956  14.9639  14.9766
    14.9787  15.0149  15.0368  15.0540  15.0884  15.1457  15.1565  15.1570
    15.1606  15.1973  15.2299  15.2693  15.2829  15.2864  15.3921  15.4128
    15.4201  15.4556  15.4748  15.4922  15.5436  15.5478  15.5799  15.6215
    15.6572  15.6817  15.7330  15.7448

          k = 0.0000 0.0000 0.1080 ( 66280 PWs)   bands (ev):

   -19.3615 -19.3135 -19.2420 -19.1466 -19.0241 -18.8959 -18.8751 -18.8477
   -18.7781 -18.7002 -18.6836 -18.5610 -18.5051 -18.4062 -18.2902 -18.2193
   -18.0654 -17.9923 -17.8299 -17.7264 -17.5751 -17.4268 -17.2985 -17.1031
   -16.9961 -16.7594 -16.6737 -16.3997 -16.3359 -16.0328 -15.9901 -15.6817
   -15.6586 -15.4168 -15.4102 -14.2132 -14.2047 -13.8952 -13.8709 -13.4780
   -13.4396 -13.0123 -12.9629 -12.5176 -12.4600 -12.0041 -11.9404 -11.4769
   -11.4125 -10.9405 -10.8906 -10.4090 -10.3818  -9.9065  -9.8899  -9.5014
    -9.4065  -9.2086  -9.1122  -9.0452  -9.0382  -9.0260  -9.0225  -8.9021
    -8.5471  -8.2857  -8.1473  -8.1230  -8.1069  -8.0661  -8.0653  -8.0273
    -8.0008  -7.9969  -7.9806  -7.9396  -7.8781  -7.8592  -7.7777  -7.7013
    -7.6329  -7.6262  -7.5588  -7.5054  -7.4595  -7.4297  -7.4069  -7.4027
    -7.3997  -7.3957  -7.3861  -7.3814  -7.3256  -7.3142  -7.2211  -7.1849
    -7.1671  -7.0930  -7.0847  -7.0461  -7.0430  -6.9733  -6.9268  -6.8308
    -6.8203  -6.6800  -6.6664  -6.6582  -6.6265  -6.5507  -6.5454  -6.4585
    -6.4575  -6.4355  -6.3802  -6.2946  -6.2652  -6.2319  -6.1217  -6.0871
    -5.9830  -5.9735  -5.9185  -5.7238  -5.6762  -5.4644  -5.3886  -5.1914
    -5.0727  -4.9025  -4.7447  -4.5997  -4.4153  -4.2957  -4.0973  -4.0040
    -3.8107  -3.7441  -3.5834  -3.5440  -3.4462  -3.4334   0.6736   0.6762
     0.8323   0.8408   1.1127   1.1291   1.4836   1.5115   1.9131   1.9584
     2.3766   2.4464   2.8536   2.9588   3.3199   3.4801   3.5883   3.7009
     3.7649   3.7795   3.8493   3.9262   3.9895   4.0618   4.1769   4.1872
     4.2269   4.3211   4.4131   4.4239   4.4774   4.4930   4.5430   4.5708
     4.5863   4.7072   4.8418   4.8462   4.8531   4.9401   5.0013   5.0403
     5.0814   5.0916   5.2319   5.2802   5.3115   5.3450   5.3673   5.3698
     5.3801   5.4779   5.4847   5.4869   5.5403   5.5506   5.5724   5.6271
     5.6332   5.7039   5.7275   5.7295   5.7952   5.8246   5.9076   6.0090
     6.0546   6.0656   6.1019   6.1035   6.1457   6.1550   6.1588   6.2273
     6.2787   6.2957   6.3152   6.4293   6.4364   6.4448   6.4480   6.4622
     6.5100   6.5284   6.5336   6.5376   6.5579   6.5664   6.5881   6.5925
     6.6420   6.6579   6.6736   6.6764   6.7355   6.7482   6.7748   6.7871
     6.7910   6.8137   6.8576   6.9069   6.9412   6.9574   6.9603   7.0544
     7.0597   7.0985   7.1114   7.1221   7.1477   7.1477   7.1504   7.1618
     7.1984   7.2605   7.2699   7.3075   7.3129   7.3645   7.3808   7.3930
     7.4065   7.4550   7.5121   7.5667   7.5758   7.6163   7.6216   7.6584
     7.6895   7.7167   7.7204   7.7427   7.7499   7.7808   7.7829   7.7895
     7.8514   7.8924   7.9521   8.0230   8.0284   8.0508   8.1216   8.1924
     8.2532   8.2765   8.2850   8.3075   8.3314   8.3880   8.4208   8.4342
     8.4753   8.4956   8.4961   8.5384   8.6292   8.6375   8.6789   8.7285
     8.7402   8.8386   8.8844   8.8879   8.9811   8.9947   9.0286   9.0341
     9.0829   9.1505   9.2327   9.2424   9.2809   9.2957   9.4136   9.4179
     9.5350   9.5465   9.6743   9.7248   9.7499   9.7672   9.7929   9.8217
     9.8670   9.8895  10.0159  10.0740  10.2399  10.2637  10.2998  10.3572
    10.4216  10.4608  10.4798  10.4837  10.5041  10.5176  10.5195  10.5380
    10.5744  10.6751  10.8227  10.8384  10.8909  10.9038  10.9387  10.9700
    10.9966  11.0627  11.0697  11.1361  11.1718  11.1781  11.2096  11.2153
    11.2401  11.2530  11.2596  11.3160  11.3452  11.3713  11.3835  11.4443
    11.4638  11.5391  11.5760  11.5930  11.6220  11.6454  11.6549  11.7178
    11.7463  11.7488  11.7760  11.8255  11.8804  11.8852  11.9258  11.9262
    11.9307  11.9788  11.9852  12.0123  12.0471  12.0775  12.1026  12.1333
    12.1737  12.2227  12.2619  12.2895  12.3091  12.3184  12.3354  12.3994
    12.4688  12.5122  12.5166  12.5874  12.6300  12.6378  12.6948  12.7188
    12.8010  12.8266  12.8327  12.8540  12.8952  12.9414  12.9432  13.0208
    13.0461  13.0563  13.0593  13.0682  13.0775  13.1194  13.1537  13.1660
    13.2174  13.2205  13.2408  13.2440  13.3165  13.3349  13.3455  13.4813
    13.4817  13.4885  13.5769  13.5800  13.5928  13.6735  13.6769  13.7263
    13.7413  13.7458  13.7474  13.8020  13.8192  13.8700  13.9151  13.9235
    13.9259  14.0162  14.0761  14.0908  14.1614  14.2485  14.2824  14.3058
    14.3690  14.4017  14.4535  14.4648  14.4730  14.5978  14.6104  14.6388
    14.6411  14.7142  14.7456  14.8305  14.8858  14.9508  14.9868  14.9909
    15.0014  15.0034  15.0449  15.0500  15.0532  15.0601  15.1645  15.1762
    15.1787  15.2043  15.2556  15.2751  15.2972  15.3093  15.3458  15.4120
    15.4338  15.5078  15.5278  15.5323  15.5563  15.6150  15.6569  15.6667
    15.6730  15.6946  15.7185  15.7281

          k = 0.0000 0.0000 0.1127 ( 66286 PWs)   bands (ev):

   -19.2518 -19.2039 -19.1326 -19.0376 -19.0190 -18.9712 -18.9168 -18.8990
   -18.8074 -18.7646 -18.6860 -18.5904 -18.5375 -18.3895 -18.3611 -18.1643
   -18.1596 -17.9329 -17.9142 -17.6813 -17.6392 -17.4054 -17.3364 -17.1021
   -17.0126 -16.7777 -16.6706 -16.4367 -16.3140 -16.0855 -15.9533 -15.7415
   -15.6176 -15.4581 -15.3957 -14.2429 -14.1827 -13.9545 -13.8199 -13.5509
   -13.3772 -13.0900 -12.8963 -12.5967 -12.3914 -12.0838 -11.8701 -11.5569
   -11.3404 -11.0204 -10.8156 -10.4891 -10.3003  -9.9711  -9.8110  -9.4831
    -9.3788  -9.0538  -9.0526  -8.8709  -8.8098  -8.7775  -8.7670  -8.7649
    -8.6898  -8.4660  -8.3383  -8.2771  -8.2510  -8.2456  -7.9356  -7.9313
    -7.8915  -7.8821  -7.8402  -7.7839  -7.7522  -7.7239  -7.6652  -7.6121
    -7.5789  -7.5665  -7.5595  -7.5563  -7.5435  -7.5326  -7.5235  -7.5083
    -7.4996  -7.4929  -7.4889  -7.4849  -7.4429  -7.4135  -7.1928  -7.1746
    -7.0929  -7.0915  -7.0908  -7.0391  -6.9569  -6.9080  -6.8673  -6.8459
    -6.8223  -6.7687  -6.7043  -6.6867  -6.6206  -6.5968  -6.5773  -6.5314
    -6.4365  -6.3948  -6.3740  -6.3315  -6.2751  -6.2659  -6.1892  -6.1043
    -6.0769  -6.0665  -5.8523  -5.8412  -5.5913  -5.5768  -5.3191  -5.2807
    -5.0281  -4.9655  -4.7208  -4.6422  -4.4096  -4.3210  -4.1068  -4.0157
    -3.8299  -3.7481  -3.6050  -3.5480  -3.4632  -3.4429   0.6642   0.6981
     0.7934   0.8935   1.0497   1.2039   1.4086   1.5971   1.8381   2.0434
     2.3129   2.5208   2.8143   3.0102   3.3258   3.4886   3.7234   3.8257
     3.8324   3.9307   3.9460   3.9968   4.0574   4.0889   4.1668   4.2354
     4.2534   4.3053   4.3246   4.3496   4.3709   4.4008   4.5369   4.5540
     4.6710   4.7379   4.7485   4.7538   4.8709   4.9956   5.0599   5.0751
     5.1330   5.1546   5.2327   5.3062   5.3154   5.4677   5.4684   5.4804
     5.5032   5.5191   5.5263   5.5536   5.5569   5.6451   5.6604   5.6729
     5.7011   5.7057   5.7464   5.7839   5.8344   5.8576   5.9147   5.9206
     5.9758   5.9790   6.0732   6.0765   6.1055   6.1076   6.1230   6.1976
     6.2535   6.2588   6.2618   6.2881   6.3013   6.3380   6.4375   6.4379
     6.4479   6.4513   6.5134   6.5226   6.5313   6.5441   6.5729   6.6121
     6.6266   6.6416   6.6720   6.6819   6.6962   6.7233   6.7322   6.7607
     6.8018   6.8282   6.8372   6.9120   6.9307   6.9867   6.9910   6.9998
     7.0332   7.0469   7.0806   7.1036   7.1221   7.1336   7.2021   7.2262
     7.2329   7.2403   7.2640   7.2939   7.3152   7.3192   7.3554   7.3721
     7.3948   7.4057   7.4589   7.5142   7.5279   7.5636   7.5849   7.6015
     7.6221   7.6313   7.6759   7.7350   7.7785   7.7831   7.8162   7.8627
     7.9105   7.9323   7.9340   7.9942   8.0136   8.0804   8.1025   8.1152
     8.1197   8.2322   8.2438   8.2616   8.3227   8.3769   8.4098   8.4215
     8.4497   8.5697   8.5763   8.6207   8.6298   8.6445   8.7031   8.7257
     8.7450   8.8238   8.8341   8.8746   8.9273   8.9604   9.0185   9.0382
     9.0688   9.1213   9.1277   9.1845   9.2974   9.3194   9.3348   9.4385
     9.4546   9.5251   9.6094   9.6100   9.7352   9.7360   9.8248   9.9363
     9.9404   9.9698  10.0176  10.1364  10.1999  10.2546  10.2742  10.3182
    10.3236  10.3905  10.4495  10.5289  10.5347  10.5470  10.5535  10.6643
    10.6818  10.6824  10.7089  10.7721  10.8316  10.8645  10.9224  10.9845
    10.9994  11.0093  11.0211  11.1799  11.1933  11.2532  11.2876  11.3074
    11.3157  11.3457  11.3661  11.4322  11.4409  11.4534  11.4621  11.5083
    11.5102  11.5205  11.5260  11.5613  11.5979  11.6203  11.6308  11.6558
    11.6989  11.7536  11.7685  11.7899  11.7997  11.7998  11.8067  11.8136
    11.8213  11.9074  11.9896  11.9965  12.0091  12.0116  12.1169  12.2006
    12.2280  12.2787  12.2901  12.3084  12.3605  12.4041  12.4339  12.4351
    12.4611  12.4883  12.5195  12.5488  12.5649  12.5843  12.6437  12.6696
    12.6945  12.7027  12.7178  12.7346  12.7892  12.7926  12.9247  12.9311
    12.9849  13.0563  13.0564  13.0680  13.1974  13.2103  13.2632  13.2744
    13.3023  13.3052  13.3456  13.3602  13.4246  13.4544  13.4577  13.4597
    13.4654  13.5144  13.5686  13.5801  13.6047  13.6085  13.6234  13.6415
    13.6800  13.7052  13.7095  13.7469  13.7598  13.7784  13.8274  13.8584
    13.9308  14.0102  14.0122  14.1117  14.1393  14.2228  14.2478  14.3142
    14.3962  14.4514  14.4885  14.4934  14.5486  14.6064  14.6200  14.6348
    14.6362  14.7753  14.7961  14.8245  14.8335  14.8784  14.9084  14.9366
    15.0200  15.0246  15.0670  15.0814  15.0864  15.1087  15.1227  15.1544
    15.1802  15.2570  15.2723  15.2830  15.2949  15.3007  15.3259  15.4099
    15.4624  15.4779  15.5880  15.5932  15.6011  15.6140  15.6383  15.6528
    15.6877  15.7514  15.7810  15.8116

          k = 0.0000 0.0000-0.1174 ( 66308 PWs)   bands (ev):

   -19.1379 -19.1375 -19.0908 -19.0888 -19.0214 -19.0161 -18.9291 -18.9187
   -18.8108 -18.7932 -18.6682 -18.6376 -18.5030 -18.4523 -18.3083 -18.2454
   -18.0873 -18.0146 -17.8405 -17.7598 -17.5680 -17.4812 -17.2679 -17.1750
   -16.9475 -16.8469 -16.6093 -16.5018 -16.2570 -16.1456 -15.9024 -15.7935
   -15.5801 -15.4902 -15.3881 -14.2535 -14.1701 -13.9797 -13.7934 -13.5845
   -13.3456 -13.1267 -12.8632 -12.6340 -12.3576 -12.1212 -11.8357 -11.5945
   -11.3054 -11.0581 -10.7792 -10.5275 -10.2600 -10.0120  -9.7615  -9.5301
    -9.3077  -9.1137  -8.9354  -8.8147  -8.6968  -8.6403  -8.5781  -8.5557
    -8.5276  -8.5201  -8.5085  -8.5069  -8.5032  -8.5032  -7.7649  -7.7560
    -7.7445  -7.7411  -7.7335  -7.7215  -7.7119  -7.6887  -7.6778  -7.6599
    -7.6451  -7.6446  -7.6248  -7.6071  -7.5957  -7.5763  -7.5586  -7.5447
    -7.5321  -7.5267  -7.5192  -7.5151  -7.5014  -7.4242  -7.2588  -7.1365
    -7.1066  -7.1019  -6.9626  -6.9601  -6.9598  -6.9068  -6.9057  -6.8257
    -6.8230  -6.8201  -6.7165  -6.7109  -6.6732  -6.5772  -6.5672  -6.5414
    -6.4331  -6.4103  -6.3911  -6.3249  -6.2647  -6.2182  -6.1872  -6.1841
    -6.1697  -5.9961  -5.9541  -5.7482  -5.7000  -5.4767  -5.4238  -5.1847
    -5.1285  -4.8745  -4.8159  -4.5580  -4.4973  -4.2460  -4.1844  -3.9535
    -3.8933  -3.7037  -3.6489  -3.5262  -3.4828  -3.4416   0.6600   0.7160
     0.7678   0.9420   0.9953   1.2794   1.3293   1.6936   1.7394   2.1563
     2.1989   2.6471   2.6878   3.1485   3.1881   3.6388   3.6770   3.8124
     3.9150   3.9726   4.0791   4.0888   4.0901   4.1091   4.1445   4.1528
     4.1778   4.2367   4.2373   4.3695   4.3845   4.5038   4.5104   4.5481
     4.5799   4.7066   4.7094   4.8877   4.9038   4.9405   4.9667   5.1501
     5.1544   5.2185   5.2804   5.3019   5.3667   5.4001   5.4049   5.4748
     5.5435   5.5994   5.6035   5.6043   5.6424   5.6679   5.6818   5.6914
     5.6982   5.7175   5.7839   5.7893   5.7969   5.8231   5.9375   5.9476
     5.9514   6.0080   6.0861   6.0912   6.1009   6.1049   6.1147   6.1420
     6.1685   6.2179   6.2288   6.2876   6.2885   6.3468   6.4058   6.4070
     6.4109   6.4326   6.4364   6.4533   6.4558   6.5111   6.5154   6.5673
     6.6202   6.6407   6.6617   6.7781   6.7968   6.7977   6.8153   6.8222
     6.8401   6.8447   6.8464   6.8573   6.8699   6.8852   6.8938   6.9692
     6.9975   7.0438   7.0685   7.1164   7.1232   7.2064   7.2091   7.2197
     7.2339   7.2363   7.2529   7.3282   7.3328   7.3824   7.3825   7.3973
     7.4081   7.4083   7.4144   7.4427   7.4617   7.4708   7.4714   7.5862
     7.5958   7.6658   7.6840   7.7418   7.7920   7.8041   7.8153   7.9198
     7.9369   7.9399   7.9489   7.9822   8.0325   8.0599   8.0738   8.0862
     8.1498   8.1539   8.2016   8.2348   8.2557   8.3268   8.4780   8.4861
     8.5030   8.5536   8.5821   8.6016   8.6569   8.6597   8.7147   8.7322
     8.7549   8.7893   8.8072   8.8852   8.9330   8.9432   8.9975   9.0062
     9.0548   9.1166   9.1648   9.2020   9.2068   9.2516   9.4117   9.4351
     9.4679   9.5702   9.5722   9.5842   9.5863   9.6945   9.9454   9.9507
    10.0047  10.0497  10.0713  10.1301  10.1404  10.1754  10.2167  10.2846
    10.3279  10.3332  10.5194  10.5285  10.5485  10.5941  10.5971  10.6725
    10.6840  10.7025  10.7432  10.7691  10.8138  10.8183  10.8259  10.8607
    10.9784  11.1009  11.1254  11.1902  11.2025  11.2088  11.3234  11.3324
    11.3577  11.4136  11.4173  11.4484  11.4543  11.4871  11.4922  11.4997
    11.5266  11.5404  11.5701  11.5761  11.6279  11.6326  11.6337  11.6408
    11.6600  11.6609  11.6716  11.7282  11.7291  11.7582  11.7770  11.8143
    11.8191  11.8765  11.8862  12.0553  12.0989  12.1131  12.1419  12.1814
    12.2186  12.2399  12.3074  12.3785  12.3884  12.4216  12.4363  12.4411
    12.4796  12.5153  12.5306  12.5438  12.5523  12.5840  12.5938  12.5977
    12.6250  12.6288  12.6704  12.6774  12.7054  12.8094  12.8130  12.9781
    13.0051  13.0061  13.0538  13.0621  13.2179  13.3502  13.3592  13.3737
    13.3798  13.3809  13.3895  13.3912  13.4102  13.4147  13.4747  13.4761
    13.4770  13.5030  13.5040  13.5357  13.5504  13.6051  13.6064  13.6158
    13.6304  13.6708  13.6973  13.7637  13.7713  13.7741  13.8100  13.8478
    13.8703  13.9308  14.0252  14.1413  14.1616  14.1625  14.3078  14.3337
    14.3951  14.3988  14.4171  14.5926  14.6363  14.6444  14.6462  14.6515
    14.6985  14.7051  14.7289  14.7792  14.7999  14.8190  14.9508  14.9803
    15.0039  15.0295  15.0416  15.0800  15.0919  15.1364  15.1581  15.1732
    15.1969  15.2212  15.2309  15.2744  15.3069  15.3089  15.3496  15.4076
    15.4500  15.4866  15.5059  15.5972  15.6403  15.6614  15.7000  15.7033
    15.7259  15.7567  15.7584  15.8116

     the Fermi energy is    -1.0538 ev

     Writing output data file A35.save/

     init_run     :      9.90s CPU     10.08s WALL (       1 calls)
     electrons    :   6009.59s CPU   6048.24s WALL (       1 calls)

     Called by init_run:
     wfcinit      :      0.00s CPU      0.00s WALL (       1 calls)
     potinit      :      0.59s CPU      0.65s WALL (       1 calls)
     hinit0       :      7.80s CPU      7.84s WALL (       1 calls)

     Called by electrons:
     c_bands      :   6009.57s CPU   6048.20s WALL (       1 calls)
     v_of_rho     :      0.45s CPU      0.47s WALL (       1 calls)
     newd         :      0.43s CPU      0.50s WALL (       1 calls)

     Called by c_bands:
     init_us_2    :      0.34s CPU      0.35s WALL (      26 calls)
     cegterg      :   5898.55s CPU   5933.17s WALL (     120 calls)

     Called by sum_band:

     Called by *egterg:
     h_psi        :   1188.43s CPU   1200.93s WALL (    2375 calls)
     s_psi        :    156.52s CPU    156.77s WALL (    2375 calls)
     g_psi        :      7.28s CPU      7.30s WALL (    2229 calls)
     cdiaghg      :   3193.88s CPU   3199.30s WALL (    2255 calls)

     Called by h_psi:
     h_psi:pot    :   1185.09s CPU   1195.39s WALL (    2375 calls)
     h_psi:calbec :    168.11s CPU    169.65s WALL (    2375 calls)
     vloc_psi     :    860.44s CPU    868.84s WALL (    2375 calls)
     add_vuspsi   :    156.51s CPU    156.87s WALL (    2375 calls)

     General routines
     calbec       :    168.10s CPU    169.64s WALL (    2375 calls)
     fft          :      0.37s CPU      0.40s WALL (      14 calls)
     ffts         :      0.00s CPU      0.01s WALL (       1 calls)
     fftw         :    777.36s CPU    785.03s WALL (  583494 calls)
     interpolate  :      0.03s CPU      0.04s WALL (       1 calls)
     davcio       :      0.01s CPU      2.42s WALL (      52 calls)

     Parallel routines
     fft_scatt_xy :    122.88s CPU    123.92s WALL (  583509 calls)
     fft_scatt_yz :    254.87s CPU    258.59s WALL (  583509 calls)

     PWSCF        :     1h40m CPU       40h 1m WALL

      50h

   This run was terminated on:  21: 8:10   8Apr2022            

=------------------------------------------------------------------------------=
   JOB DONE.
=------------------------------------------------------------------------------=
