
     Program PWSCF v.6.3 starts on  8Apr2022 at 19:27:30 

     This program is part of the open-source Quantum ESPRESSO suite
     for quantum simulation of materials; please cite
         "P. Giannozzi et al., J. Phys.:Condens. Matter 21 395502 (2009);
         "P. Giannozzi et al., J. Phys.:Condens. Matter 29 465901 (2017);
          URL http://www.quantum-espresso.org", 
     in publications or presentations arising from this work. More details at
     http://www.quantum-espresso.org/quote

     Parallel version (MPI), running on    16 processors
     R & G space division:  proc/nbgrp/npool/nimage =      16
     Waiting for input...
     Reading input from standard input
     Message from routine read_cards :
     DEPRECATED: no units specified in CELL_PARAMETERS card

     Current dimensions of program PWSCF are:
     Max number of different atomic species (ntypx) = 10
     Max number of k-points (npk) =  40000
     Max angular momentum in pseudopotentials (lmaxx) =  3

     Atomic positions and unit cell read from directory:
     /home/zfwang/scratch/GNRDATASET/AGNR/A36/A36.save/


     Subspace diagonalization in iterative solution of the eigenvalue problem:
     a serial algorithm will be used


     Parallelization info
     --------------------
     sticks:   dense  smooth     PW     G-vecs:    dense   smooth      PW
     Min        4698    1566    441               175916    33859    5069
     Max        4700    1568    443               175917    33860    5070
     Sum       75185   25071   7079              2814661   541747   81107



     bravais-lattice index     =            0
     lattice parameter (alat)  =       1.8897  a.u.
     unit-cell volume          =   15851.5948 (a.u.)^3
     number of atoms/cell      =           76
     number of atomic types    =            2
     number of electrons       =       292.00
     number of Kohn-Sham states=          500
     kinetic-energy cutoff     =      40.0000  Ry
     charge density cutoff     =     480.0000  Ry
     Exchange-correlation      = PBE ( 1  4  3  4 0 0)

     celldm(1)=  18.897261  celldm(2)=   5.514000  celldm(3)=   0.426000
     celldm(4)=   0.000000  celldm(5)=   0.000000  celldm(6)=   0.000000

     crystal axes: (cart. coord. in units of alat)
               a(1) = (  10.000000   0.000000   0.000000 )  
               a(2) = (   0.000000  55.140000   0.000000 )  
               a(3) = (   0.000000   0.000000   4.260000 )  

     reciprocal axes: (cart. coord. in units 2 pi/alat)
               b(1) = (  0.100000  0.000000  0.000000 )  
               b(2) = (  0.000000  0.018136  0.000000 )  
               b(3) = (  0.000000  0.000000  0.234742 )  


     PseudoPot. # 1 for C  read from file:
     /home/zfwang/hp_home/MySoftware/qe-6.3/pseudo/C.pbe-n-rrkjus_psl.0.1.UPF
     MD5 check sum: fff530ed632a789b3b184014e67dd7f1
     Pseudo is Ultrasoft + core correction, Zval =  4.0
     Generated using "atomic" code by A. Dal Corso v.5.0.2 svn rev. 9415
     Using radial grid of 1073 points,  4 beta functions with: 
                l(1) =   0
                l(2) =   0
                l(3) =   1
                l(4) =   1
     Q(r) pseudized with 0 coefficients 


     PseudoPot. # 2 for H  read from file:
     /home/zfwang/hp_home/MySoftware/qe-6.3/pseudo/H.pbe-rrkjus_psl.0.1.UPF
     MD5 check sum: e164a6907b691c6980f16942be34de84
     Pseudo is Ultrasoft, Zval =  1.0
     Generated using "atomic" code by A. Dal Corso v.5.0.2 svn rev. 9415
     Using radial grid of  929 points,  2 beta functions with: 
                l(1) =   0
                l(2) =   0
     Q(r) pseudized with 0 coefficients 


     atomic species   valence    mass     pseudopotential
        C              4.00    12.01070     C ( 1.00)
        H              1.00     1.00794     H ( 1.00)

     No symmetry found



   Cartesian axes

     site n.     atom                  positions (alat units)
         1           C   tau(   1) = (   5.0000003   6.0622456   2.8132884  )
         2           C   tau(   2) = (   4.9999997   7.2682052   3.5442602  )
         3           C   tau(   3) = (   5.0000002   6.0622438   1.4467128  )
         4           C   tau(   4) = (   4.9999998   8.4972603   2.8409135  )
         5           C   tau(   5) = (   5.0000011   9.7338012   3.5523486  )
         6           C   tau(   6) = (   4.9999997   7.2682078   0.7157408  )
         7           C   tau(   7) = (   4.9999998   8.4972584   1.4190870  )
         8           C   tau(   8) = (   5.0000031  10.9628735   2.8419774  )
         9           C   tau(   9) = (   5.0000044  12.1917755   3.5495133  )
        10           C   tau(  10) = (   5.0000012   9.7338021   0.7076521  )
        11           C   tau(  11) = (   5.0000031  10.9628735   1.4180227  )
        12           C   tau(  12) = (   5.0000037  13.4250723   2.8394139  )
        13           C   tau(  13) = (   5.0000017  14.6558289   3.5487905  )
        14           C   tau(  14) = (   5.0000044  12.1917752   0.7104866  )
        15           C   tau(  15) = (   5.0000036  13.4250732   1.4205858  )
        16           C   tau(  16) = (   4.9999994  15.8855230   2.8402456  )
        17           C   tau(  17) = (   4.9999978  17.1171372   3.5503773  )
        18           C   tau(  18) = (   5.0000017  14.6558283   0.7112091  )
        19           C   tau(  19) = (   4.9999993  15.8855238   1.4197542  )
        20           C   tau(  20) = (   4.9999976  18.3469153   2.8407624  )
        21           C   tau(  21) = (   4.9999984  19.5760205   3.5499090  )
        22           C   tau(  22) = (   4.9999975  17.1171372   0.7096223  )
        23           C   tau(  23) = (   4.9999974  18.3469149   1.4192371  )
        24           C   tau(  24) = (   4.9999992  20.8067353   2.8397792  )
        25           C   tau(  25) = (   4.9999995  22.0362329   3.5493518  )
        26           C   tau(  26) = (   4.9999981  19.5760207   0.7100908  )
        27           C   tau(  27) = (   4.9999991  20.8067348   1.4202210  )
        28           C   tau(  28) = (   4.9999993  23.2654344   2.8400318  )
        29           C   tau(  29) = (   4.9999986  24.4959896   3.5501095  )
        30           C   tau(  30) = (   4.9999995  22.0362335   0.7106483  )
        31           C   tau(  31) = (   4.9999990  23.2654340   1.4199688  )
        32           C   tau(  32) = (   4.9999981  25.7254109   2.8406136  )
        33           C   tau(  33) = (   4.9999978  26.9547393   3.5500274  )
        34           C   tau(  34) = (   4.9999985  24.4959896   0.7098913  )
        35           C   tau(  35) = (   4.9999980  25.7254114   1.4193871  )
        36           C   tau(  36) = (   4.9999977  28.1852683   2.8399728  )
        37           C   tau(  37) = (   4.9999989  29.4146013   3.5493872  )
        38           C   tau(  38) = (   4.9999976  26.9547386   0.7099727  )
        39           C   tau(  39) = (   4.9999975  28.1852688   1.4200274  )
        40           C   tau(  40) = (   5.0000007  30.6440285   2.8398911  )
        41           C   tau(  41) = (   5.0000017  31.8745915   3.5499662  )
        42           C   tau(  42) = (   4.9999986  29.4146008   0.7106129  )
        43           C   tau(  43) = (   5.0000002  30.6440289   1.4201088  )
        44           C   tau(  44) = (   5.0000022  33.1037981   2.8406501  )
        45           C   tau(  45) = (   5.0000017  34.3332987   3.5502209  )
        46           C   tau(  46) = (   5.0000016  31.8745914   0.7100333  )
        47           C   tau(  47) = (   5.0000020  33.1037979   1.4193493  )
        48           C   tau(  48) = (   5.0000007  35.5640144   2.8400905  )
        49           C   tau(  49) = (   4.9999995  36.7931163   3.5492381  )
        50           C   tau(  50) = (   5.0000016  34.3332995   0.7097783  )
        51           C   tau(  51) = (   5.0000007  35.5640137   1.4199088  )
        52           C   tau(  52) = (   4.9999985  38.0228875   2.8396206  )
        53           C   tau(  53) = (   4.9999976  39.2544917   3.5497550  )
        54           C   tau(  54) = (   4.9999995  36.7931172   0.7107613  )
        55           C   tau(  55) = (   4.9999985  38.0228870   1.4203788  )
        56           C   tau(  56) = (   4.9999973  40.4841765   2.8412078  )
        57           C   tau(  57) = (   4.9999980  41.7149253   3.5505862  )
        58           C   tau(  58) = (   4.9999978  39.2544922   0.7102452  )
        59           C   tau(  59) = (   4.9999973  40.4841757   1.4187932  )
        60           C   tau(  60) = (   4.9999996  42.9482180   2.8404888  )
        61           C   tau(  61) = (   5.0000020  44.1771113   3.5480219  )
        62           C   tau(  62) = (   4.9999978  41.7149258   0.7094147  )
        63           C   tau(  63) = (   4.9999993  42.9482174   1.4195120  )
        64           C   tau(  64) = (   5.0000035  45.4061731   2.8376545  )
        65           C   tau(  65) = (   5.0000029  46.6427037   3.5490783  )
        66           C   tau(  66) = (   5.0000015  44.1771116   0.7119789  )
        67           C   tau(  67) = (   5.0000031  45.4061735   1.4223467  )
        68           C   tau(  68) = (   5.0000013  47.8717433   2.8457438  )
        69           C   tau(  69) = (   4.9999996  49.0777118   3.5766777  )
        70           C   tau(  70) = (   5.0000029  46.6427021   0.7109226  )
        71           C   tau(  71) = (   5.0000011  47.8717463   1.4142571  )
        72           C   tau(  72) = (   4.9999995  49.0777105   0.6833229  )
        73           H   tau(  73) = (   5.0000007   5.1066394   3.3303697  )
        74           H   tau(  74) = (   5.0000006   5.1066402   0.9296312  )
        75           H   tau(  75) = (   5.0000001  50.0332945   3.0596311  )
        76           H   tau(  76) = (   4.9999990  50.0332960   1.2003687  )

     number of k points=    26  Marzari-Vanderbilt smearing, width (Ry)=  0.0100
                       cart. coord. in units 2pi/alat
        k(    1) = (   0.0000000   0.0000000   0.0000000), wk =   0.0400000
        k(    2) = (   0.0000000   0.0000000   0.0046948), wk =   0.0800000
        k(    3) = (   0.0000000   0.0000000   0.0093897), wk =   0.0800000
        k(    4) = (   0.0000000   0.0000000   0.0140845), wk =   0.0800000
        k(    5) = (   0.0000000   0.0000000   0.0187793), wk =   0.0800000
        k(    6) = (   0.0000000   0.0000000   0.0234742), wk =   0.0800000
        k(    7) = (   0.0000000   0.0000000   0.0281690), wk =   0.0800000
        k(    8) = (   0.0000000   0.0000000   0.0328638), wk =   0.0800000
        k(    9) = (   0.0000000   0.0000000   0.0375587), wk =   0.0800000
        k(   10) = (   0.0000000   0.0000000   0.0422535), wk =   0.0800000
        k(   11) = (   0.0000000   0.0000000   0.0469484), wk =   0.0800000
        k(   12) = (   0.0000000   0.0000000   0.0516432), wk =   0.0800000
        k(   13) = (   0.0000000   0.0000000   0.0563380), wk =   0.0800000
        k(   14) = (   0.0000000   0.0000000   0.0610329), wk =   0.0800000
        k(   15) = (   0.0000000   0.0000000   0.0657277), wk =   0.0800000
        k(   16) = (   0.0000000   0.0000000   0.0704225), wk =   0.0800000
        k(   17) = (   0.0000000   0.0000000   0.0751174), wk =   0.0800000
        k(   18) = (   0.0000000   0.0000000   0.0798122), wk =   0.0800000
        k(   19) = (   0.0000000   0.0000000   0.0845070), wk =   0.0800000
        k(   20) = (   0.0000000   0.0000000   0.0892019), wk =   0.0800000
        k(   21) = (   0.0000000   0.0000000   0.0938967), wk =   0.0800000
        k(   22) = (   0.0000000   0.0000000   0.0985915), wk =   0.0800000
        k(   23) = (   0.0000000   0.0000000   0.1032864), wk =   0.0800000
        k(   24) = (   0.0000000   0.0000000   0.1079812), wk =   0.0800000
        k(   25) = (   0.0000000   0.0000000   0.1126761), wk =   0.0800000
        k(   26) = (   0.0000000   0.0000000  -0.1173709), wk =   0.0400000

     Dense  grid:  2814661 G-vectors     FFT dimensions: ( 135, 729,  60)

     Smooth grid:   541747 G-vectors     FFT dimensions: (  80, 432,  36)

     Estimated max dynamical RAM per process >     701.14 MB

     Estimated total dynamical RAM >      10.96 GB

     The potential is recalculated from file :
     /home/zfwang/scratch/GNRDATASET/AGNR/A36/A36.save/charge-density.dat


     negative rho (up, down):  9.491E-05 0.000E+00
     Starting wfcs are  292 randomized atomic wfcs +  208 random wfcs

     Band Structure Calculation
     Davidson diagonalization with overlap
     c_bands:  1 eigenvalues not converged
     c_bands:  1 eigenvalues not converged
     c_bands:  1 eigenvalues not converged
     c_bands:  1 eigenvalues not converged
     c_bands:  2 eigenvalues not converged
     c_bands:  1 eigenvalues not converged
     c_bands:  1 eigenvalues not converged
     c_bands:  1 eigenvalues not converged
     c_bands:  1 eigenvalues not converged
     c_bands:  1 eigenvalues not converged
     c_bands:  1 eigenvalues not converged
     c_bands:  2 eigenvalues not converged
     c_bands:  1 eigenvalues not converged
     c_bands:  1 eigenvalues not converged
     c_bands:  1 eigenvalues not converged

     ethr =  3.42E-09,  avg # of iterations = 97.0

     total cpu time spent up to now is     6474.9 secs

     End of band structure calculation

          k = 0.0000 0.0000 0.0000 ( 67543 PWs)   bands (ev):

   -20.5933 -20.5472 -20.4781 -20.3859 -20.2674 -20.1224 -19.9524 -19.7584
   -19.5401 -19.2974 -19.0302 -18.7378 -18.4162 -18.0766 -17.7157 -17.3347
   -16.9351 -16.5188 -16.0884 -15.6475 -15.3252 -15.2840 -15.2235 -15.2015
   -15.1440 -15.0417 -14.9161 -14.7688 -14.7590 -14.6009 -14.4120 -14.3365
   -14.3141 -14.2733 -14.2159 -14.2016 -14.1372 -14.0473 -13.9693 -13.9486
   -13.9287 -13.7970 -13.7139 -13.6915 -13.6233 -13.5585 -13.4747 -13.4675
   -13.4269 -13.1260 -12.8052 -12.4649 -12.1054 -11.7275 -11.6199 -11.5841
   -11.4645 -11.3821 -11.3321 -11.1881 -11.1173 -10.9200 -10.8101 -10.8089
   -10.4925 -10.4654 -10.3775 -10.0933 -10.0507  -9.9271  -9.6971  -9.5958
    -9.4809  -9.2822  -9.1295  -9.0471  -8.8606  -8.6851  -8.6434  -8.6324
    -8.6286  -8.5517  -8.4484  -8.4425  -8.3025  -8.2399  -8.1590  -8.1318
    -8.0516  -7.9322  -7.9160  -7.7045  -7.6834  -7.6740  -7.6586  -7.5438
    -7.4491  -7.2419  -7.1906  -7.1663  -6.8564  -6.8323  -6.7131  -6.5196
    -6.4312  -6.2475  -6.1534  -6.0445  -5.8019  -5.7683  -5.6776  -5.3856
    -5.3621  -5.3360  -5.0260  -5.0099  -4.9373  -4.7527  -4.6877  -4.5208
    -4.4966  -4.4324  -4.3350  -4.2515  -4.2015  -4.1449  -4.1243  -4.0434
    -3.5817  -3.3920  -3.3382  -3.2552  -3.1424  -3.1161  -2.9977  -2.8212
    -2.6521  -2.6145  -2.3782  -2.1961  -2.1122  -1.8164  -1.7548  -1.4907
    -1.3357  -1.1334  -0.9363  -0.7342  -0.5887  -0.3195  -0.2890  -0.0380
     0.1205   0.1649   0.3225   0.4401   0.5243   0.5822   0.5851   0.6198
     0.6417   0.6511   1.0733   1.5839   1.9415   2.0623   2.0834   2.1154
     2.1636   2.2230   2.3632   2.4780   2.6659   2.6752   2.8471   3.0992
     3.2330   3.3105   3.3490   3.4585   3.5494   3.6092   3.6797   3.7526
     3.8142   3.8330   3.8542   3.9860   4.0829   4.0994   4.3377   4.3421
     4.4064   4.4388   4.5236   4.7988   4.7994   4.8001   4.8813   4.9287
     5.0009   5.0059   5.1084   5.1726   5.2181   5.2488   5.3573   5.3722
     5.4262   5.6143   5.6533   5.7043   5.8514   5.9023   5.9766   5.9943
     6.1806   6.1950   6.2138   6.4265   6.4819   6.5518   6.5772   6.5778
     6.6755   6.7941   6.7946   6.8032   7.0111   7.0163   7.1167   7.1676
     7.3307   7.3576   7.3621   7.3674   7.3742   7.3777   7.3901   7.4274
     7.4982   7.5020   7.6161   7.6374   7.7186   7.7447   7.8113   7.8357
     7.8996   7.9125   7.9230   7.9304   7.9992   8.0265   8.1069   8.1786
     8.2322   8.3201   8.3307   8.3933   8.4536   8.4744   8.5207   8.5954
     8.6398   8.6576   8.7020   8.8159   8.8779   8.9388   8.9965   9.0251
     9.0996   9.1442   9.1880   9.2314   9.3084   9.3480   9.3752   9.4470
     9.4755   9.5169   9.5789   9.5989   9.6138   9.6193   9.6273   9.6571
     9.6694   9.6808   9.6824   9.7111   9.7228   9.7505   9.7528   9.8156
     9.8443   9.8617   9.8736   9.9300  10.0119  10.0212  10.0279  10.0545
    10.0625  10.1069  10.1343  10.1528  10.1601  10.1684  10.1799  10.1809
    10.1819  10.1990  10.2158  10.2818  10.2862  10.3029  10.3470  10.3510
    10.3632  10.3687  10.3737  10.4261  10.4294  10.4989  10.5012  10.5101
    10.5284  10.5476  10.5746  10.5888  10.6646  10.6801  10.7208  10.7288
    10.7771  10.7967  10.8192  10.8741  10.9143  10.9205  10.9578  11.0013
    11.0079  11.0692  11.0717  11.0770  11.1593  11.1704  11.1829  11.2289
    11.2306  11.2559  11.2641  11.2729  11.2804  11.2841  11.2969  11.3439
    11.3549  11.3793  11.4305  11.4701  11.4705  11.4805  11.4888  11.5209
    11.5357  11.5701  11.6412  11.6440  11.6580  11.6732  11.6785  11.6820
    11.6998  11.7068  11.7167  11.7216  11.7370  11.8033  11.8038  11.8402
    11.8414  11.8470  11.8729  11.8763  11.8782  11.8871  11.8902  11.9461
    11.9561  11.9713  11.9739  11.9832  12.0150  12.0337  12.0359  12.0410
    12.0480  12.0827  12.0890  12.1474  12.1546  12.1881  12.2090  12.2222
    12.2718  12.2917  12.3082  12.3775  12.3892  12.3931  12.4003  12.4053
    12.4279  12.4519  12.4592  12.5188  12.5311  12.5345  12.5364  12.5418
    12.6106  12.6494  12.6564  12.7048  12.7690  12.7766  12.8126  12.8580
    12.8584  12.8794  12.9160  12.9217  12.9370  12.9380  12.9492  13.0670
    13.0728  13.0765  13.1008  13.2038  13.2106  13.2200  13.2988  13.3218
    13.3230  13.3605  13.3659  13.3787  13.3902  13.4169  13.4289  13.4891
    13.5238  13.6295  13.6749  13.6844  13.6933  13.7131  13.7558  13.7603
    13.8218  13.9059  13.9521  13.9572  13.9932  14.0228  14.0521  14.0539
    14.0826  14.1112  14.1398  14.1610  14.2334  14.2717  14.2852  14.2937
    14.3060  14.3604  14.3772  14.3980  14.4204  14.4996  14.5082  14.5097
    14.5439  14.6130  14.6193  14.6300  14.6895  14.7063  14.7528  14.7592
    14.7910  14.8690  14.9053  14.9178

          k = 0.0000 0.0000 0.0047 ( 67561 PWs)   bands (ev):

   -20.5909 -20.5449 -20.4758 -20.3835 -20.2651 -20.1200 -19.9500 -19.7560
   -19.5378 -19.2951 -19.0278 -18.7355 -18.4140 -18.0743 -17.7134 -17.3325
   -16.9329 -16.5167 -16.0864 -15.6458 -15.3697 -15.3283 -15.2676 -15.2016
   -15.1865 -15.0853 -14.9591 -14.8129 -14.7573 -14.6441 -14.4555 -14.3381
   -14.2662 -14.2461 -14.2260 -14.1685 -14.0906 -14.0271 -14.0029 -13.9527
   -13.8840 -13.8136 -13.7540 -13.6346 -13.5442 -13.5145 -13.4283 -13.4248
   -13.4227 -13.1412 -12.8245 -12.4855 -12.1264 -11.7488 -11.6039 -11.5668
   -11.4527 -11.3625 -11.3512 -11.1795 -11.0962 -10.9391 -10.8034 -10.7877
   -10.5115 -10.4445 -10.3711 -10.0814 -10.0616  -9.9198  -9.6829  -9.6106
    -9.4721  -9.2704  -9.1441  -9.0377  -8.8506  -8.6823  -8.6577  -8.6296
    -8.6202  -8.5488  -8.4397  -8.4388  -8.2997  -8.2338  -8.1729  -8.1290
    -8.0411  -7.9294  -7.9121  -7.7018  -7.6912  -7.6765  -7.6478  -7.5410
    -7.4464  -7.2312  -7.2031  -7.1635  -6.8537  -6.8231  -6.7251  -6.5170
    -6.4236  -6.2591  -6.1509  -6.0386  -5.8132  -5.7658  -5.6731  -5.3974
    -5.3598  -5.3323  -5.0348  -5.0103  -4.9351  -4.7571  -4.6936  -4.5262
    -4.4947  -4.4382  -4.3417  -4.2567  -4.2095  -4.1496  -4.1331  -4.0419
    -3.5807  -3.4077  -3.3541  -3.2712  -3.1588  -3.1160  -3.0145  -2.8387
    -2.6535  -2.6328  -2.3979  -2.2004  -2.1341  -1.8428  -1.7655  -1.5280
    -1.3696  -1.2298  -0.8408  -0.7017  -0.5517  -0.3108  -0.2623  -0.0149
     0.1223   0.1862   0.3430   0.4601   0.5441   0.5835   0.6018   0.6393
     0.6612   0.6706   1.0699   1.5794   1.9447   2.0655   2.0866   2.1100
     2.1669   2.2262   2.3664   2.4812   2.6598   2.6785   2.8503   3.1024
     3.2264   3.3138   3.3521   3.4621   3.5533   3.6124   3.6829   3.7559
     3.8076   3.8363   3.8574   3.9893   4.0861   4.1026   4.3408   4.3453
     4.3997   4.4420   4.5269   4.8019   4.8026   4.8033   4.8845   4.9318
     4.9987   5.0041   5.1116   5.1758   5.2213   5.2522   5.3603   5.3754
     5.4294   5.6057   5.6564   5.7075   5.8536   5.9055   5.9815   5.9975
     6.1836   6.1982   6.2080   6.4295   6.4832   6.5545   6.5812   6.5817
     6.6774   6.7962   6.7967   6.7970   7.0135   7.0192   7.1196   7.1716
     7.3382   7.3487   7.3686   7.3703   7.3750   7.3774   7.3939   7.4231
     7.4958   7.5058   7.6070   7.6397   7.7148   7.7426   7.8125   7.8394
     7.9030   7.9036   7.9148   7.9230   8.0095   8.0291   8.0835   8.1792
     8.2362   8.3036   8.3292   8.3920   8.4459   8.4782   8.5162   8.5680
     8.6411   8.6655   8.7048   8.8198   8.8406   8.9307   9.0022   9.0269
     9.1020   9.1477   9.1488   9.2357   9.3099   9.3479   9.3670   9.4393
     9.4732   9.4835   9.5766   9.6066   9.6186   9.6226   9.6327   9.6594
     9.6735   9.6856   9.6867   9.7174   9.7282   9.7444   9.7561   9.7661
     9.7881   9.8077   9.8182   9.8650   9.8758   9.8892   9.9287   9.9718
    10.0299  10.0459  10.0610  10.0765  10.1478  10.1550  10.1685  10.1713
    10.1790  10.2091  10.2585  10.2734  10.3026  10.3491  10.3537  10.4039
    10.4175  10.4194  10.4316  10.4412  10.4517  10.4866  10.5102  10.5179
    10.5530  10.5754  10.5986  10.6261  10.6337  10.7062  10.7086  10.7621
    10.7698  10.7910  10.8547  10.8885  10.9141  10.9167  10.9211  10.9855
    10.9960  11.0111  11.0525  11.0724  11.0983  11.1036  11.1180  11.1252
    11.2288  11.2394  11.2421  11.2638  11.2749  11.2976  11.3039  11.3847
    11.3855  11.3929  11.4353  11.4702  11.4723  11.4739  11.4841  11.5186
    11.5367  11.5711  11.6203  11.6592  11.6663  11.6718  11.7098  11.7385
    11.7387  11.7510  11.7525  11.7857  11.7922  11.8113  11.8365  11.8396
    11.8440  11.8448  11.8773  11.8882  11.8956  11.9079  11.9131  11.9388
    11.9526  11.9533  11.9642  11.9899  12.0474  12.0617  12.0679  12.0752
    12.0824  12.1251  12.1425  12.1444  12.1507  12.1962  12.2021  12.2183
    12.2532  12.2902  12.3096  12.3642  12.3703  12.3797  12.3858  12.3967
    12.4133  12.4336  12.4647  12.4890  12.5116  12.5156  12.5588  12.5862
    12.5954  12.5974  12.6301  12.6521  12.6630  12.6984  12.7102  12.7102
    12.7777  12.8167  12.8289  12.9423  12.9534  13.0012  13.0162  13.1027
    13.1289  13.1772  13.1786  13.2256  13.2715  13.2725  13.2995  13.3040
    13.3131  13.3340  13.3598  13.3601  13.3702  13.4745  13.4806  13.5072
    13.5158  13.6342  13.6466  13.7131  13.7347  13.7532  13.7579  13.7852
    13.8542  13.9218  13.9407  13.9515  13.9897  13.9959  13.9964  14.0215
    14.0686  14.1636  14.1735  14.2214  14.2597  14.2784  14.2918  14.3058
    14.3491  14.3975  14.4151  14.4178  14.4455  14.5214  14.5237  14.5291
    14.5786  14.5978  14.6088  14.6446  14.6518  14.7462  14.7510  14.7662
    14.8052  14.8184  14.8739  14.9325

          k = 0.0000 0.0000 0.0094 ( 67585 PWs)   bands (ev):

   -20.5838 -20.5378 -20.4687 -20.3764 -20.2580 -20.1129 -19.9430 -19.7490
   -19.5308 -19.2881 -19.0209 -18.7286 -18.4071 -18.0675 -17.7067 -17.3258
   -16.9264 -16.5104 -16.0805 -15.6406 -15.4841 -15.4425 -15.3813 -15.3013
   -15.1974 -15.1964 -15.0697 -14.9235 -14.7563 -14.7545 -14.5655 -14.3730
   -14.3294 -14.1472 -14.1411 -14.1018 -14.0461 -14.0024 -13.9703 -13.9503
   -13.8718 -13.7621 -13.6385 -13.5192 -13.4348 -13.4296 -13.3947 -13.3202
   -13.3132 -13.1836 -12.8789 -12.5438 -12.1859 -11.8083 -11.5577 -11.5180
   -11.4332 -11.3890 -11.3068 -11.1553 -11.0360 -10.9914 -10.7853 -10.7272
   -10.5623 -10.3865 -10.3544 -10.1193 -10.0187  -9.9014  -9.6696  -9.6233
    -9.4503  -9.2394  -9.1800  -9.0138  -8.8208  -8.6971  -8.6737  -8.6211
    -8.5983  -8.5403  -8.4312  -8.4098  -8.2913  -8.2178  -8.2120  -8.1206
    -8.0099  -7.9210  -7.9012  -7.7279  -7.6934  -7.6693  -7.6170  -7.5322
    -7.4381  -7.2392  -7.2011  -7.1554  -6.8457  -6.7971  -6.7599  -6.5091
    -6.4024  -6.2925  -6.1433  -6.0223  -5.8453  -5.7585  -5.6617  -5.4289
    -5.3528  -5.3252  -5.0610  -5.0121  -4.9287  -4.7718  -4.7101  -4.5426
    -4.4891  -4.4556  -4.3619  -4.2727  -4.2331  -4.1640  -4.1594  -4.0374
    -3.5778  -3.4541  -3.4007  -3.3185  -3.2068  -3.1158  -3.0637  -2.8896
    -2.6862  -2.6578  -2.4550  -2.2138  -2.1966  -1.9169  -1.7968  -1.6256
    -1.4558  -1.3859  -0.6872  -0.6198  -0.4548  -0.2854  -0.1869   0.0514
     0.1275   0.2483   0.4029   0.5189   0.5791   0.6022   0.6596   0.6969
     0.7187   0.7281   1.0599   1.5658   1.9543   2.0751   2.0940   2.0963
     2.1765   2.2359   2.3761   2.4909   2.6419   2.6881   2.8600   3.1121
     3.2067   3.3235   3.3617   3.4727   3.5649   3.6221   3.6926   3.7656
     3.7882   3.8461   3.8671   3.9991   4.0959   4.1123   4.3496   4.3550
     4.3801   4.4516   4.5366   4.8113   4.8121   4.8130   4.8941   4.9414
     4.9773   5.0137   5.1211   5.1855   5.2310   5.2625   5.3692   5.3851
     5.4388   5.5808   5.6658   5.7168   5.8601   5.9151   5.9957   6.0071
     6.1911   6.1926   6.2077   6.4383   6.4874   6.5626   6.5931   6.5931
     6.6832   6.7755   6.8038   6.8048   7.0209   7.0281   7.1283   7.1835
     7.3438   7.3484   7.3581   7.3735   7.3821   7.3951   7.4052   7.4162
     7.4820   7.5203   7.5866   7.6464   7.6825   7.7574   7.8103   7.8500
     7.8588   7.9014   7.9155   7.9215   8.0208   8.0304   8.0369   8.1829
     8.2289   8.2482   8.3455   8.3924   8.4230   8.4603   8.4897   8.5441
     8.6374   8.6721   8.7130   8.7592   8.8314   8.9066   8.9781   9.0218
     9.0858   9.1090   9.1626   9.2486   9.2659   9.3426   9.3469   9.3868
     9.4642   9.4643   9.4688   9.5135   9.5656   9.5782   9.5959   9.6309
     9.6320   9.6487   9.6655   9.6838   9.6989   9.6998   9.7005   9.7206
     9.7229   9.7358   9.7520   9.7644   9.7664   9.8684   9.8745   9.8818
     9.9239   9.9623  10.0041  10.0202  10.0356  10.1184  10.1385  10.1591
    10.1758  10.1798  10.1936  10.2481  10.2588  10.2704  10.2963  10.3234
    10.3542  10.3916  10.4354  10.4448  10.4882  10.5428  10.5612  10.5775
    10.5999  10.6188  10.6428  10.6624  10.6992  10.7166  10.7561  10.7726
    10.7963  10.8137  10.8287  10.8488  10.8519  10.8669  10.8688  10.8913
    10.9302  10.9508  10.9903  11.0134  11.0480  11.0818  11.0905  11.1496
    11.1567  11.2288  11.2599  11.2666  11.2916  11.3188  11.3479  11.3697
    11.4297  11.4352  11.4504  11.4840  11.4936  11.5018  11.5510  11.5751
    11.5761  11.5778  11.6075  11.6432  11.6743  11.6768  11.6845  11.6979
    11.7358  11.7554  11.7831  11.7866  11.8058  11.8259  11.8348  11.8647
    11.8902  11.8976  11.9221  11.9388  11.9429  11.9628  11.9705  11.9764
    12.0160  12.0634  12.0895  12.0990  12.1054  12.1099  12.1282  12.1296
    12.1337  12.1552  12.1693  12.2012  12.2090  12.2169  12.2285  12.2421
    12.2456  12.2683  12.2689  12.2961  12.3231  12.3304  12.3421  12.3509
    12.3586  12.3832  12.4070  12.4095  12.4282  12.4489  12.4811  12.5001
    12.5225  12.5265  12.6285  12.6310  12.6393  12.6587  12.6747  12.6830
    12.7176  12.7840  12.7923  12.8294  12.8805  12.9813  13.0111  13.0235
    13.1064  13.1730  13.1779  13.2033  13.2434  13.3108  13.3337  13.3528
    13.3705  13.4353  13.4506  13.4614  13.4925  13.5123  13.5492  13.5684
    13.5845  13.6048  13.6561  13.6799  13.7261  13.7630  13.8648  13.8705
    13.9011  13.9039  13.9356  13.9743  13.9795  13.9889  14.0616  14.0667
    14.1487  14.2026  14.2046  14.2560  14.2922  14.3017  14.3344  14.3761
    14.4000  14.4267  14.4794  14.4981  14.5242  14.5470  14.5486  14.5599
    14.5637  14.5931  14.7021  14.7288  14.7374  14.7659  14.7759  14.7943
    14.8090  14.8283  14.8541  14.9574

          k = 0.0000 0.0000 0.0141 ( 67555 PWs)   bands (ev):

   -20.5720 -20.5259 -20.4568 -20.3646 -20.2462 -20.1012 -19.9312 -19.7373
   -19.5191 -19.2764 -19.0093 -18.7171 -18.3956 -18.0561 -17.6954 -17.3147
   -16.9155 -16.4999 -16.0706 -15.6380 -15.6318 -15.5954 -15.5332 -15.4525
   -15.3476 -15.2260 -15.1834 -15.0715 -14.9011 -14.7628 -14.7037 -14.5123
   -14.3494 -14.2953 -14.0973 -14.0724 -13.9704 -13.9316 -13.8744 -13.8004
   -13.7077 -13.5990 -13.4817 -13.4165 -13.3730 -13.3261 -13.2504 -13.2433
   -13.1923 -13.1723 -12.9601 -12.6316 -12.2754 -11.8976 -11.5052 -11.4844
   -11.4436 -11.3384 -11.2256 -11.1304 -11.0515 -10.9447 -10.7632 -10.6346
   -10.6328 -10.3354 -10.2969 -10.1876  -9.9356  -9.8812  -9.7296  -9.5542
    -9.4256  -9.2638  -9.1547  -8.9850  -8.7935  -8.7315  -8.6595  -8.6069
    -8.5705  -8.5262  -8.4171  -8.3649  -8.2772  -8.2670  -8.1959  -8.1066
    -7.9606  -7.9070  -7.8849  -7.7851  -7.6796  -7.6559  -7.5725  -7.5156
    -7.4244  -7.2950  -7.1557  -7.1418  -6.8323  -6.8143  -6.7584  -6.4961
    -6.3714  -6.3447  -6.1306  -5.9994  -5.8953  -5.7463  -5.6471  -5.4765
    -5.3412  -5.3190  -5.1033  -5.0171  -4.9180  -4.8008  -4.7339  -4.5713
    -4.4845  -4.4797  -4.3951  -4.3008  -4.2711  -4.2018  -4.1884  -4.0298
    -3.5731  -3.5285  -3.4756  -3.3941  -3.2836  -3.1426  -3.1151  -2.9706
    -2.7707  -2.6651  -2.5445  -2.2953  -2.2336  -2.0274  -1.8469  -1.7592
    -1.5704  -1.5505  -0.5267  -0.5123  -0.3222  -0.2452  -0.0743   0.1362
     0.1542   0.3461   0.4982   0.5719   0.6129   0.6957   0.7527   0.7899
     0.8116   0.8210   1.0435   1.5435   1.9703   2.0676   2.0910   2.1125
     2.1926   2.2521   2.3922   2.5071   2.6125   2.7042   2.8762   3.1281
     3.1746   3.3397   3.3777   3.4900   3.5838   3.6382   3.7085   3.7568
     3.7819   3.8623   3.8833   4.0153   4.1121   4.1283   4.3425   4.3698
     4.3711   4.4677   4.5528   4.8261   4.8280   4.8291   4.9100   4.9431
     4.9573   5.0296   5.1370   5.2015   5.2470   5.2793   5.3839   5.4012
     5.4545   5.5411   5.6813   5.7322   5.8696   5.9311   6.0178   6.0232
     6.1646   6.2075   6.2235   6.4527   6.4945   6.5753   6.6121   6.6129
     6.6926   6.7412   6.8145   6.8184   7.0332   7.0425   7.1425   7.2032
     7.3123   7.3448   7.3726   7.3911   7.3922   7.4093   7.4185   7.4238
     7.4717   7.5203   7.5787   7.6326   7.6574   7.7643   7.7792   7.8443
     7.8553   7.8780   7.9158   7.9350   7.9531   8.0394   8.0498   8.1370
     8.1898   8.2680   8.2999   8.3851   8.3951   8.4048   8.5087   8.5497
     8.5503   8.6669   8.7259   8.7276   8.8419   8.8503   8.8669   9.0116
     9.0891   9.1157   9.1372   9.1736   9.1854   9.2180   9.2687   9.2842
     9.3031   9.3399   9.3418   9.4012   9.4060   9.4620   9.5189   9.5302
     9.5833   9.6331   9.6474   9.6741   9.6760   9.6829   9.6917   9.7009
     9.7233   9.7355   9.7449   9.7625   9.7773   9.7837   9.7868   9.8328
     9.8899   9.8902   9.9145   9.9400   9.9777  10.0419  10.0427  10.0643
    10.1686  10.1893  10.1933  10.1940  10.2060  10.2360  10.2555  10.2586
    10.2680  10.3479  10.3699  10.4119  10.4305  10.4593  10.4813  10.5178
    10.5320  10.5553  10.5938  10.5993  10.6017  10.6048  10.6179  10.6186
    10.6286  10.6834  10.7771  10.7887  10.8391  10.8880  10.9262  10.9435
    10.9857  11.0093  11.0356  11.0560  11.0725  11.1371  11.1650  11.2460
    11.2570  11.2617  11.3097  11.3300  11.3345  11.3505  11.3839  11.4129
    11.4365  11.4452  11.4637  11.4768  11.4995  11.5007  11.5098  11.5573
    11.5911  11.6220  11.6329  11.6861  11.6914  11.7031  11.7055  11.7079
    11.7390  11.7694  11.7738  11.7999  11.8157  11.8526  11.8763  11.9026
    11.9090  11.9216  11.9309  11.9593  11.9659  11.9766  11.9786  11.9920
    12.0219  12.0319  12.0361  12.0897  12.1051  12.1227  12.1506  12.1566
    12.1615  12.1998  12.2057  12.2239  12.2406  12.2434  12.2711  12.2992
    12.3097  12.3248  12.3311  12.3394  12.3423  12.3593  12.3642  12.3696
    12.3727  12.3785  12.3863  12.4261  12.4297  12.4423  12.4482  12.4725
    12.5051  12.5085  12.5211  12.5520  12.5567  12.5621  12.6465  12.6675
    12.6747  12.7321  12.8180  12.8310  12.8763  12.8793  12.9172  12.9188
    13.0431  13.0697  13.1774  13.2213  13.2678  13.3137  13.3248  13.3576
    13.3682  13.3756  13.4550  13.4687  13.4689  13.5023  13.5642  13.6426
    13.7523  13.7574  13.7593  13.7966  13.8034  13.8379  13.8928  13.9053
    13.9475  13.9502  14.0016  14.0029  14.0226  14.0763  14.1394  14.1665
    14.2151  14.2728  14.2766  14.2909  14.2972  14.3838  14.4224  14.4374
    14.4508  14.4863  14.5342  14.5492  14.5950  14.6085  14.6087  14.6232
    14.6307  14.6995  14.7151  14.7369  14.7655  14.8424  14.8470  14.8631
    14.8924  14.9072  14.9191  14.9413

          k = 0.0000 0.0000 0.0188 ( 67527 PWs)   bands (ev):

   -20.5554 -20.5093 -20.4403 -20.3480 -20.2296 -20.0847 -19.9148 -19.7209
   -19.5027 -19.2601 -18.9931 -18.7009 -18.3796 -18.0402 -17.6797 -17.2992
   -16.9003 -16.4853 -16.0571 -15.8092 -15.7669 -15.7054 -15.6225 -15.6207
   -15.5153 -15.3892 -15.2374 -15.1820 -15.0629 -14.8828 -14.7460 -14.6730
   -14.4542 -14.3739 -14.2455 -14.1643 -13.7740 -13.7358 -13.6800 -13.6075
   -13.5181 -13.4128 -13.4119 -13.3283 -13.2911 -13.2510 -13.1664 -13.0974
   -13.0666 -13.0411 -13.0190 -12.7392 -12.3858 -12.0079 -11.6113 -11.3878
   -11.3558 -11.2434 -11.2037 -11.1288 -11.0104 -10.8363 -10.7806 -10.6672
   -10.5184 -10.3456 -10.2400 -10.1831  -9.8865  -9.8280  -9.7852  -9.4556
    -9.4202  -9.3228  -9.0688  -8.9646  -8.8473  -8.6712  -8.6396  -8.5870
    -8.5445  -8.5063  -8.3973  -8.3691  -8.2673  -8.2575  -8.1718  -8.0870
    -7.9098  -7.8875  -7.8643  -7.8441  -7.6602  -7.6374  -7.5286  -7.4848
    -7.4052  -7.3630  -7.1229  -7.1009  -6.8839  -6.8137  -6.7121  -6.4778
    -6.4124  -6.3351  -6.1128  -5.9739  -5.9602  -5.7291  -5.6329  -5.5385
    -5.3250  -5.3164  -5.1606  -5.0275  -4.9031  -4.8473  -4.7628  -4.6133
    -4.5246  -4.4665  -4.4411  -4.3435  -4.3221  -4.2574  -4.2230  -4.0193
    -3.6274  -3.5753  -3.5663  -3.4944  -3.3853  -3.2461  -3.1151  -3.0770
    -2.8808  -2.6775  -2.6579  -2.4186  -2.2631  -2.1628  -1.9130  -1.9120
    -1.7176  -1.6995  -0.3929  -0.3652  -0.1926  -0.1708   0.0641   0.1488
     0.2850   0.4731   0.5627   0.6234   0.7375   0.8200   0.8771   0.9144
     0.9362   0.9456   1.0213   1.5130   1.9927   2.0314   2.1134   2.1351
     2.2151   2.2747   2.4148   2.5297   2.5721   2.7267   2.8988   3.1308
     3.1506   3.3625   3.4001   3.5128   3.6098   3.6607   3.7137   3.7321
     3.8047   3.8849   3.9060   4.0379   4.1348   4.1508   4.2981   4.3910
     4.3936   4.4901   4.5755   4.8413   4.8503   4.8516   4.9020   4.9323
     4.9796   5.0519   5.1592   5.2239   5.2694   5.3024   5.4044   5.4238
     5.4764   5.4883   5.7032   5.7536   5.8787   5.9535   6.0457   6.0467
     6.1323   6.2280   6.2451   6.4719   6.5052   6.5913   6.6382   6.6403
     6.6942   6.7054   6.8278   6.8374   7.0503   7.0622   7.1618   7.2306
     7.2625   7.3510   7.3796   7.4042   7.4059   7.4109   7.4362   7.4497
     7.4711   7.5045   7.5814   7.5955   7.6718   7.6947   7.7772   7.8097
     7.8519   7.8543   7.8987   7.9602   7.9618   7.9703   8.0675   8.1028
     8.1658   8.1995   8.2949   8.3337   8.3923   8.4028   8.4065   8.5350
     8.5546   8.6606   8.6798   8.7090   8.7433   8.8120   8.8759   8.8807
     8.9192   8.9755   8.9884   9.0069   9.0927   9.1264   9.1371   9.2167
     9.2169   9.2301   9.2439   9.3010   9.3231   9.3462   9.4091   9.4305
     9.5447   9.5547   9.5891   9.6340   9.6686   9.6839   9.6964   9.7005
     9.7061   9.7064   9.7202   9.7564   9.7734   9.7883   9.8207   9.8250
     9.8256   9.8344   9.8850   9.8936   9.9004   9.9112   9.9227  10.0385
    10.0453  10.1174  10.1458  10.1549  10.1782  10.2003  10.2183  10.2197
    10.2442  10.2762  10.2955  10.3077  10.3220  10.3359  10.3459  10.3619
    10.3801  10.3812  10.3994  10.4270  10.4483  10.4923  10.5266  10.5791
    10.5929  10.6598  10.7038  10.7144  10.7693  10.7858  10.7935  10.9547
    10.9652  10.9914  11.0729  11.1095  11.1651  11.2059  11.2605  11.2638
    11.3139  11.3522  11.3668  11.3848  11.4214  11.4291  11.4387  11.4497
    11.4686  11.4859  11.5070  11.5275  11.5328  11.5376  11.5424  11.5565
    11.5893  11.6133  11.6401  11.6762  11.6764  11.6981  11.7145  11.7341
    11.7446  11.7472  11.7671  11.7968  11.7979  11.8290  11.8503  11.8724
    11.8862  11.8902  11.9057  11.9368  11.9383  11.9687  11.9883  12.0195
    12.0256  12.0437  12.0570  12.0882  12.1200  12.1224  12.1716  12.1756
    12.1847  12.2083  12.2104  12.2473  12.2591  12.2600  12.2846  12.3037
    12.3115  12.3323  12.3647  12.3871  12.3921  12.3999  12.4067  12.4203
    12.4212  12.4264  12.4660  12.4719  12.4883  12.4985  12.5344  12.5404
    12.5467  12.5526  12.5802  12.5903  12.6146  12.6196  12.6259  12.6466
    12.6614  12.6942  12.7015  12.7223  12.7532  12.7587  12.9140  12.9634
    12.9883  13.0768  13.1102  13.1459  13.1937  13.2103  13.3124  13.3285
    13.3546  13.3585  13.4224  13.4891  13.5080  13.5628  13.5868  13.6069
    13.7300  13.8056  13.8063  13.8102  13.8726  13.9018  13.9057  14.0190
    14.0544  14.0703  14.1079  14.1296  14.1520  14.2331  14.2430  14.2593
    14.3044  14.3405  14.3868  14.4242  14.4250  14.4507  14.4618  14.4862
    14.5511  14.5554  14.5591  14.6015  14.6380  14.6751  14.6830  14.7083
    14.7339  14.7614  14.8109  14.8115  14.8204  14.8251  14.8266  14.9015
    14.9047  14.9391  14.9433  14.9504

          k = 0.0000 0.0000 0.0235 ( 67539 PWs)   bands (ev):

   -20.5341 -20.4880 -20.4190 -20.3268 -20.2084 -20.0635 -19.8936 -19.6998
   -19.4817 -19.2392 -18.9722 -18.6802 -18.3590 -18.0198 -17.6595 -17.2793
   -16.8809 -16.4666 -16.0402 -15.9895 -15.9466 -15.8843 -15.8007 -15.6972
   -15.6028 -15.5648 -15.4106 -15.2488 -15.1590 -15.0513 -14.8403 -14.7520
   -14.6143 -14.4347 -14.3719 -14.2746 -13.5623 -13.5248 -13.4707 -13.4050
   -13.4027 -13.3952 -13.3093 -13.2153 -13.1708 -13.1635 -13.0953 -12.9808
   -12.9557 -12.8849 -12.8740 -12.8461 -12.5092 -12.1320 -11.7332 -11.3252
   -11.2603 -11.2565 -11.1208 -11.0482 -10.8975 -10.8811 -10.7268 -10.6058
   -10.4310 -10.3895 -10.2207 -10.0532  -9.9639  -9.7788  -9.7033  -9.4854
    -9.3392  -9.3261  -8.9964  -8.9628  -8.8787  -8.6141  -8.5774  -8.5615
    -8.5366  -8.4809  -8.4322  -8.3719  -8.2321  -8.1883  -8.1490  -8.0617
    -7.9584  -7.8624  -7.8403  -7.8024  -7.6353  -7.6139  -7.4979  -7.4794
    -7.3920  -7.3805  -7.0985  -7.0477  -6.9591  -6.7897  -6.6640  -6.4912
    -6.4543  -6.2982  -6.0899  -6.0375  -5.9498  -5.7072  -5.6223  -5.6130
    -5.3197  -5.3042  -5.2312  -5.0455  -4.9105  -4.8840  -4.7984  -4.6698
    -4.5764  -4.4996  -4.4497  -4.4053  -4.3845  -4.3207  -4.2674  -4.0059
    -3.7466  -3.6948  -3.6151  -3.5586  -3.5071  -3.3700  -3.2036  -3.1154
    -3.0108  -2.7961  -2.6882  -2.5607  -2.3143  -2.3006  -2.0749  -1.9926
    -1.8853  -1.8366  -0.2680  -0.2044  -0.1298  -0.0093   0.1653   0.2197
     0.4366   0.5519   0.6230   0.7730   0.8874   0.9705   0.9940   1.0282
     1.0660   1.0882   1.0978   1.4750   1.9861   2.0215   2.1421   2.1642
     2.2441   2.3038   2.4438   2.5215   2.5588   2.7557   2.9279   3.0761
     3.1796   3.3917   3.4288   3.5370   3.6424   3.6665   3.6896   3.7603
     3.8339   3.9140   3.9352   4.0665   4.1640   4.1797   4.2414   4.4198
     4.4226   4.5189   4.6047   4.8177   4.8788   4.8806   4.8942   4.9609
     5.0083   5.0806   5.1878   5.2527   5.2983   5.3315   5.4209   5.4333
     5.4528   5.5047   5.7312   5.7807   5.8799   5.9822   6.0745   6.0815
     6.1025   6.2539   6.2725   6.4936   6.5215   6.6089   6.6348   6.6714
     6.6752   6.7213   6.8420   6.8620   7.0722   7.0863   7.1852   7.1998
     7.2654   7.3612   7.3885   7.4073   7.4155   7.4235   7.4297   7.4595
     7.4827   7.4947   7.5420   7.6004   7.6671   7.6783   7.7162   7.7455
     7.8244   7.8499   7.8957   7.9315   7.9757   7.9949   8.0328   8.0874
     8.0895   8.2007   8.2533   8.2661   8.3322   8.3854   8.4001   8.4756
     8.5679   8.5835   8.5979   8.6098   8.6420   8.6897   8.7347   8.7428
     8.7523   8.8150   8.8565   8.9066   8.9656   8.9660   9.0108   9.1357
     9.1527   9.1737   9.1790   9.2143   9.2444   9.2561   9.3364   9.3770
     9.3917   9.5132   9.5147   9.5420   9.5936   9.6407   9.6570   9.6646
     9.6958   9.7400   9.7411   9.7473   9.7509   9.7797   9.7983   9.8115
     9.8173   9.8316   9.8421   9.8575   9.8779   9.9056   9.9104   9.9161
     9.9367  10.0158  10.0472  10.0622  10.0680  10.0695  10.0830  10.1123
    10.1160  10.1339  10.1666  10.1700  10.1770  10.2185  10.2350  10.2408
    10.2413  10.2909  10.3196  10.3568  10.4271  10.4378  10.4819  10.5026
    10.5152  10.5491  10.6222  10.6453  10.7234  10.7805  10.8114  10.8438
    10.9330  10.9548  10.9935  11.0038  11.1219  11.1841  11.2144  11.2592
    11.3118  11.3375  11.3580  11.3588  11.3752  11.3911  11.4016  11.4442
    11.4540  11.4679  11.5023  11.5144  11.5474  11.5487  11.5573  11.5615
    11.5826  11.6401  11.6722  11.6778  11.6955  11.7317  11.7423  11.7746
    11.7800  11.7900  11.8019  11.8257  11.8347  11.8477  11.8710  11.8917
    11.9024  11.9142  11.9150  11.9617  11.9834  12.0140  12.0253  12.0512
    12.0568  12.0843  12.0845  12.1311  12.1520  12.1614  12.1861  12.1863
    12.2005  12.2146  12.2592  12.2595  12.2657  12.2705  12.2943  12.3100
    12.3215  12.3409  12.3560  12.3860  12.3894  12.4298  12.4412  12.4480
    12.4710  12.4751  12.4849  12.4912  12.5232  12.5343  12.5677  12.5690
    12.5929  12.5991  12.6071  12.6230  12.6268  12.6597  12.6739  12.6786
    12.7163  12.7504  12.7805  12.8347  12.8498  12.8502  12.8754  12.9125
    12.9284  12.9988  13.0063  13.0683  13.0953  13.2393  13.2596  13.2907
    13.3755  13.3782  13.3802  13.4330  13.4707  13.5651  13.6837  13.6855
    13.7181  13.7242  13.8002  13.8386  13.8825  13.9019  13.9992  14.0110
    14.0459  14.1261  14.2374  14.2706  14.3344  14.3618  14.3853  14.4174
    14.4275  14.4532  14.4659  14.4772  14.5164  14.5514  14.5957  14.6161
    14.6201  14.6522  14.6561  14.6660  14.6750  14.6888  14.7234  14.7966
    14.7995  14.8138  14.8148  14.8327  14.8392  14.8810  14.8955  14.9202
    14.9297  14.9653  15.0033  15.0392

          k = 0.0000 0.0000 0.0282 ( 67610 PWs)   bands (ev):

   -20.5080 -20.4620 -20.3929 -20.3008 -20.1825 -20.0376 -19.8678 -19.6740
   -19.4560 -19.2136 -18.9467 -18.6549 -18.3338 -17.9948 -17.6348 -17.2550
   -16.8572 -16.4440 -16.1730 -16.1305 -16.0668 -16.0227 -15.9790 -15.8764
   -15.7436 -15.6120 -15.5633 -15.4199 -15.2239 -15.1561 -15.0064 -14.8113
   -14.7242 -14.5752 -14.4348 -14.3978 -13.4690 -13.3961 -13.3403 -13.3035
   -13.2740 -13.2485 -13.1825 -13.1110 -13.0948 -12.9962 -12.9731 -12.8947
   -12.8365 -12.7856 -12.7065 -12.7038 -12.6363 -12.2640 -11.8644 -11.4470
   -11.1488 -11.1303 -11.0165 -10.9667 -10.9562 -10.7543 -10.6503 -10.5425
   -10.4818 -10.2725 -10.1528 -10.0732  -9.9155  -9.7416  -9.5940  -9.5636
    -9.2970  -9.2124  -9.0888  -8.8583  -8.8455  -8.5958  -8.5829  -8.5303
    -8.4714  -8.4497  -8.4422  -8.3408  -8.2012  -8.1426  -8.0941  -8.0309
    -8.0309  -7.8318  -7.8144  -7.7220  -7.6049  -7.5847  -7.5624  -7.4673
    -7.3504  -7.3320  -7.0787  -7.0687  -6.9583  -6.7603  -6.6334  -6.5633
    -6.4256  -6.2665  -6.1226  -6.0620  -5.9309  -5.6977  -5.6804  -5.6183
    -5.3313  -5.3135  -5.2789  -5.0730  -4.9882  -4.8607  -4.8433  -4.7414
    -4.6403  -4.5711  -4.4893  -4.4565  -4.4293  -4.3868  -4.3212  -3.9898
    -3.8821  -3.8308  -3.7519  -3.6457  -3.5485  -3.5099  -3.3458  -3.1582
    -3.1139  -2.9455  -2.7157  -2.7057  -2.4759  -2.3466  -2.2427  -2.0849
    -2.0513  -1.9783  -0.1405  -0.0618  -0.0420   0.1570   0.1867   0.3864
     0.5404   0.6032   0.7904   0.9418   0.9624   1.0579   1.1426   1.2017
     1.2405   1.2634   1.2735   1.4304   1.9327   2.0567   2.1772   2.1998
     2.2795   2.3394   2.4617   2.4792   2.5944   2.7911   2.9635   3.0116
     3.2149   3.4274   3.4638   3.5394   3.6368   3.6812   3.7250   3.7956
     3.8693   3.9494   3.9709   4.0989   4.1770   4.1996   4.2151   4.4553
     4.4581   4.5538   4.6403   4.7515   4.9137   4.9158   4.9243   4.9960
     5.0434   5.1157   5.2228   5.2879   5.3335   5.3479   5.3660   5.4626
     5.4882   5.5393   5.7655   5.8133   5.8606   6.0171   6.0890   6.1096
     6.1219   6.2847   6.3049   6.5134   6.5475   6.5647   6.6257   6.7112
     6.7170   6.7395   6.8545   6.8918   7.0984   7.1139   7.1248   7.2105
     7.3073   7.3731   7.4005   7.4097   7.4117   7.4265   7.4292   7.4431
     7.4593   7.4998   7.5226   7.5548   7.6168   7.6681   7.7081   7.7104
     7.7527   7.8449   7.8762   7.9132   7.9716   8.0150   8.0317   8.0422
     8.1087   8.1629   8.1741   8.1905   8.3127   8.3132   8.3565   8.3742
     8.3773   8.4016   8.4281   8.4787   8.5535   8.6039   8.6182   8.6631
     8.6697   8.7033   8.7282   8.8162   8.8168   8.8789   8.9379   8.9822
     9.0296   9.0760   9.0914   9.1290   9.2072   9.2432   9.2765   9.3017
     9.3074   9.3767   9.4134   9.4842   9.5040   9.5879   9.5944   9.6174
     9.6262   9.6606   9.7190   9.7241   9.7318   9.7708   9.7729   9.7775
     9.7878   9.8053   9.8216   9.8306   9.8334   9.8416   9.8588   9.8787
     9.8901   9.9034   9.9273   9.9397   9.9442   9.9516   9.9630   9.9691
     9.9759   9.9827   9.9845   9.9972  10.0451  10.1141  10.1414  10.2354
    10.2483  10.2522  10.2549  10.3041  10.3263  10.3286  10.4248  10.4678
    10.5189  10.5465  10.5659  10.5844  10.6650  10.6797  10.6992  10.8238
    10.8920  10.9004  10.9207  11.0147  11.0276  11.0649  11.1105  11.1762
    11.1812  11.1975  11.2049  11.2178  11.2210  11.2818  11.3397  11.3775
    11.3899  11.4205  11.4274  11.4829  11.5133  11.5465  11.5513  11.5904
    11.5940  11.5955  11.6182  11.6771  11.7074  11.7473  11.7729  11.7777
    11.8070  11.8266  11.8470  11.8472  11.8878  11.9358  11.9495  11.9682
    12.0075  12.0078  12.0225  12.0355  12.0589  12.0747  12.0819  12.0906
    12.1039  12.1105  12.1704  12.1835  12.1896  12.1933  12.2021  12.2242
    12.2298  12.2337  12.2595  12.2850  12.2909  12.3246  12.3349  12.3361
    12.3545  12.3547  12.3777  12.4131  12.4383  12.4429  12.4487  12.4787
    12.4971  12.4984  12.4995  12.5153  12.5215  12.5599  12.5606  12.6012
    12.6326  12.6538  12.6615  12.6766  12.7010  12.7193  12.7275  12.7384
    12.7748  12.7888  12.7888  12.8150  12.8222  12.8336  12.8896  13.0535
    13.0579  13.0782  13.0911  13.1035  13.1222  13.1256  13.1614  13.1784
    13.2535  13.4065  13.4370  13.4604  13.4949  13.6214  13.6337  13.6373
    13.6529  13.7892  13.8132  13.8522  13.8933  13.9006  14.0775  14.0832
    14.1434  14.1829  14.2068  14.2463  14.3181  14.3662  14.3876  14.4056
    14.4846  14.5488  14.5528  14.6212  14.6669  14.6966  14.7034  14.7157
    14.7241  14.7492  14.7808  14.7821  14.8021  14.8044  14.8077  14.8244
    14.8296  14.8301  14.8807  14.9096  14.9133  14.9469  14.9637  14.9677
    14.9731  15.0101  15.0125  15.0292

          k = 0.0000 0.0000 0.0329 ( 67612 PWs)   bands (ev):

   -20.4772 -20.4312 -20.3622 -20.2701 -20.1518 -20.0070 -19.8373 -19.6436
   -19.4257 -19.1834 -18.9167 -18.6249 -18.3041 -17.9654 -17.6057 -17.2265
   -16.8295 -16.4182 -16.3570 -16.3141 -16.2497 -16.1667 -16.0573 -15.9982
   -15.9191 -15.7733 -15.5952 -15.5637 -15.3942 -15.2077 -15.1137 -14.9663
   -14.7432 -14.7314 -14.5291 -14.4989 -13.5252 -13.4391 -13.3201 -13.1463
   -13.1109 -13.0752 -13.0225 -13.0086 -12.9526 -12.8738 -12.8075 -12.7755
   -12.7117 -12.6661 -12.5918 -12.5507 -12.5230 -12.3965 -12.0005 -11.5806
   -11.1513 -11.0034 -10.9820 -10.8817 -10.8102 -10.6726 -10.5849 -10.5792
   -10.3306 -10.1961 -10.1871 -10.0279  -9.7911  -9.7045  -9.6765  -9.4281
    -9.2566  -9.2025  -9.0750  -8.8242  -8.7305  -8.6880  -8.5460  -8.4935
    -8.4150  -8.4130  -8.3603  -8.3041  -8.2015  -8.1646  -8.0429  -7.9949
    -7.9945  -7.7956  -7.7932  -7.6524  -7.6401  -7.5690  -7.5487  -7.4355
    -7.3148  -7.2591  -7.1748  -7.0336  -6.9010  -6.7258  -6.7003  -6.5496
    -6.3917  -6.2650  -6.1915  -6.0291  -5.9224  -5.7885  -5.6488  -5.6238
    -5.4056  -5.3532  -5.2491  -5.1117  -5.0787  -4.8995  -4.8333  -4.8287
    -4.7169  -4.6577  -4.5908  -4.5361  -4.4562  -4.4055  -4.3836  -4.0303
    -3.9794  -3.9713  -3.9011  -3.7960  -3.6618  -3.5391  -3.4983  -3.3136
    -3.1164  -3.1050  -2.8790  -2.7281  -2.6425  -2.4226  -2.3908  -2.2250
    -2.1779  -2.1229  -0.0120   0.0161   0.1156   0.2108   0.3277   0.5281
     0.5614   0.7804   0.9276   0.9709   1.1257   1.2449   1.3324   1.3801
     1.3937   1.4341   1.4581   1.4690   1.8720   2.0982   2.2187   2.2419
     2.3213   2.3815   2.3936   2.5211   2.6365   2.8330   2.9380   3.0055
     3.2567   3.4695   3.4868   3.5053   3.6593   3.7251   3.7668   3.8373
     3.9105   3.9913   4.0131   4.0880   4.1547   4.2416   4.2568   4.4972
     4.5000   4.5938   4.6724   4.6823   4.9547   4.9574   4.9649   5.0374
     5.0848   5.1571   5.2632   5.2641   5.3293   5.3751   5.4051   5.4989
     5.5299   5.5801   5.8059   5.8136   5.8510   6.0583   6.1007   6.1509
     6.1674   6.3195   6.3414   6.4851   6.5305   6.5832   6.6388   6.7574
     6.7585   6.7657   6.8609   6.9264   7.0385   7.1279   7.1430   7.2317
     7.3557   7.3840   7.3939   7.3953   7.3957   7.4225   7.4233   7.4390
     7.4426   7.4618   7.5007   7.5381   7.5692   7.5791   7.6219   7.6842
     7.7791   7.7918   7.8485   7.9316   8.0053   8.0150   8.0180   8.0408
     8.0486   8.0814   8.1049   8.1130   8.1274   8.1561   8.1773   8.2343
     8.2384   8.3131   8.3734   8.3816   8.4234   8.5056   8.5290   8.5557
     8.5837   8.6385   8.6603   8.6900   8.7363   8.8002   8.8481   8.8859
     8.9401   8.9517   9.0187   9.0226   9.1232   9.1254   9.2317   9.2358
     9.2519   9.2726   9.3653   9.3702   9.4093   9.4669   9.4838   9.5177
     9.5265   9.5459   9.5976   9.6162   9.6484   9.6632   9.6666   9.6741
     9.6963   9.7385   9.7455   9.7699   9.7804   9.7825   9.7857   9.8140
     9.8149   9.8164   9.8201   9.8216   9.8511   9.8921   9.9009   9.9041
     9.9305   9.9571  10.0065  10.0179  10.0210  10.0293  10.0330  10.1349
    10.1653  10.1982  10.2355  10.2550  10.2681  10.3214  10.3332  10.3743
    10.4850  10.5055  10.5365  10.5716  10.5837  10.6868  10.6925  10.7004
    10.7932  10.8045  10.8382  10.8555  10.9095  10.9231  10.9798  11.0110
    11.0383  11.0633  11.0964  11.1051  11.1080  11.1154  11.2059  11.3119
    11.3146  11.4210  11.4546  11.4595  11.4685  11.5256  11.5522  11.5728
    11.5744  11.5910  11.6263  11.6369  11.6379  11.7188  11.7610  11.7908
    11.7965  11.8190  11.8556  11.8692  11.8780  11.8866  11.9455  11.9688
    11.9800  11.9868  12.0295  12.0983  12.1129  12.1222  12.1410  12.1493
    12.1547  12.1848  12.1972  12.2040  12.2223  12.2412  12.2731  12.2737
    12.3045  12.3123  12.3381  12.3446  12.3628  12.3790  12.3932  12.4124
    12.4472  12.4504  12.4553  12.4651  12.4862  12.4890  12.5051  12.5175
    12.5321  12.5658  12.5715  12.5848  12.5854  12.5903  12.5956  12.5962
    12.6083  12.6377  12.6734  12.7229  12.7244  12.7479  12.7538  12.8024
    12.8102  12.8524  12.8850  12.8910  12.9239  12.9408  12.9504  12.9608
    12.9752  12.9985  13.0029  13.1241  13.1717  13.2300  13.2874  13.2999
    13.3884  13.4066  13.4125  13.4572  13.4657  13.5272  13.5636  13.6217
    13.7784  13.7949  13.8258  13.8921  13.9166  13.9701  14.0371  14.1167
    14.1452  14.1738  14.1780  14.2642  14.3079  14.3542  14.4293  14.4494
    14.4606  14.4770  14.5273  14.5749  14.6110  14.7240  14.7525  14.7748
    14.7956  14.8562  14.8599  14.8898  14.9035  14.9083  14.9588  14.9597
    14.9692  14.9776  14.9988  15.0108  15.0160  15.0269  15.0281  15.0349
    15.0350  15.0466  15.0850  15.0867

          k = 0.0000 0.0000 0.0376 ( 67652 PWs)   bands (ev):

   -20.4417 -20.3957 -20.3267 -20.2347 -20.1164 -19.9717 -19.8021 -19.6085
   -19.3907 -19.1486 -18.8820 -18.5904 -18.2698 -17.9315 -17.5722 -17.1936
   -16.7978 -16.5403 -16.4968 -16.4349 -16.3865 -16.3476 -16.2364 -16.1084
   -15.9636 -15.9495 -15.7681 -15.5983 -15.5114 -15.3660 -15.1306 -15.1142
   -14.8878 -14.7639 -14.6607 -14.5782 -13.5667 -13.5325 -13.3085 -13.2658
   -12.9551 -12.9271 -12.8757 -12.8402 -12.7900 -12.7244 -12.6534 -12.6173
   -12.5574 -12.5503 -12.4574 -12.4058 -12.3709 -12.3441 -12.1364 -11.7177
   -11.2801 -10.8677 -10.8559 -10.8259 -10.7113 -10.6422 -10.5246 -10.4143
   -10.3108 -10.1505 -10.1415  -9.8854  -9.8062  -9.7139  -9.5584  -9.3136
    -9.3027  -9.1964  -8.9422  -8.8104  -8.7827  -8.5923  -8.5035  -8.4510
    -8.3780  -8.3706  -8.3117  -8.2619  -8.2374  -8.1225  -8.0139  -7.9526
    -7.8973  -7.8190  -7.7539  -7.6953  -7.5672  -7.5276  -7.5028  -7.3998
    -7.2777  -7.2738  -7.1870  -6.9931  -6.8438  -6.8034  -6.6859  -6.5118
    -6.3527  -6.3471  -6.1917  -5.9912  -5.9446  -5.8658  -5.6427  -5.6124
    -5.5042  -5.3874  -5.2148  -5.1806  -5.1630  -4.9682  -4.9320  -4.8058
    -4.8019  -4.7659  -4.6990  -4.6218  -4.5308  -4.4540  -4.3782  -4.1881
    -4.1375  -4.0602  -3.9555  -3.9500  -3.8222  -3.6629  -3.5250  -3.4776
    -3.2713  -3.1210  -3.0460  -2.8202  -2.7471  -2.5900  -2.4559  -2.3913
    -2.2845  -2.2691   0.0974   0.1166   0.2408   0.2732   0.4988   0.5185
     0.7395   0.8899   0.9658   1.1612   1.3213   1.3254   1.4451   1.5365
     1.6007   1.6434   1.6690   1.6809   1.8051   2.1461   2.2665   2.2904
     2.3182   2.3695   2.4300   2.5694   2.6850   2.8566   2.8814   3.0541
     3.3050   3.4076   3.5182   3.5530   3.7063   3.7712   3.8150   3.8854
     3.9526   4.0181   4.0396   4.0617   4.1986   4.2900   4.3049   4.5455
     4.5483   4.5758   4.6479   4.7308   5.0016   5.0052   5.0123   5.0852
     5.1327   5.1700   5.2050   5.3118   5.3770   5.4231   5.4462   5.5393
     5.5779   5.6273   5.7469   5.8526   5.8930   6.1054   6.1330   6.1983
     6.2172   6.3566   6.3803   6.3986   6.5466   6.6259   6.6441   6.7765
     6.8097   6.8210   6.8549   6.9419   6.9645   7.1570   7.1700   7.2350
     7.3530   7.3551   7.3774   7.3837   7.3987   7.4013   7.4065   7.4454
     7.4516   7.4538   7.4779   7.4792   7.4828   7.5529   7.5979   7.6223
     7.6591   7.7376   7.7714   7.8174   7.8920   7.9003   7.9682   7.9720
     7.9852   7.9993   8.0497   8.0595   8.0700   8.0907   8.1213   8.1505
     8.1922   8.2313   8.2386   8.2802   8.3200   8.4475   8.4739   8.4788
     8.4802   8.5133   8.5469   8.6470   8.7098   8.7122   8.7269   8.7920
     8.8492   8.8813   8.9299   8.9761   9.0089   9.0165   9.0949   9.1109
     9.1508   9.2038   9.2641   9.2908   9.3024   9.3147   9.3269   9.3635
     9.3819   9.4258   9.4310   9.4586   9.5232   9.5237   9.5278   9.5547
     9.5821   9.6611   9.6684   9.6819   9.7020   9.7108   9.7270   9.7300
     9.7402   9.7444   9.7766   9.8037   9.8144   9.8471   9.8599   9.8630
     9.9079   9.9435   9.9778   9.9797  10.0181  10.0437  10.0440  10.0832
    10.0900  10.1325  10.1599  10.1692  10.2801  10.3391  10.3605  10.3627
    10.3801  10.4057  10.4643  10.5261  10.5347  10.5756  10.6111  10.6259
    10.6443  10.6965  10.7154  10.7520  10.7623  10.7913  10.8527  10.8740
    10.8837  10.8987  11.0258  11.0275  11.0604  11.1108  11.1198  11.1318
    11.1617  11.2677  11.4405  11.4605  11.4802  11.4905  11.4917  11.5367
    11.5805  11.5941  11.6153  11.6392  11.6849  11.6856  11.7045  11.7134
    11.7498  11.7672  11.8556  11.8627  11.8706  11.9480  11.9646  12.0037
    12.0115  12.0143  12.0290  12.0831  12.0921  12.1110  12.1180  12.1544
    12.1699  12.1810  12.1874  12.1961  12.2067  12.2292  12.2394  12.2938
    12.3016  12.3329  12.3561  12.3767  12.3890  12.4111  12.4163  12.4396
    12.4528  12.4905  12.5418  12.5460  12.5521  12.5802  12.5849  12.6231
    12.6362  12.6562  12.6675  12.6801  12.6812  12.7022  12.7184  12.7284
    12.7460  12.7625  12.7698  12.7841  12.7924  12.7962  12.7971  12.8088
    12.8221  12.8395  12.8816  12.8957  12.9427  12.9475  12.9842  12.9996
    13.0686  13.0839  13.1165  13.1358  13.2053  13.2560  13.2876  13.2934
    13.3385  13.4634  13.4698  13.4711  13.4948  13.5871  13.6312  13.6377
    13.7015  13.7356  13.9053  13.9403  13.9788  13.9966  14.0417  14.0571
    14.0954  14.1735  14.1945  14.2477  14.3065  14.3253  14.3277  14.3402
    14.4617  14.5228  14.5520  14.6690  14.6866  14.6887  14.7026  14.7656
    14.7716  14.8340  14.8632  14.9069  14.9166  14.9244  15.0036  15.0129
    15.0176  15.0185  15.0714  15.0799  15.1125  15.1161  15.1537  15.1561
    15.2005  15.2278  15.2440  15.2490

          k = 0.0000 0.0000 0.0423 ( 67640 PWs)   bands (ev):

   -20.4015 -20.3555 -20.2866 -20.1945 -20.0764 -19.9317 -19.7622 -19.5687
   -19.3511 -19.1091 -18.8427 -18.5514 -18.2311 -17.8931 -17.5344 -17.1567
   -16.7631 -16.7214 -16.6773 -16.6134 -16.5267 -16.4229 -16.3484 -16.2837
   -16.1233 -15.9757 -15.9016 -15.7552 -15.5327 -15.5041 -15.2921 -15.1207
   -15.0280 -14.8379 -14.7505 -14.6726 -13.6257 -13.5961 -13.3855 -13.2884
   -13.0548 -12.9056 -12.6784 -12.6358 -12.6014 -12.5573 -12.5390 -12.4899
   -12.4119 -12.3315 -12.2838 -12.2718 -12.2376 -12.1720 -12.1566 -11.8541
   -11.4158 -10.9650 -10.7167 -10.6737 -10.5967 -10.5231 -10.4713 -10.3464
   -10.2377 -10.1078  -9.9796  -9.9241  -9.6964  -9.6698  -9.4538  -9.3739
    -9.2273  -9.0908  -8.9136  -8.8227  -8.7265  -8.4705  -8.4554  -8.4144
    -8.4030  -8.3342  -8.3226  -8.2140  -8.1305  -8.0748  -7.9730  -7.9174
    -7.9051  -7.7972  -7.7067  -7.6680  -7.5122  -7.4807  -7.4623  -7.3604
    -7.3599  -7.2274  -7.1209  -6.9472  -6.9124  -6.7927  -6.6408  -6.4794
    -6.4549  -6.3085  -6.1813  -6.0313  -5.9484  -5.8964  -5.6857  -5.5994
    -5.5713  -5.4363  -5.2920  -5.2279  -5.1760  -5.0512  -5.0502  -4.9056
    -4.8995  -4.8061  -4.7665  -4.7126  -4.6115  -4.5314  -4.3527  -4.3480
    -4.3022  -4.2254  -4.1214  -3.9908  -3.9252  -3.8306  -3.6467  -3.5149
    -3.4397  -3.2246  -3.1186  -2.9918  -2.7784  -2.7623  -2.5573  -2.5233
    -2.4159  -2.3956   0.1825   0.2426   0.2782   0.4289   0.5111   0.6702
     0.8521   0.9212   1.1556   1.2664   1.3595   1.5257   1.6556   1.7331
     1.7521   1.8202   1.8658   1.8934   1.9065   2.2003   2.2366   2.3206
     2.3454   2.4242   2.4850   2.6242   2.7401   2.7681   2.9362   3.1091
     3.3169   3.3597   3.5733   3.6070   3.7634   3.8021   3.8696   3.9352
     3.9400   4.0239   4.0942   4.1169   4.2529   4.3448   4.3593   4.4797
     4.6000   4.6030   4.7000   4.7857   5.0476   5.0592   5.0656   5.0762
     5.1393   5.1869   5.2592   5.3659   5.4310   5.4775   5.4790   5.5822
     5.6321   5.6786   5.6808   5.9054   5.9383   6.1583   6.1790   6.2513
     6.2584   6.3207   6.3915   6.4172   6.5618   6.6369   6.6737   6.7919
     6.8296   6.8328   6.8713   6.8828   7.0027   7.1720   7.1879   7.2126
     7.3032   7.3066   7.3427   7.3493   7.3593   7.3817   7.3942   7.4141
     7.4445   7.4454   7.4805   7.4835   7.4884   7.5100   7.5327   7.5490
     7.5544   7.5614   7.6240   7.6635   7.6814   7.7487   7.8223   7.8454
     7.8599   7.8988   8.0136   8.0288   8.0918   8.1225   8.1245   8.1306
     8.1859   8.1987   8.1993   8.2406   8.2556   8.2802   8.3277   8.3474
     8.4449   8.5224   8.5349   8.5377   8.5801   8.6138   8.7182   8.7257
     8.7539   8.7572   8.8279   8.9296   8.9319   8.9462   8.9607   8.9793
     9.0129   9.0592   9.0696   9.0800   9.1110   9.1930   9.1947   9.2357
     9.2557   9.3094   9.3099   9.3394   9.3514   9.3993   9.4795   9.4877
     9.5012   9.5017   9.5278   9.5971   9.5999   9.6134   9.6408   9.6621
     9.6883   9.7451   9.7532   9.7572   9.7694   9.7846   9.7859   9.7964
     9.8678   9.9130   9.9220   9.9492   9.9834   9.9842  10.0194  10.0984
    10.1510  10.1544  10.1556  10.2310  10.2344  10.2491  10.2659  10.2934
    10.3172  10.3424  10.3834  10.4066  10.4115  10.4393  10.5054  10.5274
    10.5802  10.5825  10.5958  10.6673  10.6723  10.7025  10.7130  10.7912
    10.8265  10.8393  10.9030  10.9149  10.9651  11.0063  11.0570  11.1085
    11.1392  11.1697  11.2330  11.3174  11.3638  11.4339  11.5162  11.5167
    11.5310  11.5539  11.5960  11.6142  11.6753  11.6926  11.7198  11.7397
    11.7398  11.7781  11.8230  11.9123  11.9468  11.9667  11.9691  11.9757
    11.9960  12.0106  12.0354  12.0755  12.0759  12.0842  12.1132  12.1149
    12.1451  12.1672  12.1700  12.1965  12.2215  12.2338  12.2522  12.2748
    12.2879  12.3191  12.3721  12.3958  12.3999  12.4287  12.4408  12.4474
    12.4517  12.4845  12.5029  12.5412  12.5995  12.6049  12.6439  12.6507
    12.6605  12.6662  12.6666  12.7003  12.7100  12.7468  12.7821  12.8034
    12.8472  12.8570  12.8673  12.8783  12.8901  12.9216  12.9472  12.9624
    12.9907  12.9930  13.0012  13.0143  13.0194  13.0295  13.0482  13.1247
    13.1258  13.1296  13.1772  13.1973  13.2185  13.2552  13.2613  13.2950
    13.3312  13.4076  13.5403  13.5444  13.5484  13.5909  13.6193  13.6803
    13.7150  13.7591  13.7877  13.9358  13.9472  13.9910  14.0027  14.0331
    14.1850  14.2000  14.2220  14.2343  14.2881  14.2905  14.3601  14.3675
    14.4088  14.4480  14.5762  14.5819  14.5831  14.6737  14.7770  14.7936
    14.8156  14.8481  14.8778  14.9091  14.9537  14.9764  15.0318  15.0377
    15.0718  15.0914  15.1080  15.1322  15.1403  15.2141  15.2324  15.2685
    15.2883  15.3035  15.3168  15.3414

          k = 0.0000 0.0000 0.0469 ( 67690 PWs)   bands (ev):

   -20.3566 -20.3106 -20.2417 -20.1497 -20.0316 -19.8870 -19.7176 -19.5243
   -19.3068 -19.0650 -18.7989 -18.5078 -18.1879 -17.8504 -17.4923 -17.1159
   -16.8999 -16.8564 -16.7909 -16.7321 -16.6954 -16.5950 -16.4571 -16.3391
   -16.2733 -16.1270 -15.9222 -15.8923 -15.6952 -15.5113 -15.4227 -15.2275
   -15.0677 -14.9723 -14.7937 -14.7792 -13.7058 -13.6277 -13.4837 -13.2942
   -13.1501 -12.9039 -12.7603 -12.5062 -12.3919 -12.3689 -12.3585 -12.3103
   -12.2525 -12.1786 -12.1676 -12.0938 -12.0249 -11.9959 -11.9881 -11.9544
   -11.5512 -11.0960 -10.6423 -10.5340 -10.5295 -10.4345 -10.3285 -10.2411
   -10.1507 -10.0609  -9.9291  -9.8031  -9.6736  -9.5285  -9.4940  -9.2357
    -9.2028  -9.0317  -8.9173  -8.7542  -8.6383  -8.5025  -8.4017  -8.3641
    -8.3493  -8.2791  -8.2690  -8.1605  -8.0274  -8.0215  -8.0195  -7.9233
    -7.8521  -7.7122  -7.6540  -7.6178  -7.5395  -7.4493  -7.4284  -7.3360
    -7.3162  -7.1756  -7.0815  -7.0050  -6.8960  -6.7517  -6.5904  -6.5683
    -6.4565  -6.2592  -6.1793  -6.1439  -5.9191  -5.9006  -5.7737  -5.6702
    -5.5255  -5.5044  -5.4085  -5.3080  -5.1851  -5.1462  -5.1330  -5.0526
    -5.0150  -4.9145  -4.8082  -4.7274  -4.6981  -4.6152  -4.5220  -4.4720
    -4.3952  -4.3164  -4.2896  -4.1609  -4.0020  -3.9026  -3.8171  -3.6192
    -3.4958  -3.3973  -3.1655  -3.1259  -2.9337  -2.8141  -2.7208  -2.5998
    -2.5596  -2.5106   0.2707   0.3107   0.3781   0.5031   0.5870   0.8102
     0.8455   1.1041   1.2066   1.3493   1.5622   1.6562   1.7380   1.8742
     1.9767   2.0497   2.0988   2.1288   2.1434   2.1500   2.2608   2.3810
     2.4068   2.4852   2.5465   2.6738   2.6855   2.8016   2.9974   3.1706
     3.2184   3.4209   3.6349   3.6674   3.7589   3.8274   3.9307   3.9445
     4.0008   4.0821   4.1549   4.1785   4.3140   4.3747   4.4059   4.4213
     4.6604   4.6642   4.7603   4.8469   4.9585   5.1173   5.1192   5.1236
     5.1999   5.2475   5.3199   5.4264   5.4670   5.4910   5.5382   5.6238
     5.6504   5.6923   5.7404   5.9641   5.9844   6.1977   6.2162   6.2351
     6.3079   6.3492   6.4121   6.4406   6.5754   6.6207   6.7200   6.7234
     6.7899   6.8029   6.9342   6.9507   7.0299   7.1404   7.1837   7.1867
     7.2406   7.2582   7.2582   7.2615   7.2933   7.3151   7.3200   7.3435
     7.3518   7.4006   7.4065   7.4305   7.4498   7.4564   7.4972   7.5092
     7.5278   7.5346   7.5457   7.5870   7.6059   7.6350   7.6593   7.7279
     7.7532   7.7778   7.8243   7.9396   7.9726   8.0321   8.1281   8.1283
     8.1481   8.1724   8.2099   8.2291   8.2425   8.2839   8.2877   8.3244
     8.3483   8.4461   8.4627   8.4723   8.5606   8.6064   8.6170   8.6315
     8.6320   8.6852   8.7491   8.7646   8.7830   8.7962   8.8553   8.8584
     8.8610   8.8818   8.9870   8.9948   9.0104   9.0246   9.0448   9.0518
     9.0983   9.1290   9.2041   9.2459   9.2665   9.3042   9.3285   9.3620
     9.4188   9.4512   9.4710   9.4931   9.4994   9.5048   9.5215   9.5705
     9.6177   9.6228   9.6454   9.7263   9.7353   9.7409   9.7604   9.8111
     9.8193   9.8340   9.9122   9.9237   9.9671   9.9858  10.0082  10.0103
    10.0562  10.0632  10.1263  10.1529  10.1560  10.1945  10.2235  10.2258
    10.2580  10.2857  10.3100  10.3155  10.3544  10.3616  10.4319  10.4573
    10.4842  10.4919  10.5226  10.5938  10.6309  10.6644  10.6767  10.7162
    10.7213  10.7822  10.8085  10.8635  10.9220  10.9221  10.9296  11.0039
    11.0550  11.1740  11.1827  11.1995  11.2260  11.2949  11.3901  11.4063
    11.4783  11.5682  11.5716  11.5893  11.6825  11.7133  11.7530  11.7865
    11.7894  11.7989  11.8015  11.8821  11.8958  11.9122  11.9277  11.9822
    12.0155  12.0285  12.0418  12.0561  12.0631  12.0936  12.1135  12.1222
    12.1368  12.1627  12.1674  12.1801  12.2251  12.2323  12.2552  12.2832
    12.2927  12.3445  12.3666  12.3795  12.4041  12.4276  12.4423  12.4613
    12.4675  12.5003  12.5310  12.5597  12.5781  12.5872  12.5960  12.6606
    12.6841  12.6846  12.7207  12.7239  12.7571  12.7611  12.8016  12.8307
    12.8676  12.8854  12.9099  12.9145  12.9471  12.9618  13.0041  13.0149
    13.0228  13.0425  13.1127  13.1438  13.1469  13.1777  13.2251  13.2319
    13.2478  13.2810  13.2868  13.3033  13.3081  13.3233  13.3333  13.3909
    13.4312  13.4527  13.4720  13.5340  13.5508  13.6001  13.6064  13.6730
    13.6816  13.7558  13.8139  13.8564  13.8771  13.8845  14.0234  14.0622
    14.1761  14.2034  14.2365  14.2478  14.2679  14.3465  14.3677  14.3690
    14.4048  14.4163  14.5130  14.5912  14.6118  14.6163  14.6780  14.8518
    14.8698  14.8816  14.8910  15.0068  15.0102  15.0270  15.0339  15.0780
    15.0897  15.1204  15.1555  15.1663  15.1903  15.2198  15.2498  15.2946
    15.3474  15.3576  15.4192  15.4294

          k = 0.0000 0.0000 0.0516 ( 67754 PWs)   bands (ev):

   -20.3069 -20.2610 -20.1921 -20.1002 -19.9822 -19.8377 -19.6684 -19.4752
   -19.2579 -19.0164 -18.7505 -18.4597 -18.1402 -17.8033 -17.4462 -17.0775
   -17.0704 -17.0314 -16.9647 -16.8802 -16.7670 -16.6902 -16.6177 -16.4780
   -16.2931 -16.2688 -16.0844 -15.9040 -15.8134 -15.6387 -15.4289 -15.3780
   -15.1148 -15.0671 -14.8931 -14.8433 -13.7683 -13.6929 -13.5278 -13.3787
   -13.1593 -13.0040 -12.7396 -12.5974 -12.3339 -12.1738 -12.1443 -12.1122
   -12.0664 -12.0139 -11.9897 -11.9431 -11.8666 -11.8448 -11.7975 -11.7698
   -11.6745 -11.2289 -10.7605 -10.3926 -10.3670 -10.2865 -10.2160 -10.2135
   -10.0685  -9.9139  -9.8337  -9.7549  -9.6259  -9.4688  -9.3588  -9.2532
    -9.0768  -9.0328  -8.7821  -8.7609  -8.5974  -8.4683  -8.3424  -8.3076
    -8.2901  -8.2099  -8.2094  -8.1016  -8.0908  -7.9627  -7.9422  -7.8629
    -7.7935  -7.6395  -7.6387  -7.5958  -7.5547  -7.4008  -7.3706  -7.2727
    -7.2700  -7.1599  -7.1184  -6.9879  -6.8395  -6.7390  -6.6679  -6.5349
    -6.4461  -6.2638  -6.2049  -6.1890  -5.9513  -5.8928  -5.8480  -5.7308
    -5.6033  -5.5188  -5.4751  -5.4074  -5.3285  -5.2608  -5.2151  -5.1323
    -5.0858  -5.0265  -4.9082  -4.7901  -4.7046  -4.6947  -4.6846  -4.6445
    -4.5677  -4.4654  -4.3340  -4.2786  -4.1742  -3.9969  -3.8701  -3.7925
    -3.5713  -3.4848  -3.3378  -3.1427  -3.0956  -2.8958  -2.8412  -2.7184
    -2.6665  -2.6287   0.3558   0.3614   0.5030   0.5056   0.7403   0.7761
     1.0140   1.1431   1.2902   1.5429   1.5803   1.7689   1.9540   2.0573
     2.1012   2.2087   2.2874   2.3277   2.3406   2.3735   2.3898   2.4477
     2.4747   2.5527   2.5747   2.6145   2.7531   2.8696   3.0652   3.1138
     3.2386   3.4885   3.6633   3.7029   3.7339   3.8957   3.9981   4.0036
     4.0678   4.1493   4.2179   4.2467   4.2719   4.3814   4.4733   4.4880
     4.7244   4.7317   4.8269   4.8485   4.9144   5.1822   5.1825   5.1850
     5.2668   5.3145   5.3869   5.3942   5.4931   5.5569   5.6052   5.6559
     5.6846   5.7579   5.8060   6.0246   6.0280   6.1133   6.2764   6.2994
     6.3452   6.4109   6.4152   6.4292   6.5881   6.5988   6.6209   6.7438
     6.7912   6.7991   7.0046   7.0165   7.0211   7.0241   7.0460   7.0937
     7.1118   7.1133   7.1644   7.2022   7.2076   7.2327   7.2454   7.2586
     7.2938   7.2978   7.3566   7.3755   7.4095   7.4279   7.4455   7.4867
     7.5050   7.5346   7.5400   7.5755   7.5781   7.5967   7.6171   7.6372
     7.6448   7.6700   7.7400   7.8195   7.8309   7.9431   7.9835   7.9853
     8.0295   8.0415   8.2034   8.2371   8.2406   8.2527   8.2938   8.2973
     8.3497   8.3939   8.4676   8.4871   8.4980   8.4986   8.5294   8.5519
     8.5540   8.5544   8.6188   8.6392   8.6455   8.7006   8.7025   8.7117
     8.7637   8.7985   8.8282   8.8584   8.9032   8.9311   8.9420   8.9601
     9.0051   9.0561   9.1048   9.1112   9.1135   9.1474   9.2377   9.2822
     9.3089   9.3410   9.3600   9.3619   9.3642   9.3743   9.4681   9.4711
     9.5704   9.6027   9.6208   9.6304   9.6508   9.6634   9.7191   9.7515
     9.7588   9.7959   9.8097   9.8776   9.8806   9.8860   9.9526   9.9828
     9.9847  10.0009  10.0139  10.0341  10.0544  10.0676  10.1213  10.1404
    10.2181  10.2807  10.2813  10.2901  10.3371  10.3913  10.3918  10.4194
    10.4281  10.4585  10.5032  10.5142  10.5258  10.5781  10.6590  10.6942
    10.6944  10.7692  10.7710  10.8004  10.8280  10.8346  10.9017  10.9093
    10.9333  11.0403  11.0936  11.1730  11.1824  11.2131  11.2874  11.3056
    11.3824  11.5217  11.5682  11.6128  11.6284  11.6708  11.7437  11.7609
    11.7762  11.8151  11.8278  11.8623  11.8662  11.8990  11.9326  11.9370
    11.9479  11.9973  12.0465  12.0520  12.0667  12.0703  12.1032  12.1658
    12.1977  12.2048  12.2052  12.2106  12.2176  12.2192  12.2423  12.3089
    12.3410  12.3569  12.3702  12.4083  12.4162  12.4290  12.4526  12.4634
    12.4712  12.4774  12.5306  12.5492  12.5768  12.5884  12.5938  12.6020
    12.6142  12.7151  12.7325  12.7473  12.7664  12.7776  12.8110  12.8273
    12.8916  12.9342  12.9761  12.9817  12.9871  13.0183  13.0231  13.0588
    13.0755  13.0782  13.1295  13.1546  13.1798  13.2115  13.2801  13.2900
    13.3196  13.3465  13.3535  13.3628  13.3853  13.4592  13.4860  13.5155
    13.5274  13.5727  13.5786  13.6025  13.6147  13.6195  13.6199  13.6655
    13.6727  13.7646  13.8023  13.8120  13.8618  13.8632  14.0633  14.1144
    14.1170  14.1420  14.1707  14.1978  14.2278  14.3380  14.3398  14.3649
    14.4138  14.4476  14.4674  14.5777  14.6264  14.7047  14.7659  14.8413
    14.8527  14.9032  14.9353  14.9462  14.9870  15.0332  15.0876  15.0999
    15.1280  15.2127  15.2312  15.2405  15.2564  15.2698  15.2914  15.3486
    15.3644  15.4388  15.4392  15.4618

          k = 0.0000 0.0000 0.0563 ( 67746 PWs)   bands (ev):

   -20.2526 -20.2067 -20.1378 -20.0460 -19.9281 -19.7837 -19.6146 -19.4215
   -19.2045 -18.9631 -18.6975 -18.4072 -18.0882 -17.7520 -17.3966 -17.2476
   -17.2031 -17.1389 -17.0500 -17.0266 -16.9316 -16.8067 -16.6426 -16.6278
   -16.4543 -16.2844 -16.1913 -16.0415 -15.8005 -15.7930 -15.5289 -15.4097
   -15.2529 -15.0824 -14.9991 -14.9073 -13.8119 -13.7823 -13.5277 -13.4943
   -13.1295 -13.1293 -12.7239 -12.6914 -12.2914 -12.2661 -11.9011 -11.8938
   -11.8621 -11.8483 -11.8188 -11.7649 -11.7018 -11.6493 -11.6374 -11.5806
   -11.5787 -11.3557 -10.8891 -10.4151 -10.1995 -10.1860 -10.1073 -10.0525
    -9.9031  -9.8343  -9.8200  -9.6647  -9.4652  -9.3941  -9.3552  -9.1864
    -8.9898  -8.9206  -8.8410  -8.6377  -8.5658  -8.3477  -8.3432  -8.2775
    -8.2253  -8.1680  -8.1452  -8.0435  -8.0370  -7.8984  -7.8958  -7.8082
    -7.7295  -7.7034  -7.5779  -7.5321  -7.4884  -7.3477  -7.3075  -7.2816
    -7.2121  -7.2062  -7.0558  -6.9473  -6.8292  -6.7778  -6.6784  -6.4742
    -6.4581  -6.3793  -6.2125  -6.1456  -6.0241  -5.9962  -5.7992  -5.7905
    -5.7360  -5.6197  -5.5394  -5.4664  -5.4202  -5.4193  -5.3581  -5.2564
    -5.1426  -5.0345  -5.0123  -4.8869  -4.8684  -4.8185  -4.7987  -4.7426
    -4.6394  -4.6387  -4.5074  -4.3536  -4.2350  -4.1702  -3.9663  -3.8451
    -3.7425  -3.5223  -3.4598  -3.2800  -3.1378  -3.0533  -2.8890  -2.8631
    -2.7515  -2.7487   0.4049   0.4521   0.5093   0.6329   0.7428   0.8928
     1.0820   1.1841   1.4745   1.4963   1.7438   1.9588   1.9844   2.1741
     2.3296   2.4008   2.4437   2.4745   2.5206   2.5315   2.5491   2.5896
     2.6257   2.6266   2.6441   2.6889   2.8272   2.9441   3.0044   3.1394
     3.3131   3.5531   3.5626   3.7773   3.8068   3.9590   4.0719   4.0772
     4.1371   4.1664   4.2230   4.2998   4.3213   4.4540   4.5469   4.5617
     4.7166   4.8057   4.8128   4.8997   4.9883   5.2094   5.2541   5.2564
     5.3295   5.3401   5.3878   5.4603   5.5658   5.6284   5.6599   5.6784
     5.7447   5.8276   5.8763   6.0402   6.0542   6.0936   6.2808   6.3202
     6.3711   6.4056   6.4627   6.4726   6.4891   6.5768   6.6521   6.7178
     6.7397   6.8275   6.8444   6.8467   6.9363   6.9693   6.9723   6.9913
     7.0359   7.0808   7.1058   7.1152   7.1291   7.1332   7.1758   7.2149
     7.2683   7.2753   7.2907   7.3051   7.3241   7.3750   7.4206   7.4389
     7.4516   7.4830   7.5204   7.5350   7.5507   7.5789   7.6320   7.6322
     7.6480   7.6862   7.6870   7.6911   7.7216   7.8216   7.8445   7.8816
     7.8949   7.9757   8.0319   8.1232   8.1279   8.1950   8.2060   8.2827
     8.3083   8.3228   8.3550   8.3823   8.3884   8.3902   8.3994   8.4356
     8.4716   8.5072   8.5157   8.5896   8.6106   8.6154   8.6403   8.6956
     8.7187   8.7205   8.7342   8.7836   8.8088   8.8373   8.8670   8.8920
     8.9179   8.9739   8.9859   9.0007   9.0059   9.1273   9.1344   9.1687
     9.1721   9.1856   9.1877   9.1974   9.2948   9.3663   9.3943   9.4024
     9.4715   9.5073   9.5169   9.5345   9.5463   9.5514   9.5801   9.6361
     9.7007   9.7370   9.7593   9.7715   9.8018   9.8158   9.8682   9.8705
     9.8877   9.9491   9.9575   9.9666   9.9715  10.0571  10.0668  10.1024
    10.1411  10.1882  10.2826  10.2833  10.2961  10.2970  10.3366  10.3524
    10.4457  10.4796  10.4848  10.5058  10.5409  10.5541  10.5796  10.6210
    10.6880  10.6902  10.7010  10.7148  10.8068  10.8297  10.8567  10.9124
    10.9409  10.9518  10.9633  11.0357  11.0660  11.2062  11.2570  11.3063
    11.3534  11.3630  11.3848  11.5961  11.6085  11.6535  11.6735  11.7201
    11.7345  11.7779  11.8450  11.8650  11.8814  11.8925  11.8992  11.9312
    11.9386  12.0193  12.0384  12.0713  12.0816  12.1017  12.1174  12.1785
    12.1900  12.1970  12.2331  12.2501  12.2726  12.2777  12.2847  12.3160
    12.3186  12.3468  12.3801  12.3869  12.3934  12.4223  12.4233  12.4278
    12.4449  12.4795  12.5142  12.5653  12.5699  12.5724  12.6209  12.6294
    12.6444  12.6622  12.7078  12.7308  12.7732  12.8246  12.8610  12.8650
    12.8884  12.9291  13.0059  13.0399  13.0468  13.0580  13.0642  13.0985
    13.1011  13.1359  13.1486  13.1558  13.1565  13.2371  13.2525  13.2981
    13.3060  13.3297  13.3510  13.3970  13.4096  13.4875  13.5011  13.5043
    13.5215  13.6078  13.6294  13.7012  13.7244  13.7284  13.7767  13.8112
    13.8335  13.8420  13.8808  13.8835  13.9100  13.9107  13.9934  14.0231
    14.1256  14.1282  14.1631  14.1743  14.1982  14.3512  14.3665  14.3810
    14.3981  14.4181  14.5014  14.5641  14.6044  14.7196  14.7573  14.7698
    14.7949  14.8665  14.9076  15.0009  15.0242  15.1077  15.1132  15.1600
    15.1714  15.2062  15.2723  15.3278  15.3898  15.3979  15.4129  15.4169
    15.4310  15.4344  15.4685  15.4807

          k = 0.0000 0.0000 0.0610 ( 67728 PWs)   bands (ev):

   -20.1936 -20.1477 -20.0789 -19.9871 -19.8694 -19.7251 -19.5561 -19.3633
   -19.1464 -18.9054 -18.6401 -18.3502 -18.0318 -17.6968 -17.4162 -17.3741
   -17.3425 -17.3057 -17.2147 -17.1106 -16.9690 -16.9660 -16.8024 -16.6459
   -16.5514 -16.4270 -16.1963 -16.1660 -15.9441 -15.7778 -15.6640 -15.4424
   -15.3359 -15.1696 -15.0452 -14.9859 -13.8681 -13.8403 -13.6060 -13.5146
   -13.2497 -13.0975 -12.8438 -12.6489 -12.4073 -12.2067 -11.9560 -11.8074
   -11.6405 -11.6106 -11.5706 -11.5258 -11.5150 -11.5011 -11.4596 -11.3996
   -11.3673 -11.3662 -11.0150 -10.5346 -10.0709 -10.0354  -9.9989  -9.8906
    -9.8610  -9.7373  -9.6795  -9.5019  -9.4349  -9.3687  -9.2477  -9.0228
    -8.9514  -8.9291  -8.7572  -8.5145  -8.5010  -8.4331  -8.2229  -8.2071
    -8.1550  -8.1194  -8.0750  -7.9670  -7.9443  -7.9440  -7.8287  -7.7712
    -7.6601  -7.6593  -7.5318  -7.4631  -7.4476  -7.3546  -7.2917  -7.2389
    -7.1615  -7.1538  -6.9880  -6.9489  -6.9153  -6.7108  -6.6714  -6.5448
    -6.4378  -6.4083  -6.2545  -6.1597  -6.0813  -6.0555  -5.8887  -5.8800
    -5.7283  -5.7244  -5.7067  -5.6095  -5.5941  -5.4905  -5.3862  -5.3609
    -5.2621  -5.1198  -5.0428  -4.9946  -4.9876  -4.9780  -4.9167  -4.8968
    -4.8132  -4.6860  -4.5854  -4.5265  -4.3435  -4.2002  -4.1343  -3.9243
    -3.8062  -3.6871  -3.4535  -3.4459  -3.2124  -3.1527  -3.0078  -2.9389
    -2.8688  -2.8389   0.4587   0.5060   0.5599   0.7048   0.7685   1.0134
     1.0528   1.3514   1.4173   1.6586   1.8685   1.9418   2.1903   2.3609
     2.4011   2.4802   2.5628   2.5998   2.6300   2.6896   2.7069   2.7698
     2.7803   2.8443   2.8832   2.8928   2.9047   2.9078   3.0250   3.2200
     3.3941   3.4362   3.6432   3.8581   3.8858   3.9580   4.1258   4.1521
     4.1574   4.2232   4.3021   4.3790   4.4025   4.5226   4.6135   4.6266
     4.6417   4.8861   4.8874   4.9772   5.0682   5.1293   5.3315   5.3326
     5.3660   5.4196   5.4675   5.5401   5.6138   5.6440   5.7037   5.7573
     5.8132   5.8950   5.9353   6.0092   6.0449   6.1152   6.2198   6.3276
     6.3450   6.4445   6.4498   6.4548   6.5178   6.5383   6.5693   6.6133
     6.7087   6.7276   6.7366   6.8094   6.8282   6.8787   6.8886   6.9142
     6.9443   6.9569   7.0295   7.0576   7.0907   7.1618   7.1684   7.1697
     7.1908   7.2287   7.2411   7.2574   7.2990   7.3038   7.3350   7.3489
     7.4326   7.4446   7.4846   7.5013   7.5466   7.5471   7.5966   7.5983
     7.6559   7.6613   7.6696   7.6946   7.6952   7.7330   7.7455   7.7956
     7.8039   7.9252   7.9374   7.9754   7.9995   8.0295   8.0632   8.0837
     8.0986   8.1706   8.1875   8.2184   8.2792   8.3361   8.3781   8.3811
     8.3912   8.4039   8.4683   8.4748   8.4910   8.5597   8.5792   8.5903
     8.6135   8.6561   8.6953   8.7500   8.7635   8.8095   8.8191   8.8780
     8.9257   8.9308   8.9530   8.9674   8.9804   8.9816   9.0042   9.0288
     9.1056   9.1064   9.1120   9.1253   9.2060   9.2643   9.2801   9.3231
     9.3278   9.3572   9.3621   9.4043   9.4112   9.4726   9.5321   9.5519
     9.5549   9.5920   9.6204   9.6900   9.7706   9.7820   9.8141   9.8224
     9.8356   9.8376   9.8545   9.9138   9.9483  10.0301  10.0366  10.1141
    10.1165  10.1316  10.1768  10.2596  10.2613  10.2632  10.2878  10.3363
    10.3600  10.3740  10.3862  10.5098  10.5310  10.5681  10.5865  10.6007
    10.6517  10.6527  10.6597  10.7351  10.7698  10.7713  10.8258  10.8484
    10.9242  10.9559  11.0104  11.0231  11.0429  11.0752  11.1392  11.2061
    11.2526  11.3069  11.4236  11.4360  11.4950  11.5104  11.6245  11.6903
    11.7607  11.7731  11.7975  11.8784  11.9046  11.9238  11.9265  11.9702
    12.0016  12.0168  12.0206  12.1010  12.1102  12.1171  12.1410  12.1512
    12.1772  12.1934  12.2099  12.2138  12.2352  12.2845  12.3045  12.3227
    12.3240  12.3294  12.3421  12.3538  12.3603  12.3716  12.4338  12.4728
    12.5018  12.5049  12.5460  12.5561  12.5710  12.6135  12.6177  12.6378
    12.6455  12.6902  12.7150  12.7369  12.8044  12.8391  12.8536  12.8927
    12.8930  12.9103  12.9779  13.0126  13.0407  13.0929  13.0977  13.1085
    13.1120  13.1243  13.1689  13.2119  13.2209  13.2307  13.2403  13.2660
    13.2881  13.2970  13.3003  13.3676  13.4040  13.4630  13.5302  13.5354
    13.5721  13.6021  13.6964  13.7238  13.7320  13.7938  13.8052  13.8305
    13.9318  13.9397  13.9847  13.9894  14.0227  14.0591  14.0829  14.0887
    14.1356  14.1386  14.1824  14.2434  14.2768  14.2911  14.3993  14.4269
    14.4358  14.4440  14.4829  14.5707  14.6018  14.6050  14.6935  14.6939
    14.7708  14.8206  14.8686  15.0379  15.0744  15.0753  15.1143  15.1580
    15.2320  15.2776  15.2948  15.3749  15.4183  15.4253  15.4426  15.4745
    15.4953  15.4987  15.5069  15.5077

          k = 0.0000 0.0000 0.0657 ( 67734 PWs)   bands (ev):

[...]
    -3.4039  -3.3989   0.6689   0.6959   0.7969   0.8756   1.0468   1.1648
     1.3959   1.5327   1.8153   1.9500   2.2818   2.3972   2.7779   2.8459
     3.2831   3.2937   3.4662   3.5800   3.6475   3.6968   3.7155   3.7873
     3.8056   3.9188   4.0436   4.0743   4.2296   4.3050   4.4050   4.4092
     4.4094   4.4891   4.6140   4.6664   4.6748   4.6855   4.7537   4.7848
     4.8634   4.8863   4.9161   4.9258   5.0117   5.0692   5.1708   5.1863
     5.2013   5.2014   5.2295   5.2419   5.2607   5.3219   5.3454   5.3772
     5.3832   5.3960   5.4254   5.5733   5.6255   5.6258   5.6390   5.6466
     5.8172   5.8570   5.8845   5.9069   5.9754   6.0018   6.0870   6.1303
     6.1785   6.2210   6.2568   6.2948   6.3326   6.3584   6.3770   6.3951
     6.3997   6.4117   6.4161   6.4637   6.4784   6.4809   6.5336   6.5493
     6.5531   6.5592   6.5875   6.5914   6.6461   6.6600   6.6651   6.6722
     6.7248   6.7724   6.8047   6.8395   6.8535   6.8751   6.8778   6.9035
     6.9142   6.9254   6.9465   6.9498   6.9791   6.9850   7.0054   7.0535
     7.0619   7.0891   7.1469   7.2098   7.2170   7.2732   7.2741   7.2794
     7.3044   7.3068   7.3287   7.4260   7.4446   7.4590   7.4682   7.5044
     7.5245   7.5330   7.5571   7.5760   7.6066   7.6134   7.6579   7.6864
     7.6877   7.7252   7.7813   7.7866   7.8135   7.8666   7.8935   7.9386
     7.9579   7.9837   8.0550   8.0847   8.1201   8.1607   8.1671   8.2248
     8.2453   8.2797   8.2834   8.3525   8.3547   8.4385   8.4520   8.4541
     8.4708   8.5373   8.5459   8.5587   8.5765   8.5999   8.6797   8.7829
     8.8558   8.8835   8.9310   8.9462   8.9613   8.9949   9.0586   9.0608
     9.1352   9.2147   9.2281   9.3195   9.4029   9.4496   9.4604   9.4876
     9.5314   9.5353   9.5513   9.6716   9.7078   9.7635   9.8097   9.8588
     9.8790   9.9252  10.0018  10.1109  10.1743  10.2195  10.2693  10.2780
    10.3425  10.3735  10.4018  10.4662  10.4817  10.5795  10.6312  10.6444
    10.6464  10.6954  10.7031  10.7460  10.8102  10.8857  10.9214  10.9234
    10.9541  11.0264  11.0344  11.0474  11.0559  11.0713  11.1010  11.1271
    11.1515  11.1553  11.1823  11.2422  11.2450  11.2585  11.3877  11.4066
    11.4644  11.5091  11.5853  11.6100  11.6132  11.6433  11.7085  11.7132
    11.7456  11.7767  11.7772  11.7956  11.9109  11.9164  11.9296  11.9393
    11.9544  11.9580  11.9735  11.9885  11.9957  12.0165  12.0254  12.0527
    12.0616  12.1539  12.2077  12.2435  12.2622  12.3019  12.3594  12.4514
    12.4961  12.5127  12.6283  12.6448  12.6747  12.6782  12.6871  12.6978
    12.7203  12.7584  12.7643  12.7746  12.8440  12.8469  12.8515  12.8577
    12.9157  12.9340  12.9490  12.9816  12.9925  13.0570  13.0783  13.0795
    13.1049  13.1052  13.1336  13.1787  13.2304  13.2992  13.3177  13.3224
    13.3804  13.3940  13.4079  13.4589  13.5445  13.5673  13.5816  13.5920
    13.7102  13.7286  13.7298  13.8505  13.8602  13.8769  13.9099  13.9146
    13.9254  13.9356  13.9678  13.9966  14.0617  14.0648  14.0923  14.1123
    14.1874  14.2108  14.2305  14.2805  14.2835  14.3191  14.3745  14.4645
    14.5189  14.6089  14.6879  14.7453  14.8045  14.8088  14.8159  14.9090
    14.9205  14.9320  14.9753  14.9837  14.9878  14.9978  15.0419  15.0759
    15.0855  15.1358  15.1433  15.2011  15.2044  15.2085  15.2154  15.2445
    15.2604  15.3202  15.3690  15.3850

          k = 0.0000 0.0000 0.1080 ( 67806 PWs)   bands (ev):

   -19.3482 -19.3028 -19.2350 -19.1446 -19.0288 -18.8878 -18.8821 -18.8376
   -18.7703 -18.7236 -18.6793 -18.5746 -18.5240 -18.4294 -18.3137 -18.2611
   -18.0778 -18.0695 -17.8541 -17.8181 -17.6150 -17.5348 -17.3524 -17.2254
   -17.0657 -16.9008 -16.7525 -16.5609 -16.4242 -16.2103 -16.0841 -15.8610
   -15.7471 -15.5469 -15.4574 -15.3614 -14.2338 -14.1549 -13.9707 -13.7931
   -13.5892 -13.3612 -13.1461 -12.8954 -12.6686 -12.4069 -12.1716 -11.9018
   -11.6596 -11.3876 -11.1422 -10.8750 -10.6292 -10.3697 -10.1308  -9.8888
    -9.6613  -9.4759  -9.2345  -9.2001  -9.0618  -9.0287  -9.0207  -9.0084
    -9.0038  -8.8153  -8.4797  -8.2417  -8.1231  -8.1054  -8.0911  -8.0726
    -8.0270  -8.0083  -8.0029  -7.9687  -7.9659  -7.9479  -7.8728  -7.8332
    -7.7926  -7.7178  -7.6429  -7.5888  -7.5677  -7.5164  -7.4658  -7.4302
    -7.4018  -7.3898  -7.3825  -7.3802  -7.3783  -7.3710  -7.3463  -7.3326
    -7.2172  -7.2082  -7.1975  -7.1571  -7.0789  -7.0356  -7.0312  -6.9856
    -6.9734  -6.9422  -6.8385  -6.7286  -6.6787  -6.6748  -6.6672  -6.6168
    -6.5394  -6.4846  -6.4788  -6.4690  -6.4348  -6.3601  -6.3064  -6.2637
    -6.2410  -6.1424  -6.0696  -6.0245  -5.9614  -5.9532  -5.7609  -5.7395
    -5.5026  -5.4762  -5.2446  -5.1731  -4.9684  -4.8537  -4.6782  -4.5329
    -4.3788  -4.2178  -4.0877  -3.9240  -3.8183  -3.6740  -3.5938  -3.4958
    -3.4436  -3.4096   0.6675   0.7198   0.7708   0.9336   0.9885   1.2530
     1.3100   1.6448   1.7080   2.0807   2.1584   2.5432   2.6421   3.0058
     3.1474   3.4561   3.6026   3.6501   3.7131   3.7927   3.8586   3.8831
     3.9322   4.0598   4.1416   4.1875   4.2393   4.2741   4.3365   4.3883
     4.4372   4.5006   4.5617   4.5771   4.6117   4.6222   4.7049   4.8072
     4.8352   4.9109   5.0014   5.0341   5.0475   5.0537   5.1496   5.2056
     5.2758   5.3126   5.3510   5.3705   5.4182   5.4501   5.4519   5.4554
     5.5273   5.5339   5.5715   5.5764   5.5836   5.6188   5.6800   5.7170
     5.7601   5.7877   5.8064   5.9562   5.9944   6.0409   6.0440   6.0520
     6.1216   6.1360   6.1393   6.2116   6.2147   6.2209   6.2272   6.3712
     6.4012   6.4035   6.4528   6.4592   6.4622   6.4813   6.4959   6.5361
     6.5403   6.5420   6.5490   6.5917   6.6010   6.6484   6.6500   6.6826
     6.6968   6.7022   6.7275   6.7545   6.7860   6.7963   6.8065   6.8100
     6.8667   6.8844   6.9237   6.9678   6.9985   7.0275   7.0521   7.0601
     7.0719   7.1074   7.1101   7.1326   7.1438   7.1611   7.2168   7.2489
     7.2832   7.2935   7.3225   7.3471   7.4151   7.4477   7.4516   7.4563
     7.4935   7.5494   7.5630   7.5809   7.5954   7.6176   7.6243   7.6531
     7.6900   7.6969   7.7009   7.7086   7.7453   7.7887   7.8184   7.8438
     7.9337   7.9773   8.0719   8.0930   8.1286   8.1682   8.1850   8.2039
     8.2417   8.2594   8.2800   8.2908   8.3066   8.3350   8.3712   8.4548
     8.4854   8.5064   8.5587   8.5894   8.6308   8.6472   8.7331   8.7812
     8.8360   8.8480   8.8972   8.9220   8.9752   8.9930   9.0002   9.0215
     9.0332   9.1330   9.1814   9.2567   9.2974   9.3321   9.4435   9.4527
     9.5172   9.5428   9.6334   9.6472   9.6782   9.7250   9.7879   9.8180
     9.8994   9.9242  10.0655  10.1541  10.1747  10.2418  10.2713  10.3086
    10.3146  10.3621  10.4218  10.4526  10.4721  10.4839  10.5897  10.6182
    10.6629  10.7568  10.7593  10.8199  10.8355  10.8870  10.9041  10.9343
    10.9830  11.0089  11.0097  11.0688  11.0903  11.1165  11.1723  11.1743
    11.1931  11.1986  11.2286  11.3080  11.3615  11.3709  11.4131  11.4719
    11.4838  11.4848  11.5239  11.5823  11.6438  11.6532  11.7035  11.7184
    11.7628  11.7811  11.7891  11.8006  11.8023  11.8255  11.8373  11.8571
    11.8703  11.8706  11.9200  12.0026  12.0049  12.0358  12.0400  12.0737
    12.1126  12.1197  12.1198  12.2102  12.2464  12.3157  12.3338  12.3865
    12.3884  12.4417  12.4885  12.4994  12.5447  12.6371  12.6636  12.7026
    12.7026  12.7261  12.7564  12.7963  12.8147  12.8405  12.8549  12.9488
    12.9588  12.9675  12.9975  13.0054  13.0642  13.0689  13.0856  13.1304
    13.1946  13.2096  13.2170  13.2173  13.2750  13.2893  13.3030  13.3448
    13.3817  13.4244  13.4573  13.4864  13.4972  13.5159  13.5351  13.5895
    13.6409  13.6869  13.7111  13.7441  13.7510  13.7835  13.8299  13.8469
    13.9144  13.9263  13.9629  13.9776  14.0195  14.0751  14.1566  14.1739
    14.1955  14.2466  14.2570  14.2807  14.2880  14.2901  14.3369  14.4480
    14.5816  14.5977  14.6541  14.6929  14.7994  14.8444  14.8701  14.8902
    14.8984  14.9177  14.9393  14.9976  15.0068  15.0220  15.0599  15.0692
    15.0745  15.0912  15.1076  15.1586  15.1703  15.2644  15.2899  15.3270
    15.3473  15.3547  15.3780  15.4095

          k = 0.0000 0.0000 0.1127 ( 67774 PWs)   bands (ev):

   -19.2385 -19.1932 -19.1255 -19.0356 -19.0056 -18.9607 -18.9201 -18.8934
   -18.8036 -18.7794 -18.6883 -18.6180 -18.5425 -18.4351 -18.3683 -18.2324
   -18.1665 -18.0099 -17.9369 -17.7668 -17.6808 -17.5019 -17.3995 -17.2147
   -17.0905 -16.9042 -16.7631 -16.5792 -16.4200 -16.2405 -16.0684 -15.8988
   -15.7256 -15.5828 -15.4440 -15.3772 -14.2322 -14.1802 -13.9496 -13.8366
   -13.5543 -13.4138 -13.1037 -12.9521 -12.6222 -12.4658 -12.1224 -11.9626
   -11.6076 -11.4460 -11.0911 -10.9293 -10.5793 -10.4159 -10.0831  -9.9153
    -9.6215  -9.4464  -9.2250  -9.0576  -8.9152  -8.8527  -8.7800  -8.7604
    -8.7500  -8.7468  -8.6311  -8.4262  -8.3120  -8.2568  -8.2332  -8.2282
    -7.9213  -7.9180  -7.8878  -7.8538  -7.8405  -7.7880  -7.7306  -7.7094
    -7.6724  -7.6185  -7.5697  -7.5531  -7.5492  -7.5453  -7.5298  -7.5199
    -7.5026  -7.4998  -7.4801  -7.4800  -7.4785  -7.4747  -7.4693  -7.4538
    -7.3143  -7.2163  -7.0800  -7.0782  -7.0765  -7.0529  -7.0291  -6.9511
    -6.9256  -6.8459  -6.8094  -6.7689  -6.7588  -6.7116  -6.6813  -6.6409
    -6.5768  -6.5486  -6.5194  -6.4433  -6.4059  -6.3603  -6.3250  -6.2791
    -6.2682  -6.1712  -6.1479  -6.0864  -6.0648  -5.9145  -5.8656  -5.6638
    -5.6158  -5.3975  -5.3395  -5.1156  -5.0427  -4.8198  -4.7296  -4.5147
    -4.4153  -4.2155  -4.1098  -3.9333  -3.8305  -3.6895  -3.6020  -3.5117
    -3.4533  -3.4229   0.6742   0.7092   0.7944   0.8993   1.0345   1.2006
     1.3726   1.5843   1.7780   2.0236   2.2251   2.4976   2.6984   2.9939
     3.1715   3.4877   3.6331   3.7403   3.8384   3.9441   3.9697   4.0027
     4.0725   4.0820   4.0964   4.1873   4.2228   4.2668   4.3312   4.3445
     4.4068   4.4284   4.4782   4.5341   4.5367   4.6642   4.7124   4.8281
     4.8529   4.8660   4.9569   5.0355   5.1295   5.1592   5.1929   5.2460
     5.2840   5.3711   5.4317   5.4540   5.4987   5.5025   5.5109   5.5233
     5.5521   5.6251   5.6281   5.6877   5.6880   5.7160   5.7185   5.7231
     5.7886   5.8145   5.8553   5.8777   5.9314   5.9411   6.0241   6.0471
     6.0772   6.0926   6.1204   6.1834   6.2002   6.2017   6.2033   6.2519
     6.2764   6.2805   6.3629   6.3663   6.4514   6.4515   6.4783   6.5111
     6.5188   6.5206   6.5362   6.5540   6.5901   6.5978   6.6378   6.6436
     6.6537   6.6855   6.6925   6.7020   6.7420   6.8052   6.8091   6.8278
     6.9070   6.9353   6.9426   6.9590   6.9945   6.9986   7.0201   7.0257
     7.0350   7.0878   7.1305   7.1500   7.1940   7.2094   7.2352   7.2357
     7.2588   7.2663   7.2924   7.3117   7.3346   7.3909   7.4096   7.4165
     7.4572   7.4864   7.4937   7.5168   7.5500   7.5692   7.6083   7.6125
     7.7006   7.7207   7.7266   7.7803   7.7939   7.8178   7.8379   7.8848
     7.9103   7.9626   7.9930   8.0287   8.0913   8.1013   8.1368   8.1489
     8.1600   8.1808   8.2470   8.3091   8.3407   8.3633   8.4087   8.4472
     8.5148   8.5252   8.6187   8.6285   8.6485   8.7284   8.7452   8.7694
     8.8109   8.8181   8.8317   8.8342   8.9394   8.9456   9.0231   9.0311
     9.1068   9.1099   9.1387   9.1791   9.2472   9.2755   9.3464   9.3871
     9.4747   9.4879   9.5722   9.6673   9.7219   9.7576   9.8254   9.9488
     9.9615   9.9746  10.0256  10.0498  10.1527  10.2143  10.2299  10.2483
    10.2815  10.4186  10.4404  10.5067  10.5145  10.5385  10.5388  10.5824
    10.6859  10.7374  10.7818  10.7886  10.8343  10.8619  10.9002  10.9600
    10.9618  10.9734  10.9856  11.1067  11.1873  11.1926  11.2356  11.2502
    11.2560  11.3071  11.3279  11.3372  11.3383  11.3733  11.4374  11.4440
    11.5133  11.5325  11.5656  11.5671  11.6140  11.6337  11.6355  11.6453
    11.6552  11.6639  11.7106  11.7112  11.7734  11.7795  11.8847  11.9029
    11.9406  11.9531  11.9853  12.0122  12.0288  12.0518  12.1081  12.1082
    12.1488  12.1601  12.1638  12.1910  12.2325  12.2796  12.2827  12.3050
    12.3335  12.4025  12.4134  12.4321  12.4855  12.4984  12.5482  12.5657
    12.5847  12.6561  12.6576  12.7230  12.8171  12.8620  12.9035  12.9580
    13.0140  13.0291  13.0819  13.0839  13.0933  13.0973  13.1816  13.2272
    13.2338  13.2627  13.2749  13.2949  13.3065  13.3380  13.3620  13.3947
    13.3958  13.4026  13.4317  13.4339  13.4632  13.4690  13.5334  13.5795
    13.5801  13.5960  13.6232  13.6674  13.7217  13.7247  13.7715  13.7842
    13.9132  13.9211  13.9540  13.9889  14.0110  14.0160  14.1269  14.1990
    14.2119  14.2784  14.2895  14.2915  14.3425  14.3886  14.4536  14.4537
    14.4969  14.5342  14.6340  14.6819  14.7406  14.7718  14.7833  14.8755
    14.9203  14.9566  15.0074  15.0118  15.0397  15.0416  15.0445  15.0701
    15.0760  15.1014  15.1290  15.1420  15.1925  15.3041  15.3097  15.3216
    15.3568  15.3791  15.4076  15.4506

          k = 0.0000 0.0000-0.1174 ( 67784 PWs)   bands (ev):

   -19.1243 -19.1243 -19.0791 -19.0791 -19.0117 -19.0117 -18.9220 -18.9219
   -18.8068 -18.8068 -18.6666 -18.6665 -18.5000 -18.5000 -18.3094 -18.3094
   -18.0951 -18.0951 -17.8572 -17.8571 -17.5957 -17.5957 -17.3109 -17.3108
   -16.9999 -16.9998 -16.6736 -16.6736 -16.3324 -16.3324 -15.9852 -15.9851
   -15.6541 -15.6540 -15.4068 -15.4068 -14.2118 -14.2118 -13.8977 -13.8977
   -13.4871 -13.4871 -13.0303 -13.0302 -12.5460 -12.5460 -12.0444 -12.0443
   -11.5281 -11.5281 -11.0111 -11.0110 -10.4978 -10.4978  -9.9980  -9.9980
    -9.5287  -9.5286  -9.1187  -9.1187  -8.8094  -8.8094  -8.6305  -8.6305
    -8.5422  -8.5422  -8.5046  -8.5045  -8.4903  -8.4902  -8.4862  -8.4862
    -7.7473  -7.7473  -7.7283  -7.7283  -7.7167  -7.7167  -7.6788  -7.6788
    -7.6718  -7.6717  -7.6359  -7.6358  -7.6022  -7.6022  -7.5653  -7.5653
    -7.5397  -7.5397  -7.5254  -7.5253  -7.5109  -7.5108  -7.4992  -7.4992
    -7.2899  -7.2899  -7.0931  -7.0927  -6.9970  -6.9969  -6.9471  -6.9471
    -6.8963  -6.8963  -6.8186  -6.8186  -6.7137  -6.7137  -6.7063  -6.7063
    -6.5799  -6.5798  -6.4572  -6.4571  -6.4176  -6.4176  -6.2737  -6.2736
    -6.2278  -6.2278  -6.1649  -6.1648  -6.0127  -6.0127  -5.7737  -5.7737
    -5.5126  -5.5125  -5.2317  -5.2317  -4.9345  -4.9345  -4.6244  -4.6244
    -4.3172  -4.3172  -4.0227  -4.0227  -3.7603  -3.7603  -3.5563  -3.5562
    -3.4385  -3.4384   0.6887   0.6887   0.8429   0.8430   1.1148   1.1149
     1.4767   1.4768   1.8998   1.8999   2.3610   2.3610   2.8463   2.8463
     3.3302   3.3302   3.8026   3.8026   3.8604   3.8605   4.0587   4.0588
     4.1032   4.1032   4.1715   4.1715   4.2435   4.2435   4.2530   4.2530
     4.3747   4.3747   4.5001   4.5001   4.6683   4.6683   4.6902   4.6902
     4.8704   4.8704   5.0417   5.0417   5.1129   5.1129   5.3132   5.3132
     5.3439   5.3439   5.3480   5.3480   5.5642   5.5643   5.6113   5.6113
     5.6270   5.6271   5.6656   5.6656   5.6697   5.6697   5.7712   5.7712
     5.8010   5.8010   5.8823   5.8823   5.9202   5.9203   6.0504   6.0504
     6.0912   6.0912   6.1081   6.1081   6.1542   6.1542   6.2436   6.2436
     6.3034   6.3034   6.3588   6.3588   6.3607   6.3607   6.4326   6.4326
     6.4464   6.4464   6.5110   6.5111   6.5287   6.5287   6.6477   6.6478
     6.7568   6.7569   6.7852   6.7852   6.8142   6.8142   6.8253   6.8253
     6.8438   6.8438   6.8941   6.8941   6.9673   6.9673   7.0228   7.0229
     7.0947   7.0947   7.1590   7.1591   7.2169   7.2169   7.2332   7.2332
     7.3001   7.3001   7.3188   7.3189   7.3418   7.3418   7.3601   7.3601
     7.4174   7.4174   7.4513   7.4513   7.5319   7.5319   7.6498   7.6498
     7.6588   7.6588   7.8401   7.8401   7.8586   7.8586   7.8751   7.8751
     7.9362   7.9362   7.9853   7.9853   8.0041   8.0041   8.0925   8.0925
     8.1774   8.1775   8.2570   8.2570   8.3477   8.3478   8.4837   8.4838
     8.5935   8.5935   8.6156   8.6156   8.6652   8.6652   8.6990   8.6990
     8.7836   8.7836   8.9037   8.9037   8.9443   8.9444   9.0178   9.0178
     9.0698   9.0699   9.1410   9.1411   9.2981   9.2981   9.3314   9.3314
     9.4223   9.4223   9.5827   9.5827   9.8256   9.8256   9.9138   9.9138
     9.9691   9.9691  10.0342  10.0342  10.1461  10.1461  10.1842  10.1843
    10.3584  10.3584  10.5031  10.5032  10.5504  10.5504  10.6208  10.6210
    10.6562  10.6562  10.7397  10.7397  10.8324  10.8324  10.9058  10.9058
    11.0636  11.0637  11.0816  11.0816  11.1146  11.1146  11.2657  11.2657
    11.3155  11.3156  11.4297  11.4298  11.4607  11.4607  11.4659  11.4659
    11.4760  11.4760  11.4936  11.4936  11.5036  11.5037  11.5742  11.5742
    11.6470  11.6470  11.7712  11.7712  11.8012  11.8012  11.8874  11.8874
    11.9378  11.9379  12.0201  12.0201  12.0587  12.0587  12.1320  12.1320
    12.1789  12.1789  12.2076  12.2076  12.2693  12.2693  12.3379  12.3379
    12.3661  12.3661  12.3679  12.3679  12.4205  12.4205  12.4896  12.4896
    12.5496  12.5496  12.5888  12.5888  12.8643  12.8643  13.0071  13.0071
    13.0161  13.0161  13.0812  13.0812  13.1631  13.1631  13.2183  13.2183
    13.2510  13.2510  13.3271  13.3271  13.3634  13.3634  13.3782  13.3782
    13.4242  13.4242  13.4479  13.4480  13.4611  13.4611  13.4817  13.4817
    13.5120  13.5120  13.6110  13.6110  13.7316  13.7316  13.8119  13.8119
    13.8744  13.8744  13.9379  13.9379  14.0290  14.0290  14.1366  14.1366
    14.2896  14.2896  14.3201  14.3202  14.3671  14.3671  14.4956  14.4956
    14.5385  14.5385  14.6068  14.6068  14.6553  14.6554  14.8648  14.8648
    14.9520  14.9520  15.0079  15.0079  15.0497  15.0498  15.0545  15.0545
    15.1150  15.1151  15.1443  15.1443  15.2570  15.2570  15.3253  15.3253
    15.3300  15.3300  15.4350  15.4351

     the Fermi energy is    -1.0786 ev

     Writing output data file A36.save/

     init_run     :     10.10s CPU     10.53s WALL (       1 calls)
     electrons    :   6406.90s CPU   6463.77s WALL (       1 calls)

     Called by init_run:
     wfcinit      :      0.00s CPU      0.00s WALL (       1 calls)
     potinit      :      0.59s CPU      0.67s WALL (       1 calls)
     hinit0       :      8.04s CPU      8.08s WALL (       1 calls)

     Called by electrons:
     c_bands      :   6406.74s CPU   6463.58s WALL (       1 calls)
     v_of_rho     :      0.44s CPU      0.46s WALL (       1 calls)
     newd         :      0.36s CPU      0.62s WALL (       1 calls)

     Called by c_bands:
     init_us_2    :      0.31s CPU      0.34s WALL (      26 calls)
     cegterg      :   6307.88s CPU   6354.21s WALL (     132 calls)

     Called by sum_band:

     Called by *egterg:
     h_psi        :   1276.33s CPU   1290.96s WALL (    2680 calls)
     s_psi        :    176.71s CPU    177.09s WALL (    2680 calls)
     g_psi        :      7.58s CPU      7.59s WALL (    2522 calls)
     cdiaghg      :   3441.20s CPU   3446.46s WALL (    2548 calls)

     Called by h_psi:
     h_psi:pot    :   1272.21s CPU   1282.57s WALL (    2680 calls)
     h_psi:calbec :    177.63s CPU    179.47s WALL (    2680 calls)
     vloc_psi     :    917.67s CPU    925.91s WALL (    2680 calls)
     add_vuspsi   :    176.89s CPU    177.17s WALL (    2680 calls)

     General routines
     calbec       :    177.61s CPU    179.45s WALL (    2680 calls)
     fft          :      0.45s CPU      0.49s WALL (      14 calls)
     ffts         :      0.01s CPU      0.01s WALL (       1 calls)
     fftw         :    831.40s CPU    838.93s WALL (  612868 calls)
     interpolate  :      0.03s CPU      0.03s WALL (       1 calls)
     davcio       :      0.01s CPU      8.94s WALL (      52 calls)

     Parallel routines
     fft_scatt_xy :    128.31s CPU    129.27s WALL (  612883 calls)
     fft_scatt_yz :    285.90s CPU    289.79s WALL (  612883 calls)

     PWSCF        :     1h47m CPU       47h 1m WALL

      55h

   This run was terminated on:  21:23: 5   8Apr2022            

=------------------------------------------------------------------------------=
   JOB DONE.
=------------------------------------------------------------------------------=
