
     Program PWSCF v.6.3 starts on 23Apr2021 at  0:43:24 

     This program is part of the open-source Quantum ESPRESSO suite
     for quantum simulation of materials; please cite
         "P. Giannozzi et al., J. Phys.:Condens. Matter 21 395502 (2009);
         "P. Giannozzi et al., J. Phys.:Condens. Matter 29 465901 (2017);
          URL http://www.quantum-espresso.org", 
     in publications or presentations arising from this work. More details at
     http://www.quantum-espresso.org/quote

     Parallel version (MPI), running on    16 processors
     R & G space division:  proc/nbgrp/npool/nimage =      16
     Waiting for input...
     Reading input from standard input
     Message from routine read_cards :
     DEPRECATED: no units specified in CELL_PARAMETERS card

     Current dimensions of program PWSCF are:
     Max number of different atomic species (ntypx) = 10
     Max number of k-points (npk) =  40000
     Max angular momentum in pseudopotentials (lmaxx) =  3

     Atomic positions and unit cell read from directory:
     /home/zfwang/scratch/GNRDATASET/AGNR/LS7_2_9_2/LS7_2_9_2.save/


     Subspace diagonalization in iterative solution of the eigenvalue problem:
     a serial algorithm will be used


     Parallelization info
     --------------------
     sticks:   dense  smooth     PW     G-vecs:    dense   smooth      PW
     Min        2556     852    219               382876    73664    9645
     Max        2557     853    221               382881    73669    9648
     Sum       40909   13645   3521              6126037  1178677  154333



     bravais-lattice index     =            0
     lattice parameter (alat)  =       1.8897  a.u.
     unit-cell volume          =   34497.4860 (a.u.)^3
     number of atoms/cell      =           80
     number of atomic types    =            2
     number of electrons       =       272.00
     number of Kohn-Sham states=          500
     kinetic-energy cutoff     =      40.0000  Ry
     charge density cutoff     =     480.0000  Ry
     Exchange-correlation      = PBE ( 1  4  3  4 0 0)

     celldm(1)=  18.897261  celldm(2)=   3.000000  celldm(3)=   1.704000
     celldm(4)=   0.000000  celldm(5)=   0.000000  celldm(6)=   0.000000

     crystal axes: (cart. coord. in units of alat)
               a(1) = (  10.000000   0.000000   0.000000 )  
               a(2) = (   0.000000  30.000000   0.000000 )  
               a(3) = (   0.000000   0.000000  17.040000 )  

     reciprocal axes: (cart. coord. in units 2 pi/alat)
               b(1) = (  0.100000  0.000000  0.000000 )  
               b(2) = (  0.000000  0.033333  0.000000 )  
               b(3) = (  0.000000  0.000000  0.058685 )  


     PseudoPot. # 1 for C  read from file:
     /home/zfwang/hp_home/MySoftware/qe-6.3/pseudo/C.pbe-n-rrkjus_psl.0.1.UPF
     MD5 check sum: fff530ed632a789b3b184014e67dd7f1
     Pseudo is Ultrasoft + core correction, Zval =  4.0
     Generated using "atomic" code by A. Dal Corso v.5.0.2 svn rev. 9415
     Using radial grid of 1073 points,  4 beta functions with: 
                l(1) =   0
                l(2) =   0
                l(3) =   1
                l(4) =   1
     Q(r) pseudized with 0 coefficients 


     PseudoPot. # 2 for H  read from file:
     /home/zfwang/hp_home/MySoftware/qe-6.3/pseudo/H.pbe-rrkjus_psl.0.1.UPF
     MD5 check sum: e164a6907b691c6980f16942be34de84
     Pseudo is Ultrasoft, Zval =  1.0
     Generated using "atomic" code by A. Dal Corso v.5.0.2 svn rev. 9415
     Using radial grid of  929 points,  2 beta functions with: 
                l(1) =   0
                l(2) =   0
     Q(r) pseudized with 0 coefficients 


     atomic species   valence    mass     pseudopotential
        C              4.00    12.01070     C ( 1.00)
        H              1.00     1.00794     H ( 1.00)

     No symmetry found



   Cartesian axes

     site n.     atom                  positions (alat units)
         1           C   tau(   1) = (   4.9999989  10.0737986   7.0560498  )
         2           C   tau(   2) = (   4.9999989  10.0829549  11.3452380  )
         3           C   tau(   3) = (   4.9999990  11.3301341   3.5812098  )
         4           C   tau(   4) = (   4.9999986  11.2856626   7.8098584  )
         5           C   tau(   5) = (   4.9999994  11.3090495  12.0692403  )
         6           C   tau(   6) = (   5.0000001  11.3272982  16.3562277  )
         7           C   tau(   7) = (   4.9999989  10.0829555   5.6947724  )
         8           C   tau(   8) = (   4.9999984  10.0738007   9.9839546  )
         9           C   tau(   9) = (   4.9999994  12.5251371   2.8558758  )
        10           C   tau(  10) = (   4.9999988  12.5274027   7.1084288  )
        11           C   tau(  11) = (   4.9999995  12.5398322  11.3493035  )
        12           C   tau(  12) = (   5.0000003  12.5312350  15.6227151  )
        13           C   tau(  13) = (   4.9999997  13.7654515   3.5580545  )
        14           C   tau(  14) = (   4.9999995  13.7647095   7.8138802  )
        15           C   tau(  15) = (   5.0000003  13.7667924  12.0624255  )
        16           C   tau(  16) = (   5.0000003  13.7623984  16.3256887  )
        17           C   tau(  17) = (   4.9999995  11.3273003   0.6837652  )
        18           C   tau(  18) = (   4.9999987  11.3090503   4.9707648  )
        19           C   tau(  19) = (   4.9999985  11.2856632   9.2301476  )
        20           C   tau(  20) = (   4.9999998  11.3301361  13.4587933  )
        21           C   tau(  21) = (   4.9999996  12.5312345   1.4172819  )
        22           C   tau(  22) = (   4.9999988  12.5398317   5.6907029  )
        23           C   tau(  23) = (   4.9999990  12.5274034   9.9315746  )
        24           C   tau(  24) = (   5.0000003  12.5251374  14.1841222  )
        25           C   tau(  25) = (   5.0000004  15.0000014   2.8429567  )
        26           C   tau(  26) = (   5.0000005  15.0000016   7.1019192  )
        27           C   tau(  27) = (   5.0000008  14.9999996  11.3512152  )
        28           C   tau(  28) = (   5.0000004  14.9999997  15.6129450  )
        29           C   tau(  29) = (   5.0000008  16.2345520   3.5580537  )
        30           C   tau(  30) = (   5.0000012  16.2352918   7.8138810  )
        31           C   tau(  31) = (   5.0000013  16.2332077  12.0624237  )
        32           C   tau(  32) = (   5.0000002  16.2376019  16.3256878  )
        33           C   tau(  33) = (   5.0000001  13.7624004   0.7143062  )
        34           C   tau(  34) = (   4.9999995  13.7667923   4.9775776  )
        35           C   tau(  35) = (   4.9999997  13.7647098   9.2261228  )
        36           C   tau(  36) = (   5.0000007  13.7654506  13.4819472  )
        37           C   tau(  37) = (   5.0000003  15.0000026   1.4270516  )
        38           C   tau(  38) = (   5.0000004  15.0000016   5.6887882  )
        39           C   tau(  39) = (   5.0000007  14.9999996   9.9380836  )
        40           C   tau(  40) = (   5.0000007  14.9999999  14.1970399  )
        41           C   tau(  41) = (   5.0000007  17.4748644   2.8558754  )
        42           C   tau(  42) = (   5.0000014  17.4725989   7.1084296  )
        43           C   tau(  43) = (   5.0000016  17.4601672  11.3492999  )
        44           C   tau(  44) = (   5.0000001  17.4687645  15.6227121  )
        45           C   tau(  45) = (   5.0000004  18.6698670   3.5812096  )
        46           C   tau(  46) = (   5.0000012  18.7143367   7.8098598  )
        47           C   tau(  47) = (   5.0000011  18.6909492  12.0692378  )
        48           C   tau(  48) = (   4.9999999  18.6727010  16.3562258  )
        49           C   tau(  49) = (   5.0000002  16.2376031   0.7143052  )
        50           C   tau(  50) = (   5.0000008  16.2332110   4.9775766  )
        51           C   tau(  51) = (   5.0000014  16.2352899   9.2261227  )
        52           C   tau(  52) = (   5.0000009  16.2345487  13.4819452  )
        53           C   tau(  53) = (   5.0000002  17.4687691   1.4172817  )
        54           C   tau(  54) = (   5.0000011  17.4601700   5.6907026  )
        55           C   tau(  55) = (   5.0000016  17.4725965   9.9315730  )
        56           C   tau(  56) = (   5.0000005  17.4748631  14.1841188  )
        57           C   tau(  57) = (   5.0000005  19.9261996   7.0560504  )
        58           C   tau(  58) = (   5.0000005  19.9170422  11.3452339  )
        59           C   tau(  59) = (   5.0000000  18.6727009   0.6837624  )
        60           C   tau(  60) = (   5.0000007  18.6909509   4.9707652  )
        61           C   tau(  61) = (   5.0000012  18.7143368   9.2301472  )
        62           C   tau(  62) = (   5.0000005  18.6698623  13.4587898  )
        63           C   tau(  63) = (   5.0000003  19.9170444   5.6947715  )
        64           C   tau(  64) = (   5.0000004  19.9261967   9.9839554  )
        65           H   tau(  65) = (   4.9999994   9.1166612   7.5719418  )
        66           H   tau(  66) = (   4.9999989   9.1461022  11.9035455  )
        67           H   tau(  67) = (   4.9999993   9.1461036   5.1364623  )
        68           H   tau(  68) = (   4.9999984   9.1166644   9.4680642  )
        69           H   tau(  69) = (   5.0000001  20.8833367   7.5719389  )
        70           H   tau(  70) = (   4.9999998  20.8538948  11.9035433  )
        71           H   tau(  71) = (   4.9999997  20.8538973   5.1364642  )
        72           H   tau(  72) = (   4.9999995  20.8833328   9.4680622  )
        73           H   tau(  73) = (   4.9999988  10.3702836   3.0689064  )
        74           H   tau(  74) = (   5.0000003  10.3696927  15.8414985  )
        75           H   tau(  75) = (   4.9999989  10.3696942   1.1984968  )
        76           H   tau(  76) = (   4.9999997  10.3702822  13.9710988  )
        77           H   tau(  77) = (   4.9999995  19.6297154   3.0689071  )
        78           H   tau(  78) = (   4.9999998  19.6303067  15.8414967  )
        79           H   tau(  79) = (   5.0000003  19.6303077   1.1984929  )
        80           H   tau(  80) = (   4.9999999  19.6297165  13.9710950  )

     number of k points=    26  Marzari-Vanderbilt smearing, width (Ry)=  0.0100
                       cart. coord. in units 2pi/alat
        k(    1) = (   0.0000000   0.0000000   0.0000000), wk =   0.0400000
        k(    2) = (   0.0000000   0.0000000   0.0011737), wk =   0.0800000
        k(    3) = (   0.0000000   0.0000000   0.0023474), wk =   0.0800000
        k(    4) = (   0.0000000   0.0000000   0.0035211), wk =   0.0800000
        k(    5) = (   0.0000000   0.0000000   0.0046948), wk =   0.0800000
        k(    6) = (   0.0000000   0.0000000   0.0058685), wk =   0.0800000
        k(    7) = (   0.0000000   0.0000000   0.0070423), wk =   0.0800000
        k(    8) = (   0.0000000   0.0000000   0.0082160), wk =   0.0800000
        k(    9) = (   0.0000000   0.0000000   0.0093897), wk =   0.0800000
        k(   10) = (   0.0000000   0.0000000   0.0105634), wk =   0.0800000
        k(   11) = (   0.0000000   0.0000000   0.0117371), wk =   0.0800000
        k(   12) = (   0.0000000   0.0000000   0.0129108), wk =   0.0800000
        k(   13) = (   0.0000000   0.0000000   0.0140845), wk =   0.0800000
        k(   14) = (   0.0000000   0.0000000   0.0152582), wk =   0.0800000
        k(   15) = (   0.0000000   0.0000000   0.0164319), wk =   0.0800000
        k(   16) = (   0.0000000   0.0000000   0.0176056), wk =   0.0800000
        k(   17) = (   0.0000000   0.0000000   0.0187793), wk =   0.0800000
        k(   18) = (   0.0000000   0.0000000   0.0199531), wk =   0.0800000
        k(   19) = (   0.0000000   0.0000000   0.0211268), wk =   0.0800000
        k(   20) = (   0.0000000   0.0000000   0.0223005), wk =   0.0800000
        k(   21) = (   0.0000000   0.0000000   0.0234742), wk =   0.0800000
        k(   22) = (   0.0000000   0.0000000   0.0246479), wk =   0.0800000
        k(   23) = (   0.0000000   0.0000000   0.0258216), wk =   0.0800000
        k(   24) = (   0.0000000   0.0000000   0.0269953), wk =   0.0800000
        k(   25) = (   0.0000000   0.0000000   0.0281690), wk =   0.0800000
        k(   26) = (   0.0000000   0.0000000  -0.0293427), wk =   0.0400000

     Dense  grid:  6126037 G-vectors     FFT dimensions: ( 135, 400, 225)

     Smooth grid:  1178677 G-vectors     FFT dimensions: (  80, 240, 135)

     Estimated max dynamical RAM per process >       1.27 GB

     Estimated total dynamical RAM >      20.25 GB

     The potential is recalculated from file :
     /home/zfwang/scratch/GNRDATASET/AGNR/LS7_2_9_2/LS7_2_9_2.save/charge-density.dat


     negative rho (up, down):  4.061E-04 0.000E+00
     Starting wfcs are  272 randomized atomic wfcs +  228 random wfcs

     Band Structure Calculation
     Davidson diagonalization with overlap
     c_bands:  1 eigenvalues not converged
     c_bands:  1 eigenvalues not converged

     ethr =  3.68E-09,  avg # of iterations = 71.2

     total cpu time spent up to now is    10573.9 secs

     End of band structure calculation

          k = 0.0000 0.0000 0.0000 (147325 PWs)   bands (ev):

   -21.8222 -21.4520 -21.4206 -21.1909 -20.7928 -20.6487 -20.3651 -20.3465
   -20.2576 -19.7753 -19.7140 -19.6137 -19.3596 -19.0700 -18.6481 -18.6334
   -18.5329 -18.5246 -18.3594 -18.0157 -17.9319 -17.6898 -17.5636 -17.3036
   -17.2239 -16.9601 -16.9155 -16.9154 -16.5279 -16.3861 -15.9321 -15.7479
   -15.5054 -15.1908 -15.0253 -14.9978 -14.9566 -14.7798 -14.7362 -14.5741
   -14.4677 -13.5192 -13.4013 -13.3833 -13.2078 -13.1963 -13.1659 -13.1548
   -13.0840 -13.0214 -12.6460 -12.4929 -12.0564 -11.7562 -11.6911 -11.6372
   -11.4912 -11.2714 -11.2218 -11.1563 -11.0489 -11.0191 -10.8645 -10.5271
   -10.3152 -10.2498 -10.2213 -10.0673 -10.0461  -9.9743  -9.8898  -9.8200
    -9.6453  -9.6337  -9.5120  -9.4467  -9.4227  -9.3047  -9.1755  -9.1703
    -9.1182  -9.0858  -9.0324  -9.0131  -8.9807  -8.9218  -8.7441  -8.7294
    -8.7180  -8.6961  -8.5923  -8.5783  -8.5594  -8.3814  -8.1617  -8.1578
    -8.1264  -8.1083  -8.0964  -7.9211  -7.8897  -7.7516  -7.7158  -7.5763
    -7.4699  -7.4331  -7.3577  -7.3026  -7.1493  -7.0265  -6.9366  -6.9345
    -6.8317  -6.8187  -6.6044  -6.5502  -6.3505  -6.2739  -6.2398  -6.1235
    -6.0519  -6.0050  -5.8978  -5.6429  -5.4582  -5.3372  -5.2183  -5.1645
    -5.1249  -4.6762  -4.6655  -4.5415  -4.4620  -4.0048  -3.6551  -2.8594
    -2.2709  -1.5548  -1.2093  -0.9973  -0.7337  -0.7130  -0.6390  -0.4833
    -0.4540   0.1125   0.1914   0.3973   0.4905   0.5458   0.5520   0.8355
     0.9116   0.9255   0.9390   0.9569   0.9933   1.0157   1.0554   1.1535
     1.1556   1.1951   1.3392   1.3465   1.3597   1.6462   1.6585   1.6605
     1.8695   1.9070   1.9342   1.9781   2.0607   2.1133   2.1258   2.1546
     2.1867   2.2680   2.4254   2.4309   2.4544   2.4795   2.4817   2.4896
     2.5048   2.5049   2.5400   2.5813   2.5829   2.5988   2.6181   2.6857
     2.7540   2.7654   2.8646   2.8961   2.9060   2.9116   2.9586   2.9777
     3.0096   3.0153   3.0179   3.0842   3.1039   3.1112   3.1534   3.1931
     3.1979   3.2310   3.2770   3.3184   3.3405   3.3928   3.4036   3.4109
     3.4602   3.4640   3.5519   3.5620   3.5905   3.6475   3.6730   3.7008
     3.7624   3.8184   3.8356   3.8717   3.8859   3.8937   3.9322   4.0137
     4.0367   4.0502   4.0609   4.0712   4.0742   4.0985   4.1093   4.1290
     4.1446   4.1458   4.1864   4.2117   4.2515   4.2935   4.3176   4.3240
     4.3624   4.3975   4.4487   4.4671   4.5267   4.5374   4.5411   4.5464
     4.5615   4.5910   4.6512   4.6592   4.6772   4.6832   4.7042   4.7451
     4.7572   4.7874   4.8027   4.8482   4.9222   4.9399   4.9467   4.9952
     5.0511   5.0515   5.1009   5.1187   5.1439   5.1525   5.2245   5.2426
     5.2429   5.2572   5.2682   5.2774   5.2785   5.2965   5.2998   5.3241
     5.3255   5.3486   5.3942   5.4226   5.4249   5.5074   5.5175   5.5356
     5.5437   5.5537   5.6082   5.6522   5.6593   5.6846   5.7098   5.7128
     5.7174   5.7186   5.7393   5.7727   5.7914   5.8422   5.8578   5.8680
     5.8784   5.8891   5.8904   5.9292   5.9307   5.9603   5.9959   6.0289
     6.0352   6.0555   6.0703   6.1094   6.1312   6.1537   6.1618   6.2323
     6.2398   6.3016   6.3051   6.3460   6.3642   6.3841   6.4250   6.4603
     6.4788   6.4944   6.4958   6.5049   6.5483   6.5713   6.5810   6.5814
     6.5986   6.6571   6.6778   6.7035   6.7094   6.7125   6.7549   6.7725
     6.7741   6.7757   6.7789   6.7796   6.7934   6.8629   6.8789   6.8896
     6.8955   6.9074   6.9112   6.9391   6.9494   6.9569   6.9623   6.9674
     6.9783   6.9958   7.0175   7.0225   7.0318   7.0624   7.1018   7.1251
     7.1358   7.1597   7.1698   7.1787   7.1913   7.2070   7.2230   7.2499
     7.2542   7.2723   7.2892   7.2905   7.3035   7.3219   7.3639   7.3817
     7.3981   7.4003   7.4056   7.4123   7.4240   7.4979   7.5093   7.5107
     7.5194   7.5228   7.5595   7.5608   7.5912   7.6665   7.6948   7.7931
     7.8157   7.8242   7.8249   7.8381   7.8569   7.8580   7.8764   7.8773
     7.9018   7.9089   7.9321   7.9475   7.9521   7.9818   7.9860   7.9888
     7.9979   8.0161   8.0396   8.0411   8.0544   8.0895   8.0932   8.1013
     8.1414   8.1732   8.1965   8.2090   8.2102   8.2110   8.2547   8.2584
     8.2595   8.2783   8.2809   8.3590   8.3941   8.4009   8.4462   8.4741
     8.4882   8.4890   8.5127   8.5565   8.5764   8.5937   8.6030   8.6084
     8.6188   8.6347   8.6454   8.6757   8.7072   8.7080   8.7081   8.7298
     8.7381   8.7580   8.7584   8.7854   8.7978   8.8102   8.8250   8.8345
     8.8430   8.8487   8.8846   8.8858   8.9166   8.9577   8.9582   8.9604
     8.9626   8.9852   8.9892   9.0212   9.0482   9.0504   9.0873   9.0976
     9.1091   9.1146   9.1197   9.1224   9.1668   9.1762   9.1857   9.1885
     9.2220   9.2306   9.2320   9.2569

          k = 0.0000 0.0000 0.0012 (147355 PWs)   bands (ev):

   -21.8221 -21.4574 -21.4149 -21.1909 -20.7938 -20.6474 -20.3852 -20.3262
   -20.2575 -19.7753 -19.7206 -19.6069 -19.3592 -19.0699 -18.6706 -18.6174
   -18.5314 -18.5248 -18.3540 -18.0261 -17.9224 -17.6899 -17.5621 -17.3045
   -17.2243 -16.9746 -16.9146 -16.9006 -16.5308 -16.3864 -15.9348 -15.7469
   -15.5037 -15.1879 -15.0275 -14.9990 -14.9550 -14.7820 -14.7322 -14.5746
   -14.4661 -13.5217 -13.4011 -13.3842 -13.2330 -13.1934 -13.1794 -13.1265
   -13.1030 -12.9938 -12.6447 -12.4917 -12.0572 -11.7580 -11.6921 -11.6375
   -11.4912 -11.2721 -11.2225 -11.1569 -11.0511 -11.0158 -10.8593 -10.5276
   -10.3180 -10.2646 -10.2063 -10.0866 -10.0433  -9.9557  -9.8896  -9.8196
    -9.6496  -9.6327  -9.5097  -9.4555  -9.4136  -9.3051  -9.1894  -9.1703
    -9.1064  -9.0917  -9.0357  -9.0097  -8.9762  -8.9212  -8.7450  -8.7294
    -8.7156  -8.6976  -8.5915  -8.5767  -8.5574  -8.3817  -8.1924  -8.1289
    -8.1243  -8.1093  -8.0961  -7.9331  -7.8775  -7.7634  -7.7039  -7.5764
    -7.4715  -7.4444  -7.3461  -7.3017  -7.1487  -7.0263  -6.9621  -6.9152
    -6.8262  -6.8187  -6.6132  -6.5416  -6.3575  -6.2739  -6.2384  -6.1323
    -6.0373  -6.0053  -5.8981  -5.6472  -5.4575  -5.3372  -5.2148  -5.1646
    -5.1249  -4.6818  -4.6652  -4.5419  -4.4569  -4.0049  -3.6565  -2.8613
    -2.2691  -1.5534  -1.2091  -0.9964  -0.7416  -0.7139  -0.6306  -0.4832
    -0.4528   0.1095   0.1913   0.3903   0.4907   0.5522   0.5544   0.8357
     0.8906   0.9127   0.9492   0.9724   1.0012   1.0084   1.0630   1.1192
     1.1559   1.2311   1.3227   1.3599   1.3633   1.6317   1.6605   1.6733
     1.8618   1.9153   1.9336   1.9784   2.0608   2.1139   2.1175   2.1624
     2.1863   2.2633   2.4231   2.4352   2.4369   2.4734   2.4780   2.4912
     2.5142   2.5208   2.5439   2.5802   2.5808   2.5899   2.6271   2.6874
     2.7398   2.7806   2.8431   2.9061   2.9114   2.9194   2.9545   2.9704
     3.0075   3.0184   3.0203   3.0863   3.0871   3.1226   3.1614   3.1655
     3.2230   3.2318   3.2854   3.3186   3.3375   3.3669   3.4057   3.4226
     3.4655   3.4698   3.5521   3.5625   3.5949   3.6474   3.6730   3.6938
     3.7699   3.8058   3.8471   3.8653   3.8818   3.8914   3.9398   3.9950
     4.0416   4.0458   4.0596   4.0705   4.0888   4.0972   4.1124   4.1215
     4.1318   4.1458   4.1936   4.2254   4.2591   4.2677   4.3161   4.3440
     4.3595   4.3926   4.4448   4.4685   4.5193   4.5273   4.5426   4.5439
     4.5817   4.6056   4.6456   4.6513   4.6759   4.6833   4.7200   4.7452
     4.7602   4.7828   4.7898   4.8697   4.9046   4.9234   4.9805   4.9930
     5.0497   5.0501   5.0900   5.1199   5.1501   5.1564   5.2201   5.2281
     5.2335   5.2544   5.2628   5.2629   5.2873   5.2877   5.3100   5.3294
     5.3488   5.3559   5.3678   5.4313   5.4494   5.4961   5.5164   5.5318
     5.5381   5.5761   5.5975   5.6142   5.6706   5.6736   5.7104   5.7120
     5.7300   5.7441   5.7540   5.7678   5.7928   5.8346   5.8413   5.8577
     5.8782   5.8847   5.9092   5.9199   5.9555   5.9618   5.9960   6.0152
     6.0291   6.0571   6.0864   6.1057   6.1332   6.1415   6.1812   6.2348
     6.2349   6.3032   6.3049   6.3451   6.3705   6.3784   6.4215   6.4499
     6.4606   6.4841   6.5070   6.5217   6.5409   6.5774   6.5816   6.5863
     6.6025   6.6550   6.6760   6.7009   6.7013   6.7070   6.7383   6.7521
     6.7749   6.7794   6.7825   6.8013   6.8248   6.8617   6.8669   6.8790
     6.8912   6.9073   6.9267   6.9335   6.9405   6.9514   6.9602   6.9610
     6.9826   6.9992   7.0158   7.0240   7.0623   7.0743   7.0808   7.1195
     7.1348   7.1360   7.1788   7.1872   7.1984   7.2096   7.2132   7.2408
     7.2672   7.2753   7.2798   7.2919   7.2920   7.3492   7.3664   7.3708
     7.3836   7.4014   7.4075   7.4184   7.4557   7.4878   7.4970   7.5210
     7.5330   7.5336   7.5541   7.5574   7.5930   7.6688   7.7000   7.7842
     7.8120   7.8178   7.8204   7.8374   7.8429   7.8478   7.8582   7.8932
     7.9049   7.9201   7.9287   7.9295   7.9435   7.9830   7.9900   7.9971
     7.9990   8.0232   8.0358   8.0460   8.0570   8.0812   8.0894   8.1217
     8.1556   8.1796   8.1882   8.1886   8.2049   8.2248   8.2591   8.2616
     8.2738   8.2763   8.2909   8.3587   8.3945   8.3968   8.4504   8.4647
     8.4787   8.4950   8.5235   8.5393   8.5768   8.5957   8.6028   8.6131
     8.6206   8.6295   8.6478   8.6499   8.6948   8.7061   8.7163   8.7319
     8.7373   8.7549   8.7587   8.7687   8.7848   8.8253   8.8323   8.8433
     8.8526   8.8541   8.8915   8.8991   8.9199   8.9451   8.9508   8.9627
     8.9658   8.9873   8.9902   9.0281   9.0350   9.0411   9.0821   9.0976
     9.0991   9.1082   9.1164   9.1258   9.1762   9.1803   9.1843   9.1991
     9.2077   9.2133   9.2231   9.2615

          k = 0.0000 0.0000 0.0023 (147377 PWs)   bands (ev):

   -21.8217 -21.4683 -21.4030 -21.1907 -20.7966 -20.6436 -20.4122 -20.2988
   -20.2572 -19.7756 -19.7368 -19.5899 -19.3579 -19.0699 -18.7019 -18.6081
   -18.5252 -18.5227 -18.3390 -18.0495 -17.9016 -17.6902 -17.5578 -17.3068
   -17.2258 -16.9999 -16.9122 -16.8741 -16.5391 -16.3874 -15.9431 -15.7442
   -15.4986 -15.1792 -15.0336 -15.0025 -14.9510 -14.7869 -14.7221 -14.5758
   -14.4617 -13.5289 -13.4010 -13.3867 -13.2703 -13.2242 -13.1757 -13.1172
   -13.0933 -12.9449 -12.6408 -12.4882 -12.0596 -11.7635 -11.6951 -11.6382
   -11.4913 -11.2744 -11.2250 -11.1577 -11.0564 -11.0065 -10.8451 -10.5290
   -10.3271 -10.2877 -10.1824 -10.1203 -10.0409  -9.9176  -9.8892  -9.8183
    -9.6596  -9.6319  -9.5034  -9.4704  -9.3976  -9.3064  -9.2166  -9.1700
    -9.1065  -9.0870  -9.0417  -9.0026  -8.9653  -8.9192  -8.7465  -8.7291
    -8.7094  -8.7019  -8.5893  -8.5722  -8.5519  -8.3825  -8.2248  -8.1268
    -8.1120  -8.0956  -8.0934  -7.9534  -7.8565  -7.7841  -7.6827  -7.5768
    -7.4763  -7.4683  -7.3214  -7.2992  -7.1470  -7.0258  -6.9922  -6.9029
    -6.8187  -6.8106  -6.6319  -6.5236  -6.3754  -6.2741  -6.2407  -6.1418
    -6.0065  -6.0064  -5.8990  -5.6595  -5.4555  -5.3373  -5.2047  -5.1647
    -5.1251  -4.6972  -4.6642  -4.5439  -4.4427  -4.0050  -3.6605  -2.8669
    -2.2639  -1.5492  -1.2087  -0.9939  -0.7600  -0.7168  -0.6107  -0.4832
    -0.4491   0.1005   0.1912   0.3732   0.4913   0.5527   0.5763   0.8363
     0.8483   0.9160   0.9342   0.9937   1.0089   1.0169   1.0732   1.0787
     1.1569   1.2832   1.3036   1.3605   1.3837   1.6129   1.6606   1.6933
     1.8468   1.9320   1.9320   1.9794   2.0612   2.1021   2.1154   2.1760
     2.1850   2.2509   2.4105   2.4163   2.4465   2.4511   2.4749   2.4954
     2.5401   2.5423   2.5531   2.5736   2.5743   2.5809   2.6407   2.6918
     2.7236   2.7956   2.8185   2.9056   2.9106   2.9443   2.9546   2.9588
     2.9886   3.0255   3.0355   3.0652   3.0926   3.1116   3.1631   3.1812
     3.2067   3.2699   3.3027   3.3174   3.3192   3.3512   3.3947   3.4208
     3.4829   3.4908   3.5527   3.5642   3.6062   3.6470   3.6727   3.6796
     3.7856   3.7873   3.8527   3.8535   3.8798   3.8847   3.9572   3.9647
     4.0218   4.0464   4.0674   4.0718   4.0933   4.0942   4.1020   4.1222
     4.1257   4.1460   4.2124   4.2306   4.2510   4.2792   4.3118   4.3508
     4.3648   4.3806   4.4271   4.4724   4.5042   4.5279   4.5418   4.5466
     4.6157   4.6293   4.6298   4.6516   4.6743   4.6835   4.7423   4.7451
     4.7525   4.7733   4.7968   4.8659   4.9055   4.9269   4.9867   5.0082
     5.0450   5.0526   5.0687   5.1226   5.1519   5.1733   5.1904   5.2056
     5.2163   5.2513   5.2513   5.2567   5.2683   5.3057   5.3269   5.3307
     5.3466   5.3572   5.3914   5.4481   5.4705   5.4855   5.5110   5.5307
     5.5463   5.5709   5.5733   5.6091   5.6343   5.6726   5.7076   5.7312
     5.7506   5.7563   5.7677   5.7944   5.8006   5.8068   5.8287   5.8573
     5.8649   5.8779   5.9050   5.9445   5.9643   5.9744   5.9964   6.0018
     6.0337   6.0605   6.0839   6.0949   6.1387   6.1584   6.1983   6.2235
     6.2452   6.3046   6.3076   6.3427   6.3591   6.3865   6.4122   6.4203
     6.4579   6.4611   6.5140   6.5221   6.5477   6.5798   6.5817   6.6014
     6.6196   6.6477   6.6696   6.6714   6.6737   6.7164   6.7357   6.7375
     6.7746   6.7810   6.8005   6.8366   6.8477   6.8508   6.8515   6.8605
     6.8851   6.8993   6.9155   6.9201   6.9308   6.9578   6.9655   6.9704
     6.9861   7.0124   7.0207   7.0493   7.0554   7.0628   7.1005   7.1044
     7.1218   7.1340   7.1695   7.1773   7.2002   7.2079   7.2124   7.2453
     7.2623   7.2777   7.2956   7.3013   7.3126   7.3212   7.3304   7.3875
     7.4123   7.4151   7.4215   7.4467   7.4672   7.4754   7.4950   7.5263
     7.5387   7.5517   7.5578   7.5643   7.5988   7.6753   7.7086   7.7686
     7.7815   7.7850   7.8093   7.8259   7.8351   7.8470   7.8597   7.8792
     7.8885   7.9191   7.9227   7.9300   7.9303   7.9729   7.9902   7.9962
     8.0203   8.0227   8.0352   8.0657   8.0696   8.0895   8.0943   8.1433
     8.1586   8.1732   8.1859   8.1969   8.1987   8.2461   8.2610   8.2702
     8.2718   8.3063   8.3117   8.3575   8.3823   8.3979   8.4489   8.4615
     8.4708   8.5035   8.5091   8.5301   8.5742   8.5943   8.5949   8.6014
     8.6104   8.6230   8.6428   8.6580   8.6686   8.6971   8.7059   8.7350
     8.7377   8.7386   8.7577   8.7666   8.7693   8.8332   8.8413   8.8442
     8.8813   8.8829   8.9028   8.9221   8.9243   8.9298   8.9386   8.9616
     8.9788   8.9867   8.9911   9.0127   9.0331   9.0362   9.0577   9.0607
     9.0866   9.1191   9.1229   9.1303   9.1585   9.1784   9.1859   9.1887
     9.2119   9.2167   9.2172   9.2572

          k = 0.0000 0.0000 0.0035 (147387 PWs)   bands (ev):

   -21.8211 -21.4807 -21.3891 -21.1904 -20.8010 -20.6376 -20.4395 -20.2721
   -20.2556 -19.7760 -19.7576 -19.5680 -19.3558 -19.0699 -18.7352 -18.6133
   -18.5259 -18.5039 -18.3169 -18.0778 -17.8777 -17.6907 -17.5505 -17.3107
   -17.2283 -17.0263 -16.9083 -16.8456 -16.5524 -16.3891 -15.9563 -15.7404
   -15.4898 -15.1651 -15.0422 -15.0080 -14.9458 -14.7924 -14.7083 -14.5773
   -14.4549 -13.5402 -13.4029 -13.3910 -13.3146 -13.2520 -13.1941 -13.1065
   -13.0601 -12.8912 -12.6344 -12.4824 -12.0634 -11.7724 -11.7000 -11.6395
   -11.4911 -11.2791 -11.2303 -11.1570 -11.0614 -10.9925 -10.8241 -10.5313
   -10.3436 -10.3113 -10.1575 -10.1537 -10.0384  -9.8884  -9.8744  -9.8163
    -9.6728  -9.6326  -9.4945  -9.4860  -9.3802  -9.3085  -9.2467  -9.1696
    -9.1258  -9.0770  -9.0405  -8.9960  -8.9514  -8.9160  -8.7468  -8.7280
    -8.7085  -8.7009  -8.5857  -8.5649  -8.5434  -8.3839  -8.2570  -8.1266
    -8.1162  -8.0950  -8.0602  -7.9748  -7.8340  -7.8061  -7.6599  -7.5774
    -7.4960  -7.4839  -7.2953  -7.2924  -7.1442  -7.0248  -7.0244  -6.8972
    -6.8186  -6.7877  -6.6536  -6.5031  -6.3998  -6.2744  -6.2557  -6.1369
    -6.0081  -5.9704  -5.9005  -5.6783  -5.4528  -5.3374  -5.1899  -5.1640
    -5.1253  -4.7193  -4.6627  -4.5480  -4.4217  -4.0052  -3.6671  -2.8760
    -2.2555  -1.5424  -1.2080  -0.9899  -0.7822  -0.7214  -0.5857  -0.4830
    -0.4432   0.0858   0.1910   0.3520   0.4923   0.5537   0.6053   0.8042
     0.8373   0.9176   0.9217   0.9773   1.0149   1.0346   1.0572   1.0967
     1.1586   1.2847   1.3375   1.3616   1.4045   1.5941   1.6608   1.7138
     1.8306   1.9294   1.9510   1.9810   2.0618   2.0852   2.1179   2.1814
     2.1893   2.2351   2.3852   2.4057   2.4281   2.4608   2.4724   2.4972
     2.5553   2.5604   2.5638   2.5706   2.5738   2.5788   2.6520   2.6980
     2.7116   2.7776   2.8294   2.9018   2.9081   2.9310   2.9512   2.9660
     2.9915   3.0306   3.0408   3.0547   3.0845   3.1029   3.1804   3.1884
     3.2059   3.2835   3.3089   3.3203   3.3228   3.3489   3.3827   3.4050
     3.4985   3.5261   3.5536   3.5674   3.6176   3.6463   3.6679   3.6721
     3.7684   3.7981   3.8374   3.8446   3.8742   3.8952   3.9319   3.9784
     4.0012   4.0358   4.0590   4.0638   4.0751   4.0866   4.0946   4.1426
     4.1466   4.1472   4.1995   4.2383   4.2740   4.3049   4.3050   4.3368
     4.3684   4.3736   4.4032   4.4784   4.4810   4.5289   4.5513   4.5553
     4.6277   4.6442   4.6498   4.6521   4.6824   4.6834   4.7278   4.7454
     4.7552   4.8014   4.8075   4.8275   4.9323   4.9439   4.9766   5.0089
     5.0352   5.0448   5.0779   5.1236   5.1525   5.1530   5.1854   5.1910
     5.1979   5.2301   5.2388   5.2589   5.2659   5.2919   5.3263   5.3542
     5.3572   5.3602   5.4098   5.4468   5.4773   5.4926   5.5193   5.5329
     5.5448   5.5603   5.5619   5.5953   5.6294   5.6784   5.6889   5.7306
     5.7379   5.7805   5.7862   5.7888   5.8138   5.8297   5.8353   5.8493
     5.8566   5.8779   5.9079   5.9337   5.9728   5.9812   5.9971   6.0128
     6.0435   6.0692   6.0755   6.0782   6.1458   6.1896   6.2078   6.2118
     6.2640   6.3063   6.3139   6.3260   6.3412   6.3960   6.3995   6.4106
     6.4276   6.4606   6.4973   6.5234   6.5639   6.5753   6.5757   6.6227
     6.6361   6.6372   6.6405   6.6438   6.6658   6.7253   6.7263   6.7496
     6.7743   6.7837   6.8195   6.8307   6.8352   6.8366   6.8377   6.8674
     6.8681   6.8852   6.9016   6.9218   6.9503   6.9691   6.9741   6.9861
     6.9956   7.0018   7.0283   7.0486   7.0670   7.0704   7.0781   7.0941
     7.1211   7.1344   7.1689   7.1712   7.1935   7.2042   7.2085   7.2600
     7.2668   7.2791   7.2919   7.2988   7.3055   7.3235   7.3584   7.3909
     7.4155   7.4333   7.4504   7.4773   7.4781   7.4844   7.4931   7.5252
     7.5355   7.5435   7.5826   7.6078   7.6082   7.6847   7.7049   7.7289
     7.7528   7.7570   7.7941   7.8148   7.8300   7.8451   7.8551   7.8573
     7.8576   7.8886   7.9102   7.9385   7.9467   7.9641   7.9827   7.9965
     8.0063   8.0381   8.0444   8.0681   8.1062   8.1092   8.1107   8.1470
     8.1511   8.1646   8.1973   8.2149   8.2221   8.2585   8.2642   8.2660
     8.3029   8.3207   8.3482   8.3548   8.3572   8.4085   8.4316   8.4738
     8.4768   8.4776   8.5046   8.5103   8.5629   8.5735   8.5811   8.5882
     8.6111   8.6270   8.6436   8.6454   8.6658   8.6754   8.6914   8.7214
     8.7264   8.7475   8.7568   8.7728   8.7737   8.8345   8.8458   8.8500
     8.8757   8.8938   8.9013   8.9136   8.9425   8.9475   8.9523   8.9547
     8.9642   8.9954   9.0082   9.0083   9.0243   9.0298   9.0324   9.0455
     9.0762   9.1044   9.1063   9.1334   9.1529   9.1670   9.1890   9.1955
     9.2029   9.2227   9.2287   9.2660

          k = 0.0000 0.0000 0.0047 (147403 PWs)   bands (ev):

   -21.8202 -21.4932 -21.3744 -21.1900 -20.8065 -20.6298 -20.4667 -20.2598
   -20.2392 -19.7803 -19.7765 -19.5436 -19.3528 -19.0698 -18.7696 -18.6276
   -18.5269 -18.4788 -18.2897 -18.1080 -17.8537 -17.6914 -17.5402 -17.3160
   -17.2323 -17.0520 -16.9029 -16.8170 -16.5700 -16.3914 -15.9740 -15.7362
   -15.4770 -15.1464 -15.0523 -15.0152 -14.9406 -14.7973 -14.6921 -14.5785
   -14.4464 -13.5548 -13.4095 -13.3972 -13.3637 -13.2744 -13.2169 -13.0874
   -13.0272 -12.8356 -12.6253 -12.4744 -12.0685 -11.7842 -11.7070 -11.6416
   -11.4907 -11.2869 -11.2393 -11.1532 -11.0634 -10.9751 -10.7987 -10.5344
   -10.3685 -10.3344 -10.1821 -10.1328 -10.0355  -9.8873  -9.8308  -9.8128
    -9.6881  -9.6351  -9.5016  -9.4844  -9.3621  -9.3114  -9.2768  -9.1691
    -9.1471  -9.0822  -9.0275  -8.9925  -8.9365  -8.9114  -8.7448  -8.7252
    -8.7166  -8.6909  -8.5810  -8.5552  -8.5325  -8.3858  -8.2890  -8.1265
    -8.1218  -8.0946  -8.0269  -7.9963  -7.8280  -7.8110  -7.6368  -7.5781
    -7.5249  -7.4940  -7.2904  -7.2617  -7.1404  -7.0579  -7.0235  -6.8956
    -6.8185  -6.7609  -6.6766  -6.4818  -6.4280  -6.2808  -6.2749  -6.1199
    -6.0106  -5.9320  -5.9026  -5.7021  -5.4499  -5.3375  -5.1772  -5.1567
    -5.1256  -4.7454  -4.6604  -4.5545  -4.3963  -4.0055  -3.6763  -2.8883
    -2.2441  -1.5328  -1.2071  -0.9849  -0.8049  -0.7276  -0.5584  -0.4827
    -0.4354   0.0655   0.1908   0.3302   0.4936   0.5551   0.6375   0.7585
     0.8386   0.9007   0.9300   0.9605   0.9731   1.0530   1.0899   1.1157
     1.1610   1.2662   1.3631   1.3928   1.4257   1.5757   1.6609   1.7349
     1.8145   1.9258   1.9710   1.9833   2.0625   2.0680   2.1212   2.1729
     2.1996   2.2210   2.3635   2.3924   2.4047   2.4709   2.4737   2.4990
     2.5429   2.5475   2.5766   2.5851   2.5880   2.6024   2.6568   2.7051
     2.7059   2.7545   2.8514   2.8927   2.9002   2.9162   2.9468   2.9509
     3.0116   3.0304   3.0344   3.0594   3.0748   3.1166   3.1699   3.2009
     3.2306   3.2477   3.3217   3.3440   3.3480   3.3487   3.3733   3.3852
     3.5142   3.5549   3.5633   3.5726   3.6171   3.6452   3.6709   3.6713
     3.7496   3.7948   3.8137   3.8534   3.8606   3.8980   3.9151   3.9807
     4.0011   4.0207   4.0327   4.0337   4.0519   4.0774   4.1160   4.1477
     4.1680   4.1714   4.1796   4.2688   4.2834   4.2943   4.3179   4.3304
     4.3581   4.3684   4.3993   4.4605   4.4862   4.5048   4.5562   4.5838
     4.6396   4.6429   4.6525   4.6687   4.6882   4.7024   4.7254   4.7490
     4.7652   4.7896   4.8210   4.8362   4.9387   4.9628   4.9834   4.9941
     5.0174   5.0209   5.1112   5.1151   5.1322   5.1541   5.1637   5.1794
     5.2005   5.2056   5.2330   5.2553   5.2577   5.2784   5.3479   5.3496
     5.3754   5.3774   5.3870   5.4376   5.4735   5.5086   5.5167   5.5445
     5.5470   5.5567   5.5716   5.5877   5.6412   5.6499   5.6913   5.7223
     5.7409   5.7624   5.7798   5.7997   5.8238   5.8297   5.8552   5.8720
     5.8766   5.8917   5.9130   5.9187   5.9799   5.9818   5.9979   6.0055
     6.0437   6.0565   6.0917   6.0955   6.1511   6.1976   6.2057   6.2331
     6.2786   6.2855   6.3116   6.3211   6.3484   6.3806   6.3832   6.3971
     6.4339   6.4580   6.4701   6.5293   6.5530   6.5683   6.5734   6.6131
     6.6200   6.6220   6.6428   6.6605   6.6683   6.7164   6.7290   6.7676
     6.7737   6.7825   6.7878   6.8132   6.8177   6.8210   6.8316   6.8617
     6.8631   6.9061   6.9101   6.9209   6.9500   6.9777   6.9834   6.9964
     7.0100   7.0101   7.0246   7.0302   7.0590   7.0720   7.0807   7.1075
     7.1189   7.1282   7.1571   7.1844   7.1889   7.1996   7.2151   7.2411
     7.2591   7.2822   7.2945   7.3110   7.3152   7.3622   7.3868   7.3924
     7.4130   7.4274   7.4686   7.4900   7.4904   7.5092   7.5239   7.5290
     7.5382   7.5495   7.6066   7.6212   7.6544   7.6762   7.6804   7.6960
     7.7325   7.7374   7.7763   7.7946   7.8099   7.8301   7.8324   7.8387
     7.8471   7.8781   7.8885   7.9576   7.9584   7.9627   7.9760   7.9761
     8.0076   8.0424   8.0523   8.0707   8.0955   8.1334   8.1460   8.1470
     8.1609   8.1833   8.2090   8.2367   8.2509   8.2608   8.2653   8.2703
     8.3245   8.3309   8.3493   8.3502   8.3804   8.4173   8.4285   8.4485
     8.4547   8.4846   8.4940   8.5159   8.5470   8.5641   8.5655   8.5751
     8.5866   8.6087   8.6397   8.6539   8.6620   8.6712   8.6805   8.6969
     8.7199   8.7594   8.7727   8.7776   8.7845   8.8334   8.8408   8.8479
     8.8489   8.8755   8.8898   8.9069   8.9295   8.9306   8.9671   8.9690
     8.9956   8.9972   8.9981   9.0056   9.0104   9.0182   9.0576   9.0644
     9.0646   9.0801   9.0811   9.1327   9.1530   9.1742   9.1866   9.1996
     9.2070   9.2155   9.2412   9.2580

          k = 0.0000 0.0000 0.0059 (147375 PWs)   bands (ev):

   -21.8191 -21.5058 -21.3592 -21.1895 -20.8130 -20.6204 -20.4936 -20.2586
   -20.2115 -19.8039 -19.7771 -19.5179 -19.3491 -19.0697 -18.8047 -18.6461
   -18.5283 -18.4513 -18.2591 -18.1390 -17.8308 -17.6923 -17.5269 -17.3224
   -17.2381 -17.0761 -16.8963 -16.7891 -16.5908 -16.3945 -15.9955 -15.7326
   -15.4601 -15.1239 -15.0630 -15.0233 -14.9362 -14.8016 -14.6742 -14.5787
   -14.4365 -13.5722 -13.4233 -13.4201 -13.4011 -13.2894 -13.2383 -13.0666
   -12.9950 -12.7794 -12.6135 -12.4643 -12.0747 -11.7987 -11.7160 -11.6445
   -11.4899 -11.2975 -11.2524 -11.1458 -11.0606 -10.9552 -10.7704 -10.5383
   -10.4018 -10.3567 -10.2048 -10.1086 -10.0318  -9.8859  -9.8111  -9.7850
    -9.7044  -9.6396  -9.5169  -9.4745  -9.3436  -9.3153  -9.3051  -9.1688
    -9.1684  -9.0929  -9.0126  -8.9929  -8.9229  -8.9046  -8.7401  -8.7257
    -8.7199  -8.6796  -8.5751  -8.5436  -8.5199  -8.3882  -8.3207  -8.1287
    -8.1264  -8.0943  -8.0175  -7.9934  -7.8494  -7.7879  -7.6137  -7.5790
    -7.5541  -7.5060  -7.2848  -7.2302  -7.1354  -7.0923  -7.0219  -6.8962
    -6.8183  -6.7325  -6.7001  -6.4603  -6.4586  -6.3101  -6.2755  -6.0967
    -6.0137  -5.9053  -5.8924  -5.7296  -5.4469  -5.3377  -5.1747  -5.1357
    -5.1261  -4.7738  -4.6575  -4.5633  -4.3683  -4.0059  -3.6880  -2.9034
    -2.2302  -1.5206  -1.2058  -0.9799  -0.8261  -0.7349  -0.5302  -0.4823
    -0.4258   0.0404   0.1904   0.3092   0.4954   0.5569   0.6705   0.7113
     0.8403   0.8839   0.9293   0.9410   0.9437   1.0714   1.1255   1.1352
     1.1644   1.2481   1.3649   1.4473   1.4487   1.5576   1.6609   1.7562
     1.7991   1.9215   1.9864   1.9914   2.0510   2.0633   2.1251   2.1569
     2.2041   2.2128   2.3481   2.3774   2.3810   2.4699   2.4805   2.5010
     2.5273   2.5359   2.5758   2.6050   2.6058   2.6345   2.6548   2.7000
     2.7125   2.7447   2.8742   2.8795   2.8828   2.9009   2.9373   2.9564
     2.9815   3.0357   3.0368   3.0704   3.0950   3.1329   3.1521   3.2120
     3.2224   3.2504   3.3236   3.3438   3.3658   3.3674   3.3701   3.3889
     3.5281   3.5565   3.5811   3.5968   3.6081   3.6436   3.6701   3.6888
     3.7311   3.7810   3.7874   3.8447   3.8637   3.8740   3.9351   3.9606
     3.9890   4.0036   4.0040   4.0238   4.0341   4.0666   4.1393   4.1496
     4.1709   4.1952   4.1962   4.2733   4.2810   4.2949   4.3021   4.3153
     4.3708   4.3853   4.4067   4.4434   4.4765   4.4964   4.5599   4.5898
     4.6373   4.6525   4.6574   4.6783   4.7007   4.7153   4.7527   4.7541
     4.7643   4.7761   4.8364   4.8730   4.9432   4.9434   4.9744   4.9918
     5.0001   5.0238   5.0913   5.1224   5.1418   5.1549   5.1551   5.1612
     5.1871   5.1884   5.2302   5.2435   5.2532   5.2918   5.3279   5.3556
     5.3699   5.3897   5.3975   5.4149   5.4768   5.4933   5.5187   5.5230
     5.5704   5.5704   5.5923   5.6002   5.6247   5.6515   5.7020   5.7121
     5.7371   5.7394   5.7844   5.7880   5.8273   5.8533   5.8600   5.8746
     5.9102   5.9182   5.9194   5.9391   5.9714   5.9826   5.9980   5.9986
     6.0312   6.0354   6.1203   6.1297   6.1526   6.1936   6.2080   6.2427
     6.2587   6.2862   6.3112   6.3284   6.3637   6.3680   6.3700   6.3760
     6.4423   6.4492   6.4596   6.5237   6.5240   6.5480   6.5818   6.6063
     6.6084   6.6132   6.6573   6.6574   6.6892   6.7090   6.7199   6.7319
     6.7661   6.7718   6.7863   6.8014   6.8022   6.8160   6.8234   6.8481
     6.8966   6.8983   6.9149   6.9309   6.9599   6.9755   6.9849   7.0030
     7.0078   7.0093   7.0126   7.0134   7.0578   7.0941   7.1043   7.1080
     7.1340   7.1415   7.1506   7.1638   7.1745   7.1997   7.2023   7.2474
     7.2823   7.2831   7.3002   7.3280   7.3368   7.3730   7.3949   7.4067
     7.4229   7.4249   7.4866   7.4958   7.5009   7.5236   7.5324   7.5377
     7.5707   7.5884   7.6114   7.6374   7.6435   7.6483   7.6990   7.7069
     7.7073   7.7240   7.7482   7.7578   7.7830   7.7986   7.8267   7.8277
     7.8353   7.8650   7.8872   7.9643   7.9648   7.9654   7.9696   7.9794
     8.0022   8.0216   8.0711   8.0741   8.0984   8.1293   8.1472   8.1556
     8.2074   8.2185   8.2211   8.2514   8.2598   8.2632   8.2703   8.2943
     8.2975   8.3379   8.3405   8.3833   8.3916   8.4111   8.4256   8.4290
     8.4553   8.4991   8.5098   8.5199   8.5338   8.5413   8.5421   8.5641
     8.5691   8.5755   8.6283   8.6565   8.6600   8.6727   8.6790   8.6849
     8.7237   8.7686   8.7725   8.7939   8.7940   8.8073   8.8199   8.8289
     8.8501   8.8602   8.8614   8.9079   8.9094   8.9207   8.9401   8.9701
     8.9748   8.9862   9.0146   9.0215   9.0272   9.0386   9.0467   9.0511
     9.0522   9.0827   9.1189   9.1346   9.1455   9.1639   9.1998   9.2002
     9.2044   9.2122   9.2269   9.2424

          k = 0.0000 0.0000 0.0070 (147319 PWs)   bands (ev):

   -21.8177 -21.5181 -21.3435 -21.1888 -20.8200 -20.6097 -20.5204 -20.2582
   -20.1828 -19.8278 -19.7777 -19.4914 -19.3446 -19.0696 -18.8403 -18.6666
   -18.5302 -18.4229 -18.2258 -18.1703 -17.8095 -17.6935 -17.5105 -17.3300
   -17.2461 -17.0979 -16.8887 -16.7637 -16.6127 -16.3983 -16.0200 -15.7303
   -15.4389 -15.0991 -15.0738 -15.0311 -14.9330 -14.8050 -14.6550 -14.5775
   -14.4259 -13.5921 -13.4736 -13.4445 -13.4111 -13.2965 -13.2578 -13.0456
   -12.9635 -12.7238 -12.5985 -12.4524 -12.0817 -11.8152 -11.7269 -11.6485
   -11.4889 -11.3101 -11.2690 -11.1354 -11.0529 -10.9336 -10.7404 -10.5428
   -10.4417 -10.3778 -10.2225 -10.0854 -10.0274  -9.8842  -9.8064  -9.7429
    -9.7209  -9.6464  -9.5319  -9.4660  -9.3300  -9.3246  -9.3200  -9.1898
    -9.1676  -9.1050  -8.9999  -8.9974  -8.9133  -8.8943  -8.7354  -8.7329
    -8.7111  -8.6672  -8.5684  -8.5305  -8.5058  -8.3911  -8.3521  -8.1369
    -8.1262  -8.0941  -8.0383  -7.9599  -7.8700  -7.7648  -7.5908  -7.5833
    -7.5798  -7.5197  -7.2788  -7.1982  -7.1295  -7.1273  -7.0199  -6.8982
    -6.8180  -6.7241  -6.7034  -6.4909  -6.4389  -6.3406  -6.2762  -6.0707
    -6.0175  -5.9085  -5.8521  -5.7597  -5.4440  -5.3380  -5.1761  -5.1267
    -5.1086  -4.8036  -4.6539  -4.5742  -4.3387  -4.0064  -3.7021  -2.9208
    -2.2141  -1.5060  -1.2044  -0.9767  -0.8437  -0.7432  -0.5022  -0.4808
    -0.4148   0.0111   0.1900   0.2893   0.4975   0.5591   0.6627   0.7030
     0.8423   0.8674   0.8866   0.9271   0.9551   1.0894   1.1552   1.1609
     1.1690   1.2304   1.3673   1.4692   1.5049   1.5401   1.6605   1.7779
     1.7846   1.9165   1.9903   2.0103   2.0362   2.0637   2.1295   2.1353
     2.2001   2.2097   2.3421   2.3569   2.3614   2.4684   2.4786   2.5033
     2.5113   2.5237   2.5789   2.6229   2.6255   2.6483   2.6667   2.6894
     2.7201   2.7525   2.8593   2.8645   2.8856   2.8960   2.9351   2.9501
     2.9655   3.0176   3.0378   3.1095   3.1116   3.1386   3.1508   3.1773
     3.2444   3.2605   3.3259   3.3276   3.3610   3.3774   3.3880   3.4295
     3.5392   3.5585   3.5854   3.5936   3.6395   3.6414   3.6683   3.7126
     3.7128   3.7601   3.7651   3.8272   3.8294   3.8980   3.9348   3.9390
     3.9583   3.9773   3.9869   4.0151   4.0383   4.0619   4.1525   4.1632
     4.1692   4.2210   4.2234   4.2490   4.2687   4.2706   4.2808   4.3375
     4.4015   4.4032   4.4160   4.4297   4.4535   4.5084   4.5613   4.5708
     4.6320   4.6509   4.6771   4.6877   4.7171   4.7180   4.7322   4.7887
     4.7915   4.7940   4.8529   4.9099   4.9140   4.9388   4.9521   4.9676
     4.9898   5.0646   5.0733   5.1086   5.1203   5.1433   5.1539   5.1628
     5.1767   5.1950   5.2142   5.2510   5.2608   5.2909   5.3041   5.3255
     5.3923   5.4004   5.4023   5.4079   5.4792   5.4813   5.4827   5.5307
     5.5522   5.5856   5.5934   5.6225   5.6600   5.6707   5.6832   5.6958
     5.7263   5.7474   5.7780   5.7965   5.8291   5.8502   5.8768   5.8962
     5.9072   5.9272   5.9460   5.9600   5.9827   5.9922   5.9953   6.0040
     6.0077   6.0227   6.1438   6.1582   6.1595   6.1898   6.1999   6.2151
     6.2678   6.2843   6.3180   6.3352   6.3481   6.3528   6.3547   6.4130
     6.4147   6.4302   6.4834   6.5047   6.5121   6.5142   6.5891   6.5985
     6.6068   6.6136   6.6557   6.6608   6.6885   6.7020   6.7039   6.7061
     6.7348   6.7559   6.7635   6.7866   6.8087   6.8285   6.8330   6.8523
     6.8919   6.9036   6.9290   6.9347   6.9549   6.9571   6.9871   6.9946
     6.9951   7.0009   7.0091   7.0299   7.0967   7.1034   7.1087   7.1110
     7.1314   7.1380   7.1535   7.1655   7.1754   7.2050   7.2254   7.2345
     7.2906   7.2995   7.3160   7.3436   7.3569   7.3733   7.3828   7.4084
     7.4379   7.4670   7.4888   7.5016   7.5152   7.5283   7.5359   7.5518
     7.5733   7.6074   7.6196   7.6389   7.6595   7.6599   7.6825   7.6983
     7.7081   7.7131   7.7346   7.7396   7.7490   7.7821   7.8026   7.8283
     7.8343   7.8428   7.8919   7.9607   7.9620   7.9720   7.9721   7.9936
     7.9962   8.0017   8.0749   8.0933   8.1101   8.1149   8.1488   8.1754
     8.1990   8.2451   8.2518   8.2570   8.2616   8.2671   8.2762   8.3002
     8.3087   8.3441   8.3471   8.3572   8.3662   8.4114   8.4517   8.4519
     8.4837   8.5013   8.5128   8.5190   8.5190   8.5230   8.5317   8.5539
     8.5587   8.5635   8.5934   8.6365   8.6691   8.6752   8.6891   8.6896
     8.7270   8.7588   8.7694   8.7780   8.7828   8.7873   8.8021   8.8306
     8.8344   8.8511   8.8648   8.8916   8.9045   8.9078   8.9116   8.9510
     8.9518   8.9981   9.0003   9.0115   9.0240   9.0398   9.0399   9.0726
     9.0829   9.0987   9.1014   9.1267   9.1374   9.1892   9.1917   9.1998
     9.2063   9.2200   9.2310   9.2452

          k = 0.0000 0.0000 0.0082 (147293 PWs)   bands (ev):

   -21.8161 -21.5301 -21.3274 -21.1881 -20.8273 -20.5981 -20.5469 -20.2579
   -20.1539 -19.8519 -19.7783 -19.4643 -19.3394 -19.0694 -18.8761 -18.6879
   -18.5325 -18.3943 -18.2016 -18.1907 -17.7898 -17.6949 -17.4912 -17.3383
   -17.2570 -17.1167 -16.8801 -16.7447 -16.6313 -16.4028 -16.0471 -15.7297
   -15.4135 -15.0843 -15.0771 -15.0338 -14.9312 -14.8079 -14.6347 -14.5748
   -14.4150 -13.6143 -13.5297 -13.4712 -13.4210 -13.2980 -13.2757 -13.0245
   -12.9327 -12.6704 -12.5788 -12.4387 -12.0892 -11.8334 -11.7394 -11.6536
   -11.4882 -11.3235 -11.2879 -11.1225 -11.0410 -10.9105 -10.7096 -10.5482
   -10.4856 -10.3976 -10.2372 -10.0638 -10.0225  -9.8822  -9.8014  -9.7371
    -9.7028  -9.6562  -9.5466  -9.4604  -9.3495  -9.3259  -9.3052  -9.2087
    -9.1666  -9.1172  -9.0054  -8.9903  -8.9076  -8.8813  -8.7453  -8.7237
    -8.6987  -8.6538  -8.5607  -8.5163  -8.4907  -8.3944  -8.3833  -8.1464
    -8.1260  -8.0940  -8.0586  -7.9265  -7.8896  -7.7421  -7.6125  -7.5806
    -7.5682  -7.5345  -7.2727  -7.1657  -7.1627  -7.1227  -7.0178  -6.9013
    -6.8177  -6.7483  -6.6742  -6.5247  -6.4177  -6.3712  -6.2772  -6.0432
    -6.0221  -5.9124  -5.8112  -5.7916  -5.4412  -5.3384  -5.1784  -5.1275
    -5.0790  -4.8341  -4.6495  -4.5872  -4.3082  -4.0069  -3.7185  -2.9404
    -2.1962  -1.4890  -1.2027  -0.9777  -0.8547  -0.7523  -0.4855  -0.4675
    -0.4028  -0.0215   0.1894   0.2705   0.5001   0.5616   0.6129   0.7339
     0.8439   0.8455   0.8520   0.9108   0.9727   1.1066   1.1753   1.1756
     1.1959   1.2132   1.3701   1.4909   1.5235   1.5609   1.6596   1.7713
     1.7998   1.9111   1.9951   2.0105   2.0405   2.0630   2.1121   2.1340
     2.1872   2.2093   2.3326   2.3449   2.3456   2.4638   2.4697   2.4981
     2.5061   2.5079   2.5851   2.6363   2.6409   2.6434   2.6862   2.6984
     2.7278   2.7681   2.8351   2.8490   2.8708   2.9041   2.9304   2.9363
     2.9766   3.0028   3.0367   3.1075   3.1439   3.1466   3.1495   3.1701
     3.2597   3.2668   3.3045   3.3288   3.3616   3.3959   3.4105   3.4702
     3.5475   3.5608   3.5680   3.6098   3.6382   3.6658   3.6741   3.6946
     3.7328   3.7366   3.7527   3.7955   3.8088   3.8859   3.9119   3.9227
     3.9466   3.9698   3.9845   3.9959   4.0288   4.0793   4.1569   4.1707
     4.1868   4.2211   4.2402   4.2451   4.2458   4.2495   4.2624   4.3742
     4.3948   4.4190   4.4259   4.4325   4.4568   4.5241   4.5452   4.5597
     4.6280   4.6437   4.6897   4.6922   4.6967   4.7150   4.7771   4.8022
     4.8222   4.8374   4.8695   4.8753   4.9226   4.9284   4.9359   4.9608
     4.9933   5.0504   5.0969   5.0992   5.1059   5.1258   5.1260   5.1576
     5.1702   5.2065   5.2341   5.2348   5.2575   5.2791   5.2990   5.3122
     5.3925   5.4058   5.4127   5.4132   5.4463   5.4791   5.4916   5.5024
     5.5366   5.5870   5.6140   5.6474   5.6523   5.6805   5.6978   5.6983
     5.7209   5.7695   5.7711   5.8056   5.8361   5.8454   5.8816   5.9012
     5.9258   5.9285   5.9361   5.9733   5.9932   6.0022   6.0045   6.0077
     6.0114   6.0382   6.1474   6.1584   6.1657   6.1811   6.1993   6.2227
     6.2595   6.2703   6.3354   6.3359   6.3375   6.3409   6.3588   6.3880
     6.4032   6.4463   6.4775   6.4908   6.5058   6.5137   6.5700   6.5979
     6.6100   6.6179   6.6258   6.6541   6.6867   6.6870   6.6908   6.7040
     6.7184   6.7205   6.7454   6.7805   6.8201   6.8216   6.8455   6.8823
     6.8828   6.8947   6.9088   6.9292   6.9372   6.9653   6.9822   6.9907
     6.9978   7.0054   7.0395   7.0478   7.0649   7.0863   7.0941   7.1433
     7.1447   7.1540   7.1663   7.1753   7.2039   7.2071   7.2369   7.2549
     7.2931   7.3000   7.3396   7.3424   7.3619   7.3684   7.4067   7.4163
     7.4517   7.4844   7.5029   7.5080   7.5105   7.5169   7.5285   7.5485
     7.5972   7.6091   7.6450   7.6513   7.6579   7.6646   7.6770   7.6871
     7.6875   7.6884   7.7219   7.7613   7.7650   7.7652   7.7799   7.8216
     7.8288   7.8426   7.8927   7.9420   7.9646   7.9810   7.9812   7.9827
     7.9850   8.0252   8.0686   8.1088   8.1169   8.1244   8.1425   8.1742
     8.1927   8.2364   8.2460   8.2509   8.2672   8.2881   8.2911   8.2945
     8.3305   8.3474   8.3478   8.3511   8.3766   8.4069   8.4556   8.4596
     8.4823   8.5007   8.5024   8.5243   8.5353   8.5368   8.5388   8.5414
     8.5592   8.5617   8.5632   8.6228   8.6467   8.6929   8.6942   8.6965
     8.7282   8.7283   8.7436   8.7525   8.7628   8.7780   8.7978   8.8252
     8.8500   8.8514   8.8611   8.8698   8.8762   8.8968   8.9078   8.9402
     8.9441   8.9678   8.9907   8.9995   9.0104   9.0296   9.0462   9.0827
     9.0963   9.1037   9.1108   9.1276   9.1291   9.1781   9.1986   9.2080
     9.2206   9.2316   9.2451   9.2592

          k = 0.0000 0.0000 0.0094 (147291 PWs)   bands (ev):

   -21.8143 -21.5419 -21.3110 -21.1873 -20.8349 -20.5856 -20.5732 -20.2577
   -20.1250 -19.8758 -19.7788 -19.4369 -19.3335 -19.0693 -18.9121 -18.7094
   -18.5355 -18.3656 -18.2325 -18.1541 -17.7720 -17.6967 -17.4694 -17.3471
   -17.2710 -17.1321 -16.8707 -16.7408 -16.6374 -16.4082 -16.0759 -15.7312
   -15.3845 -15.0943 -15.0708 -15.0187 -14.9308 -14.8101 -14.6137 -14.5702
   -14.4039 -13.6386 -13.5866 -13.5008 -13.4317 -13.2961 -13.2922 -13.0036
   -12.9029 -12.6232 -12.5509 -12.4236 -12.0968 -11.8529 -11.7534 -11.6601
   -11.4884 -11.3367 -11.3082 -11.1082 -11.0259 -10.8863 -10.6791 -10.5579
   -10.5276 -10.4158 -10.2503 -10.0445 -10.0171  -9.8799  -9.7957  -9.7520
    -9.6696  -9.6662  -9.5609  -9.4591  -9.3615  -9.3328  -9.2855  -9.2242
    -9.1656  -9.1294  -9.0162  -8.9843  -8.9036  -8.8676  -8.7553  -8.7131
    -8.6830  -8.6397  -8.5519  -8.5015  -8.4747  -8.4142  -8.3981  -8.1571
    -8.1258  -8.0939  -8.0783  -7.9079  -7.8932  -7.7202  -7.6414  -7.5811
    -7.5498  -7.5460  -7.2667  -7.1984  -7.1331  -7.1149  -7.0154  -6.9050
    -6.8173  -6.7727  -6.6452  -6.5596  -6.4011  -6.3967  -6.2783  -6.0273
    -6.0148  -5.9168  -5.8247  -5.7701  -5.4383  -5.3388  -5.1813  -5.1286
    -5.0480  -4.8650  -4.6442  -4.6021  -4.2771  -4.0075  -3.7370  -2.9615
    -2.1769  -1.4697  -1.2007  -0.9853  -0.8567  -0.7619  -0.4835  -0.4394
    -0.3899  -0.0565   0.1888   0.2525   0.5030   0.5621   0.5646   0.7623
     0.8058   0.8338   0.8489   0.8947   0.9942   1.1222   1.1833   1.1961
     1.1971   1.2304   1.3733   1.5017   1.5185   1.6165   1.6578   1.7597
     1.8219   1.9052   1.9950   2.0011   2.0573   2.0610   2.0927   2.1383
     2.1679   2.2102   2.3084   2.3282   2.3563   2.4525   2.4565   2.4889
     2.4914   2.5092   2.5892   2.6220   2.6580   2.6588   2.6937   2.7290
     2.7358   2.7864   2.8138   2.8335   2.8573   2.8777   2.9391   2.9399
     2.9889   2.9957   3.0321   3.0917   3.1144   3.1670   3.1897   3.1901
     3.2517   3.2800   3.2894   3.3323   3.3641   3.4215   3.4329   3.5106
     3.5506   3.5539   3.5634   3.6287   3.6339   3.6622   3.6765   3.7001
     3.7064   3.7380   3.7623   3.7727   3.7895   3.8317   3.8862   3.9249
     3.9461   3.9531   3.9771   4.0064   4.0135   4.1010   4.1639   4.1730
     4.1894   4.2098   4.2103   4.2125   4.2447   4.2706   4.2844   4.3683
     4.4107   4.4114   4.4377   4.4542   4.4750   4.5268   4.5454   4.5552
     4.6229   4.6250   4.6758   4.6959   4.7124   4.7153   4.8065   4.8254
     4.8425   4.8505   4.8827   4.8828   4.9040   4.9076   4.9271   4.9928
     5.0030   5.0217   5.0787   5.0895   5.0907   5.1088   5.1480   5.1579
     5.1634   5.1905   5.2043   5.2382   5.2660   5.2864   5.2974   5.3165
     5.3864   5.4027   5.4044   5.4195   5.4435   5.4535   5.4775   5.5118
     5.5411   5.5826   5.5977   5.6488   5.6550   5.6865   5.7131   5.7246
     5.7344   5.7708   5.7974   5.8123   5.8382   5.8470   5.8772   5.8891
     5.9238   5.9267   5.9467   5.9816   5.9934   6.0060   6.0087   6.0183
     6.0444   6.0823   6.1195   6.1480   6.1564   6.1948   6.2076   6.2308
     6.2345   6.2723   6.3220   6.3240   6.3442   6.3447   6.3631   6.3828
     6.3863   6.4401   6.4552   6.4891   6.5239   6.5360   6.5490   6.5675
     6.5865   6.6032   6.6322   6.6506   6.6662   6.6720   6.6858   6.6923
     6.6976   6.7307   6.7327   6.7761   6.8124   6.8360   6.8429   6.8643
     6.8658   6.8869   6.9182   6.9332   6.9363   6.9674   6.9784   6.9940
     7.0008   7.0029   7.0491   7.0637   7.0642   7.0718   7.0906   7.1306
     7.1689   7.1746   7.1840   7.1960   7.2160   7.2287   7.2576   7.2860
     7.2895   7.3084   7.3328   7.3560   7.3581   7.3828   7.4002   7.4448
     7.4527   7.4722   7.4851   7.5028   7.5149   7.5181   7.5526   7.5681
     7.6044   7.6083   7.6238   7.6280   7.6449   7.6527   7.6770   7.6938
     7.6968   7.7141   7.7363   7.7488   7.7651   7.7656   7.8032   7.8044
     7.8214   7.8653   7.8919   7.9205   7.9695   7.9751   7.9769   7.9919
     7.9942   8.0494   8.0563   8.1106   8.1110   8.1397   8.1401   8.1650
     8.2050   8.2224   8.2268   8.2336   8.2660   8.2791   8.3028   8.3083
     8.3322   8.3325   8.3597   8.3860   8.3916   8.4211   8.4260   8.4575
     8.4581   8.4939   8.5120   8.5182   8.5256   8.5418   8.5457   8.5566
     8.5699   8.5719   8.5880   8.6119   8.6251   8.6783   8.6896   8.6901
     8.7114   8.7229   8.7346   8.7441   8.7540   8.7637   8.7830   8.8194
     8.8342   8.8532   8.8623   8.8636   8.8643   8.8747   8.9036   8.9353
     8.9437   8.9446   8.9693   8.9759   8.9914   9.0237   9.0641   9.0815
     9.0870   9.0992   9.1088   9.1586   9.1607   9.1645   9.1814   9.2084
     9.2405   9.2450   9.2533   9.2601

          k = 0.0000 0.0000 0.0106 (147327 PWs)   bands (ev):

   -21.8122 -21.5534 -21.2943 -21.1864 -20.8424 -20.5992 -20.5725 -20.2575
   -20.0961 -19.8996 -19.7790 -19.4092 -19.3271 -19.0690 -18.9482 -18.7310
   -18.5393 -18.3371 -18.2627 -18.1164 -17.7557 -17.6988 -17.4459 -17.3557
   -17.2880 -17.1442 -16.8608 -16.7570 -16.6257 -16.4145 -16.1060 -15.7347
   -15.3524 -15.1035 -15.0774 -14.9888 -14.9320 -14.8119 -14.5920 -14.5639
   -14.3931 -13.6653 -13.6439 -13.5316 -13.4432 -13.3076 -13.2924 -12.9829
   -12.8740 -12.5870 -12.5104 -12.4073 -12.1042 -11.8733 -11.7685 -11.6682
   -11.4906 -11.3483 -11.3287 -11.0932 -11.0085 -10.8611 -10.6527 -10.5883
   -10.5465 -10.4321 -10.2627 -10.0285 -10.0113  -9.8773  -9.7894  -9.7648
    -9.6872  -9.6346  -9.5749  -9.4619  -9.3659  -9.3407  -9.2655  -9.2350
    -9.1644  -9.1411  -9.0291  -8.9823  -8.8998  -8.8540  -8.7652  -8.7016
    -8.6653  -8.6252  -8.5417  -8.4867  -8.4581  -8.4449  -8.4021  -8.1687
    -8.1255  -8.0972  -8.0938  -7.9249  -7.8602  -7.6998  -7.6701  -7.5812
    -7.5647  -7.5244  -7.2607  -7.2342  -7.1063  -7.1002  -7.0129  -6.9095
    -6.8168  -6.7972  -6.6165  -6.5956  -6.4303  -6.3760  -6.2798  -6.0332
    -5.9857  -5.9218  -5.8586  -5.7287  -5.4355  -5.3393  -5.1847  -5.1300
    -5.0164  -4.8958  -4.6380  -4.6189  -4.2459  -4.0082  -3.7576  -2.9840
    -2.1566  -1.4484  -1.1985  -0.9997  -0.8497  -0.7718  -0.4828  -0.4096
    -0.3766  -0.0930   0.1881   0.2349   0.5064   0.5105   0.5679   0.7673
     0.7878   0.8183   0.8519   0.8790   1.0196   1.1354   1.1788   1.1972
     1.2169   1.2644   1.3771   1.4875   1.5393   1.6547   1.6712   1.7501
     1.8441   1.8990   1.9779   2.0086   2.0406   2.0834   2.0840   2.1416
     2.1451   2.2118   2.2846   2.3114   2.3715   2.4355   2.4397   2.4691
     2.4904   2.5128   2.5832   2.6154   2.6667   2.6761   2.7080   2.7442
     2.7566   2.7989   2.8046   2.8186   2.8467   2.8479   2.9415   2.9430
     3.0018   3.0038   3.0207   3.0748   3.0916   3.1895   3.2092   3.2310
     3.2402   3.2560   3.3116   3.3370   3.3677   3.4500   3.4552   3.5339
     3.5494   3.5594   3.5662   3.6277   3.6488   3.6571   3.6585   3.6827
     3.7000   3.7307   3.7534   3.7636   3.7841   3.8054   3.8597   3.9051
     3.9368   3.9590   3.9607   4.0049   4.0293   4.1196   4.1601   4.1662
     4.1737   4.1817   4.1840   4.2279   4.2391   4.2954   4.3086   4.3446
     4.4046   4.4446   4.4483   4.4553   4.4911   4.5356   4.5484   4.5729
     4.5929   4.6220   4.6723   4.6996   4.7105   4.7321   4.7720   4.8476
     4.8553   4.8744   4.8794   4.8958   4.9139   4.9153   4.9298   4.9896
     5.0138   5.0309   5.0560   5.0588   5.0834   5.0926   5.1384   5.1595
     5.1597   5.1902   5.2065   5.2111   5.2695   5.2877   5.3152   5.3368
     5.3679   5.3794   5.3982   5.4121   5.4292   5.4661   5.4755   5.5359
     5.5437   5.5617   5.5762   5.6411   5.6677   5.7035   5.7079   5.7491
     5.7563   5.7880   5.8040   5.8274   5.8357   5.8475   5.8653   5.8907
     5.8974   5.9363   5.9599   5.9872   6.0077   6.0166   6.0243   6.0273
     6.0794   6.0918   6.1204   6.1440   6.1464   6.1895   6.1930   6.2160
     6.2481   6.2725   6.3062   6.3156   6.3349   6.3515   6.3549   6.3804
     6.4024   6.4204   6.4495   6.4886   6.5167   6.5263   6.5500   6.5558
     6.5720   6.5747   6.6186   6.6294   6.6597   6.6618   6.6818   6.6874
     6.7106   6.7294   6.7425   6.7695   6.7899   6.8106   6.8477   6.8527
     6.8643   6.8829   6.9238   6.9318   6.9359   6.9706   6.9836   6.9852
     6.9987   7.0081   7.0498   7.0579   7.0755   7.0790   7.1143   7.1270
     7.1681   7.1936   7.1945   7.2242   7.2357   7.2439   7.2838   7.3017
     7.3164   7.3165   7.3274   7.3495   7.3726   7.3864   7.3953   7.4063
     7.4693   7.4700   7.4839   7.5078   7.5198   7.5417   7.5496   7.5611
     7.5825   7.5838   7.6146   7.6209   7.6497   7.6576   7.6869   7.6901
     7.7247   7.7301   7.7421   7.7513   7.7599   7.7699   7.7943   7.8192
     7.8530   7.8601   7.8931   7.9295   7.9636   7.9738   7.9771   7.9963
     8.0042   8.0443   8.0731   8.0774   8.1169   8.1554   8.1563   8.1563
     8.1999   8.2003   8.2166   8.2328   8.2629   8.2664   8.3022   8.3113
     8.3347   8.3381   8.3688   8.3747   8.3807   8.4312   8.4463   8.4585
     8.4591   8.4786   8.4794   8.5064   8.5100   8.5489   8.5530   8.5580
     8.5857   8.5910   8.6074   8.6164   8.6343   8.6562   8.6669   8.6786
     8.7160   8.7197   8.7299   8.7344   8.7562   8.7620   8.7712   8.7886
     8.8344   8.8391   8.8438   8.8568   8.8599   8.8656   8.8948   8.9055
     8.9441   8.9461   8.9594   8.9645   8.9834   9.0236   9.0604   9.0679
     9.0859   9.1071   9.1135   9.1527   9.1539   9.1931   9.1941   9.2075
     9.2348   9.2420   9.2645   9.2694

          k = 0.0000 0.0000 0.0117 (147325 PWs)   bands (ev):

   -21.8100 -21.5645 -21.2772 -21.1855 -20.8498 -20.6250 -20.5588 -20.2573
   -20.0674 -19.9232 -19.7790 -19.3813 -19.3203 -19.0688 -18.9841 -18.7524
   -18.5440 -18.3086 -18.2920 -18.0777 -17.7408 -17.7014 -17.4228 -17.3622
   -17.3074 -17.1533 -16.8506 -16.7857 -16.6036 -16.4217 -16.1369 -15.7403
   -15.3178 -15.1115 -15.0871 -14.9539 -14.9343 -14.8134 -14.5698 -14.5558
   -14.3827 -13.7015 -13.6942 -13.5624 -13.4551 -13.3218 -13.2878 -12.9624
   -12.8461 -12.5596 -12.4596 -12.3904 -12.1109 -11.8942 -11.7844 -11.6780
   -11.4959 -11.3570 -11.3488 -11.0781 -10.9896 -10.8349 -10.6577 -10.6055
   -10.5481 -10.4464 -10.2750 -10.0167 -10.0055  -9.8744  -9.7826  -9.7743
    -9.7090  -9.6096  -9.5884  -9.4666  -9.3644  -9.3488  -9.2451  -9.2401
    -9.1631  -9.1524  -9.0434  -8.9844  -8.8952  -8.8406  -8.7749  -8.6895
    -8.6471  -8.6106  -8.5297  -8.4752  -8.4725  -8.4408  -8.4064  -8.1808
    -8.1253  -8.1152  -8.0935  -7.9403  -7.8278  -7.6985  -7.6829  -7.5806
    -7.5772  -7.5035  -7.2701  -7.2549  -7.0970  -7.0672  -7.0104  -6.9145
    -6.8218  -6.8162  -6.6323  -6.5883  -6.4586  -6.3557  -6.2816  -6.0398
    -5.9562  -5.9273  -5.8929  -5.6872  -5.4326  -5.3400  -5.1883  -5.1319
    -4.9846  -4.9263  -4.6375  -4.6306  -4.2146  -4.0089  -3.7800  -3.0076
    -2.1355  -1.4251  -1.1961  -1.0185  -0.8357  -0.7819  -0.4822  -0.3795
    -0.3633  -0.1302   0.1872   0.2175   0.4583   0.5101   0.5717   0.7301
     0.8030   0.8102   0.8555   0.8636   1.0490   1.1455   1.1640   1.2117
     1.2378   1.2979   1.3814   1.4717   1.5625   1.6500   1.7242   1.7429
     1.8660   1.8927   1.9605   2.0167   2.0180   2.0829   2.1056   2.1215
     2.1429   2.2139   2.2623   2.2946   2.3893   2.4161   2.4184   2.4513
     2.4922   2.5168   2.5678   2.6174   2.6662   2.6921   2.7247   2.7531
     2.7760   2.7939   2.8048   2.8077   2.8355   2.8440   2.9334   2.9477
     2.9999   3.0144   3.0243   3.0584   3.0781   3.2128   3.2209   3.2269
     3.2407   3.2720   3.3303   3.3460   3.3721   3.4770   3.4785   3.5181
     3.5649   3.5690   3.5807   3.6196   3.6439   3.6496   3.6647   3.6673
     3.6864   3.7036   3.7145   3.7616   3.7787   3.8335   3.8414   3.8869
     3.9210   3.9419   3.9535   4.0169   4.0522   4.1297   4.1304   4.1344
     4.1518   4.1832   4.1941   4.2167   4.2573   4.3014   4.3204   4.3560
     4.4002   4.4215   4.4678   4.4820   4.5034   4.5403   4.5636   4.5649
     4.6049   4.6178   4.6720   4.7035   4.7100   4.7222   4.7514   4.8351
     4.8553   4.8617   4.9083   4.9216   4.9230   4.9290   4.9566   4.9781
     5.0161   5.0313   5.0395   5.0639   5.0731   5.0771   5.0988   5.1499
     5.1633   5.1833   5.2121   5.2328   5.2494   5.2936   5.3310   5.3324
     5.3510   5.3702   5.3725   5.4260   5.4273   5.4737   5.4904   5.5306
     5.5441   5.5613   5.5697   5.6298   5.6718   5.7141   5.7147   5.7628
     5.7678   5.8118   5.8123   5.8161   5.8220   5.8419   5.8535   5.9030
     5.9064   5.9496   5.9753   5.9901   6.0104   6.0287   6.0514   6.0528
     6.0530   6.1303   6.1307   6.1342   6.1491   6.1578   6.1939   6.2082
     6.2430   6.2675   6.2901   6.3124   6.3293   6.3526   6.3649   6.3670
     6.3916   6.4402   6.4620   6.4661   6.4883   6.5023   6.5332   6.5442
     6.5577   6.5694   6.5950   6.6204   6.6501   6.6728   6.6836   6.6995
     6.7203   6.7310   6.7418   6.7562   6.7612   6.8115   6.8336   6.8438
     6.8716   6.8817   6.9069   6.9114   6.9494   6.9743   6.9882   7.0045
     7.0070   7.0122   7.0307   7.0499   7.0768   7.1022   7.1184   7.1595
     7.1678   7.2052   7.2140   7.2335   7.2504   7.2713   7.2938   7.3050
     7.3347   7.3352   7.3437   7.3460   7.3550   7.3722   7.3826   7.4312
     7.4611   7.4774   7.4892   7.5018   7.5158   7.5189   7.5438   7.5625
     7.5686   7.5722   7.6000   7.6371   7.6665   7.6751   7.6807   7.6999
     7.7212   7.7414   7.7513   7.7562   7.7604   7.7817   7.8096   7.8296
     7.8315   7.8989   7.9062   7.9388   7.9586   7.9741   7.9808   7.9933
     8.0112   8.0378   8.0679   8.0950   8.1246   8.1334   8.1459   8.1712
     8.1945   8.2028   8.2061   8.2420   8.2496   8.2662   8.2868   8.3171
     8.3236   8.3376   8.3630   8.3743   8.3757   8.4181   8.4452   8.4525
     8.4600   8.4623   8.4626   8.4927   8.5230   8.5243   8.5568   8.5573
     8.5970   8.6085   8.6099   8.6266   8.6432   8.6436   8.6754   8.6897
     8.7102   8.7135   8.7182   8.7351   8.7456   8.7711   8.7774   8.7809
     8.7902   8.8203   8.8322   8.8429   8.8592   8.8617   8.8877   8.8902
     8.9399   8.9432   8.9598   8.9625   8.9917   9.0262   9.0474   9.0535
     9.0864   9.0948   9.1327   9.1349   9.1460   9.2095   9.2103   9.2133
     9.2366   9.2433   9.2472   9.2753

          k = 0.0000 0.0000 0.0129 (147299 PWs)   bands (ev):

   -21.8075 -21.5753 -21.2599 -21.1844 -20.8571 -20.6505 -20.5446 -20.2571
   -20.0390 -19.9465 -19.7783 -19.3532 -19.3130 -19.0684 -19.0198 -18.7734
   -18.5501 -18.3199 -18.2803 -18.0382 -17.7271 -17.7044 -17.4071 -17.3599
   -17.3285 -17.1602 -16.8402 -16.8201 -16.5774 -16.4301 -16.1680 -15.7477
   -15.2817 -15.1178 -15.0976 -14.9376 -14.9167 -14.8145 -14.5474 -14.5463
   -14.3729 -13.7592 -13.7254 -13.5925 -13.4673 -13.3352 -13.2829 -12.9422
   -12.8193 -12.5358 -12.4041 -12.3732 -12.1166 -11.9154 -11.8008 -11.6896
   -11.5052 -11.3679 -11.3621 -11.0635 -10.9700 -10.8079 -10.7030 -10.5943
   -10.5380 -10.4584 -10.2876 -10.0103  -9.9997  -9.8713  -9.7796  -9.7753
    -9.7345  -9.6015  -9.5928  -9.4710  -9.3596  -9.3563  -9.2387  -9.2243
    -9.1631  -9.1618  -9.0583  -8.9904  -8.8891  -8.8274  -8.7843  -8.6771
    -8.6301  -8.5962  -8.5155  -8.5052  -8.4597  -8.4230  -8.4108  -8.1927
    -8.1320  -8.1250  -8.0930  -7.9542  -7.7964  -7.7265  -7.6734  -7.5833
    -7.5788  -7.4835  -7.3057  -7.2494  -7.0869  -7.0343  -7.0078  -6.9200
    -6.8463  -6.8152  -6.6696  -6.5606  -6.4860  -6.3357  -6.2838  -6.0471
    -5.9334  -5.9273  -5.9263  -5.6457  -5.4297  -5.3408  -5.1921  -5.1345
    -4.9561  -4.9533  -4.6578  -4.6218  -4.1835  -4.0096  -3.8043  -3.0318
    -2.1139  -1.4001  -1.1935  -1.0399  -0.8167  -0.7922  -0.4817  -0.3509
    -0.3494  -0.1668   0.1862   0.2001   0.4058   0.5142   0.5758   0.6941
     0.7879   0.8296   0.8485   0.8595   1.0818   1.1449   1.1580   1.2292
     1.2587   1.3309   1.3862   1.4560   1.5863   1.6437   1.7382   1.7745
     1.8863   1.8868   1.9429   1.9917   2.0301   2.0843   2.0941   2.1315
     2.1400   2.2162   2.2435   2.2782   2.3931   2.3959   2.4088   2.4365
     2.4952   2.5213   2.5498   2.6216   2.6561   2.7061   2.7355   2.7617
     2.7801   2.7907   2.7936   2.7995   2.8513   2.8562   2.9233   2.9534
     2.9724   3.0237   3.0455   3.0496   3.0710   3.2042   3.2129   3.2365
     3.2548   3.3124   3.3404   3.3652   3.3773   3.4975   3.5035   3.5039
     3.5708   3.5718   3.5828   3.6112   3.6346   3.6388   3.6650   3.6657
     3.6658   3.6709   3.7016   3.7470   3.8023   3.8087   3.8697   3.8793
     3.9058   3.9258   3.9365   4.0386   4.0717   4.0995   4.1045   4.1117
     4.1494   4.1853   4.2022   4.2168   4.2576   4.2976   4.3455   4.3858
     4.3910   4.3975   4.4840   4.4960   4.5124   4.5313   4.5525   4.6002
     4.6120   4.6392   4.6728   4.6757   4.7077   4.7110   4.7652   4.8112
     4.8326   4.8667   4.9140   4.9231   4.9410   4.9460   4.9704   4.9897
     5.0206   5.0266   5.0269   5.0409   5.0638   5.0806   5.1057   5.1349
     5.1658   5.1693   5.2208   5.2220   5.2751   5.2979   5.2996   5.3023
     5.3455   5.3588   5.4087   5.4150   5.4490   5.4731   5.5110   5.5153
     5.5424   5.5636   5.5870   5.6224   5.6623   5.7203   5.7265   5.7623
     5.7798   5.7907   5.7926   5.8147   5.8175   5.8541   5.8545   5.9104
     5.9467   5.9660   5.9886   6.0086   6.0130   6.0287   6.0302   6.0776
     6.0892   6.1154   6.1177   6.1280   6.1546   6.1727   6.1977   6.2044
     6.2358   6.2585   6.2728   6.2906   6.3283   6.3535   6.3575   6.3731
     6.4098   6.4165   6.4421   6.4775   6.4872   6.4914   6.4983   6.5155
     6.5330   6.5478   6.5992   6.6399   6.6422   6.6768   6.6794   6.6897
     6.7116   6.7356   6.7457   6.7524   6.7747   6.8099   6.8232   6.8387
     6.8405   6.8896   6.8906   6.9246   6.9645   6.9674   6.9849   7.0141
     7.0182   7.0201   7.0231   7.0539   7.0598   7.1064   7.1509   7.1590
     7.2093   7.2195   7.2281   7.2285   7.2702   7.2742   7.2923   7.3067
     7.3090   7.3294   7.3487   7.3635   7.3805   7.3860   7.3902   7.4432
     7.4559   7.4594   7.4756   7.4873   7.5162   7.5286   7.5301   7.5525
     7.5541   7.5651   7.6463   7.6472   7.6607   7.6697   7.6910   7.7129
     7.7211   7.7316   7.7411   7.7690   7.7911   7.7951   7.7995   7.8376
     7.8493   7.8897   7.9184   7.9584   7.9701   7.9761   7.9935   7.9963
     8.0143   8.0396   8.0777   8.1063   8.1082   8.1261   8.1341   8.1871
     8.1955   8.1978   8.2017   8.2395   8.2599   8.2641   8.2728   8.2953
     8.3207   8.3348   8.3686   8.3691   8.3751   8.3973   8.4195   8.4200
     8.4456   8.4478   8.4643   8.4790   8.4979   8.5428   8.5676   8.5696
     8.5754   8.5886   8.6243   8.6365   8.6590   8.6680   8.6750   8.6866
     8.6989   8.7186   8.7214   8.7244   8.7376   8.7597   8.7779   8.7926
     8.7935   8.8132   8.8146   8.8290   8.8418   8.8678   8.8781   8.8997
     8.9340   8.9390   8.9452   8.9699   9.0179   9.0245   9.0356   9.0425
     9.0521   9.1095   9.1121   9.1482   9.1482   9.2104   9.2196   9.2208
     9.2223   9.2342   9.2716   9.2726

          k = 0.0000 0.0000 0.0141 (147253 PWs)   bands (ev):

   -21.8049 -21.5857 -21.2423 -21.1834 -20.8641 -20.6757 -20.5300 -20.2568
   -20.0111 -19.9695 -19.7769 -19.3252 -19.3057 -19.0680 -19.0551 -18.7940
   -18.5578 -18.3460 -18.2520 -17.9983 -17.7143 -17.7080 -17.4070 -17.3504
   -17.3408 -17.1654 -16.8575 -16.8298 -16.5497 -16.4397 -16.1988 -15.7567
   -15.2457 -15.1214 -15.1081 -14.9415 -14.8782 -14.8152 -14.5355 -14.5248
   -14.3639 -13.8169 -13.7588 -13.6216 -13.4794 -13.3477 -13.2779 -12.9225
   -12.7935 -12.5131 -12.3563 -12.3467 -12.1205 -11.9364 -11.8175 -11.7031
   -11.5185 -11.3856 -11.3634 -11.0499 -10.9506 -10.7800 -10.7537 -10.5902
   -10.5147 -10.4678 -10.3006 -10.0100  -9.9942  -9.8679  -9.7817  -9.7678
    -9.7617  -9.6142  -9.5850  -9.4738  -9.3622  -9.3534  -9.2312  -9.2032
    -9.1731  -9.1604  -9.0726  -8.9999  -8.8815  -8.8144  -8.7933  -8.6647
    -8.6155  -8.5823  -8.5350  -8.4989  -8.4496  -8.4151  -8.4048  -8.2033
    -8.1474  -8.1247  -8.0923  -7.9664  -7.7665  -7.7542  -7.6756  -7.5788
    -7.5753  -7.4653  -7.3403  -7.2442  -7.0763  -7.0054  -7.0015  -6.9259
    -6.8708  -6.8140  -6.7075  -6.5335  -6.5125  -6.3161  -6.2866  -6.0550
    -5.9615  -5.9400  -5.8962  -5.6042  -5.4267  -5.3419  -5.1961  -5.1382
    -4.9847  -4.9230  -4.6797  -4.6115  -4.1528  -4.0104  -3.8301  -3.0565
    -2.0920  -1.3735  -1.1907  -1.0625  -0.8024  -0.7941  -0.4811  -0.3411
    -0.3192  -0.2008   0.1827   0.1851   0.3531   0.5187   0.5803   0.6591
     0.7732   0.8338   0.8464   0.8640   1.1175   1.1310   1.1643   1.2488
     1.2794   1.3634   1.3918   1.4407   1.6105   1.6358   1.7358   1.8206
     1.8799   1.9035   1.9252   1.9703   2.0459   2.0691   2.0867   2.1303
     2.1555   2.2187   2.2308   2.2623   2.3652   2.3757   2.4238   2.4294
     2.4992   2.5262   2.5317   2.6263   2.6396   2.7167   2.7243   2.7661
     2.7728   2.7905   2.7938   2.8124   2.8677   2.8785   2.9167   2.9422
     2.9599   3.0178   3.0479   3.0664   3.0770   3.1840   3.1985   3.2606
     3.2742   3.3418   3.3572   3.3836   3.3894   3.4902   3.5151   3.5207
     3.5620   3.5743   3.5779   3.5922   3.5981   3.6297   3.6441   3.6494
     3.6551   3.6974   3.7214   3.7356   3.7860   3.8199   3.8534   3.8915
     3.9107   3.9129   3.9269   4.0565   4.0627   4.0647   4.0872   4.1081
     4.1574   4.1859   4.1870   4.2347   4.2422   4.3176   4.3591   4.3704
     4.3964   4.4175   4.4746   4.5019   4.5176   4.5217   4.5749   4.6047
     4.6301   4.6375   4.6744   4.6748   4.7122   4.7132   4.7788   4.7872
     4.8121   4.8616   4.8897   4.9318   4.9347   4.9589   4.9774   4.9842
     5.0022   5.0139   5.0485   5.0567   5.0707   5.0819   5.1128   5.1248
     5.1736   5.1743   5.1920   5.2298   5.2621   5.2627   5.3018   5.3197
     5.3472   5.3477   5.4027   5.4387   5.4741   5.4793   5.5038   5.5393
     5.5407   5.5579   5.6121   5.6184   5.6495   5.7185   5.7306   5.7574
     5.7613   5.7638   5.7755   5.8111   5.8114   5.8759   5.8847   5.9204
     5.9779   5.9859   6.0010   6.0107   6.0159   6.0259   6.0420   6.0826
     6.0971   6.1076   6.1226   6.1232   6.1449   6.1852   6.2087   6.2125
     6.2475   6.2499   6.2519   6.2711   6.2965   6.3536   6.3660   6.3687
     6.3843   6.4325   6.4485   6.4499   6.4526   6.4819   6.4858   6.4919
     6.5383   6.5387   6.6115   6.6253   6.6344   6.6582   6.6851   6.6925
     6.7063   6.7384   6.7472   6.7620   6.7943   6.7995   6.8036   6.8337
     6.8413   6.8791   6.9101   6.9309   6.9698   6.9715   6.9738   7.0137
     7.0171   7.0199   7.0328   7.0431   7.0761   7.1177   7.1432   7.1983
     7.2140   7.2162   7.2358   7.2521   7.2551   7.2793   7.2902   7.2956
     7.3190   7.3337   7.3555   7.3696   7.3930   7.3987   7.4091   7.4112
     7.4346   7.4600   7.4827   7.4950   7.5081   7.5113   7.5403   7.5622
     7.5670   7.5687   7.6498   7.6515   7.6625   7.6912   7.6970   7.7021
     7.7192   7.7295   7.7407   7.7681   7.7796   7.8080   7.8351   7.8469
     7.8650   7.8685   7.9332   7.9584   7.9821   7.9986   8.0122   8.0131
     8.0176   8.0475   8.0737   8.0917   8.1059   8.1283   8.1460   8.1852
     8.1911   8.2026   8.2037   8.2352   8.2426   8.2627   8.2838   8.2850
     8.3221   8.3299   8.3571   8.3576   8.3634   8.3798   8.3930   8.3941
     8.4284   8.4371   8.4587   8.4707   8.4966   8.5256   8.5455   8.5483
     8.5800   8.5929   8.6353   8.6492   8.6599   8.6730   8.6746   8.6750
     8.7021   8.7119   8.7223   8.7275   8.7460   8.7651   8.7669   8.7875
     8.7903   8.8107   8.8277   8.8412   8.8545   8.8664   8.8756   8.9118
     8.9167   8.9295   8.9451   8.9821   9.0153   9.0157   9.0208   9.0325
     9.0533   9.0947   9.1245   9.1532   9.1597   9.1984   9.1992   9.2287
     9.2331   9.2331   9.2661   9.2882

          k = 0.0000 0.0000 0.0153 (147267 PWs)   bands (ev):

   -21.8020 -21.5957 -21.2244 -21.1823 -20.8708 -20.7006 -20.5152 -20.2566
   -19.9921 -19.9842 -19.7744 -19.2985 -19.2972 -19.0898 -19.0674 -18.8141
   -18.5676 -18.3697 -18.2239 -17.9579 -17.7122 -17.7021 -17.4152 -17.3726
   -17.3124 -17.1695 -16.8967 -16.8195 -16.5216 -16.4508 -16.2287 -15.7673
   -15.2128 -15.1198 -15.1184 -14.9453 -14.8397 -14.8146 -14.5235 -14.5022
   -14.3559 -13.8745 -13.7941 -13.6494 -13.4913 -13.3594 -13.2730 -12.9031
   -12.7690 -12.4907 -12.3405 -12.2885 -12.1222 -11.9569 -11.8341 -11.7187
   -11.5353 -11.4016 -11.3616 -11.0377 -10.9341 -10.8027 -10.7511 -10.5917
   -10.4846 -10.4745 -10.3140 -10.0158  -9.9893  -9.8643  -9.7990  -9.7714
    -9.7605  -9.6265  -9.5855  -9.4747  -9.3665  -9.3467  -9.2193  -9.1823
    -9.1818  -9.1589  -9.0849  -9.0120  -8.8726  -8.8019  -8.8017  -8.6523
    -8.6038  -8.5691  -8.5644  -8.4803  -8.4436  -8.4194  -8.3861  -8.2116
    -8.1608  -8.1245  -8.0912  -7.9768  -7.7815  -7.7390  -7.6880  -7.5691
    -7.5650  -7.4508  -7.3718  -7.2392  -7.0651  -7.0032  -6.9692  -6.9322
    -6.8950  -6.8121  -6.7456  -6.5381  -6.5070  -6.2969  -6.2902  -6.0637
    -5.9951  -5.9472  -5.8659  -5.5627  -5.4237  -5.3432  -5.2003  -5.1435
    -5.0114  -4.8942  -4.7032  -4.5992  -4.1226  -4.0112  -3.8574  -3.0815
    -2.0702  -1.3456  -1.1877  -1.0854  -0.8125  -0.7687  -0.4805  -0.3383
    -0.2892  -0.2278   0.1650   0.1837   0.3004   0.5235   0.5852   0.6251
     0.7588   0.8194   0.8609   0.8688   1.1165   1.1554   1.1712   1.2698
     1.2999   1.3952   1.3983   1.4257   1.6267   1.6350   1.7354   1.8609
     1.8735   1.9052   1.9071   1.9639   2.0443   2.0667   2.0895   2.1126
     2.1802   2.2211   2.2253   2.2474   2.3361   2.3559   2.4126   2.4507
     2.5037   2.5138   2.5317   2.6202   2.6309   2.6986   2.7216   2.7612
     2.7647   2.7991   2.8108   2.8294   2.8756   2.8980   2.9163   2.9213
     2.9673   3.0031   3.0588   3.0620   3.1055   3.1663   3.1841   3.2849
     3.2932   3.3492   3.3911   3.3923   3.4174   3.4786   3.5212   3.5224
     3.5365   3.5445   3.5749   3.5824   3.5843   3.6211   3.6374   3.6395
     3.6476   3.7267   3.7351   3.7436   3.7672   3.8245   3.8377   3.8781
     3.8967   3.9134   3.9616   4.0303   4.0358   4.0416   4.0936   4.1305
     4.1665   4.1674   4.1879   4.2114   4.2678   4.3270   4.3418   4.3938
     4.3975   4.4448   4.4496   4.5118   4.5142   4.5212   4.5927   4.5964
     4.6007   4.6757   4.6814   4.7082   4.7158   4.7172   4.7640   4.7911
     4.7950   4.8507   4.8610   4.9073   4.9227   4.9578   4.9619   4.9843
     5.0021   5.0246   5.0533   5.0722   5.0762   5.0957   5.1265   5.1306
     5.1610   5.1671   5.2032   5.2206   5.2295   5.2596   5.2943   5.3284
     5.3430   5.3630   5.4043   5.4613   5.4771   5.5041   5.5178   5.5359
     5.5521   5.5663   5.6171   5.6354   5.6366   5.7064   5.7147   5.7320
     5.7376   5.7541   5.7545   5.8053   5.8398   5.8862   5.9084   5.9414
     5.9979   5.9983   6.0085   6.0138   6.0156   6.0188   6.0515   6.0809
     6.0965   6.0986   6.1267   6.1518   6.1552   6.1715   6.2147   6.2223
     6.2362   6.2380   6.2566   6.2717   6.2860   6.3234   6.3437   6.3534
     6.4011   6.4054   6.4281   6.4313   6.4571   6.4713   6.4745   6.4842
     6.5317   6.5723   6.5733   6.6236   6.6246   6.6706   6.6868   6.6970
     6.6972   6.7283   6.7548   6.7551   6.7789   6.7938   6.8181   6.8392
     6.8668   6.8782   6.9252   6.9300   6.9593   6.9617   6.9884   7.0126
     7.0127   7.0198   7.0400   7.0461   7.0984   7.1322   7.1366   7.1742
     7.1869   7.2324   7.2510   7.2545   7.2736   7.2899   7.2946   7.3132
     7.3148   7.3322   7.3672   7.3692   7.3721   7.3763   7.3941   7.4327
     7.4559   7.4567   7.4587   7.4989   7.5202   7.5255   7.5550   7.5810
     7.5812   7.5866   7.6463   7.6472   7.6607   7.6820   7.6905   7.7064
     7.7140   7.7415   7.7445   7.7449   7.7889   7.8190   7.8227   7.8793
     7.8856   7.8858   7.9504   7.9509   7.9871   8.0033   8.0071   8.0311
     8.0542   8.0543   8.0636   8.0745   8.1190   8.1325   8.1621   8.1769
     8.1955   8.1976   8.2140   8.2154   8.2418   8.2585   8.2825   8.2927
     8.3174   8.3183   8.3263   8.3380   8.3469   8.3626   8.3912   8.3961
     8.4138   8.4252   8.4435   8.4655   8.4977   8.5053   8.5146   8.5203
     8.5868   8.5928   8.5936   8.6441   8.6578   8.6692   8.6793   8.6863
     8.7155   8.7230   8.7267   8.7406   8.7444   8.7453   8.7568   8.7922
     8.8097   8.8203   8.8259   8.8535   8.8618   8.8861   8.8990   8.9104
     8.9136   8.9289   8.9411   8.9917   8.9923   9.0007   9.0163   9.0264
     9.0788   9.0835   9.1348   9.1571   9.1642   9.1880   9.1893   9.2255
     9.2310   9.2340   9.2622   9.2800

          k = 0.0000 0.0000 0.0164 (147283 PWs)   bands (ev):

   -21.7991 -21.6052 -21.2063 -21.1812 -20.8772 -20.7253 -20.5001 -20.2564
   -20.0143 -19.9586 -19.7703 -19.2920 -19.2694 -19.1232 -19.0667 -18.8337
   -18.5798 -18.3907 -18.1960 -17.9175 -17.7169 -17.6904 -17.4260 -17.3944
[...]
    -0.1593  -0.1276  -0.0459   0.0001   0.1533   0.3896   0.5837   0.6462
     0.6470   0.7072   0.9253   0.9307   1.0061   1.2354   1.3122   1.4162
     1.4801   1.5189   1.5333   1.5554   1.6280   1.6699   1.7057   1.7896
     1.8012   1.8506   1.8718   1.8768   1.9535   2.0454   2.1339   2.1354
     2.1568   2.1927   2.2420   2.2755   2.3556   2.3840   2.4187   2.4577
     2.4714   2.5240   2.5691   2.5785   2.6128   2.6311   2.6472   2.6899
     2.6988   2.7594   2.8022   2.8432   2.8490   2.9335   2.9859   3.0447
     3.0472   3.0612   3.1078   3.1343   3.1360   3.1590   3.1738   3.2805
     3.2994   3.3404   3.3773   3.3809   3.4162   3.4263   3.4655   3.4886
     3.5112   3.5455   3.5708   3.5746   3.6030   3.6257   3.6429   3.6712
     3.6839   3.7171   3.7208   3.7543   3.7614   3.8105   3.8121   3.8233
     3.8418   3.9029   3.9523   3.9583   4.0442   4.0720   4.1147   4.1320
     4.1399   4.1711   4.1815   4.1981   4.2672   4.3083   4.3731   4.4123
     4.4457   4.4513   4.4890   4.5282   4.5542   4.5650   4.5890   4.5957
     4.6329   4.6433   4.6847   4.7095   4.7134   4.7272   4.7378   4.7599
     4.7793   4.7840   4.8000   4.8423   4.9069   4.9087   4.9111   4.9285
     4.9303   4.9418   4.9711   5.0270   5.0369   5.0753   5.0921   5.1382
     5.2091   5.2546   5.2856   5.2950   5.3054   5.3386   5.3477   5.4033
     5.4154   5.4771   5.4856   5.4975   5.5368   5.5637   5.5789   5.5992
     5.6016   5.6028   5.6066   5.6248   5.6363   5.6595   5.6911   5.7412
     5.7498   5.8001   5.8153   5.8218   5.8344   5.8435   5.8520   5.9026
     5.9219   5.9330   5.9666   5.9840   5.9919   6.0120   6.0434   6.0476
     6.0519   6.0604   6.0800   6.1114   6.1143   6.1356   6.1570   6.1670
     6.1779   6.1991   6.2104   6.2522   6.2799   6.3143   6.3193   6.3630
     6.3644   6.3827   6.4181   6.4315   6.5007   6.5011   6.5487   6.5714
     6.5724   6.5760   6.6041   6.6284   6.6376   6.6824   6.6834   6.6968
     6.7053   6.7361   6.7373   6.7458   6.7601   6.7853   6.8239   6.8389
     6.8502   6.8603   6.8608   6.9298   6.9324   6.9500   6.9748   6.9943
     7.0323   7.0452   7.0546   7.0867   7.1149   7.1363   7.1638   7.1697
     7.1809   7.1947   7.2017   7.2154   7.2319   7.2526   7.2570   7.3419
     7.3538   7.3637   7.3901   7.3969   7.4084   7.4488   7.4558   7.4695
     7.4803   7.5008   7.5067   7.5576   7.5596   7.5683   7.5801   7.6010
     7.6090   7.6356   7.6395   7.6736   7.6980   7.7246   7.7368   7.7555
     7.7715   7.7845   7.8036   7.8160   7.8243   7.8477   7.8651   7.9014
     7.9069   7.9457   7.9511   7.9683   7.9872   7.9936   8.0090   8.0181
     8.0306   8.0469   8.0599   8.0730   8.0755   8.1185   8.1264   8.1330
     8.1333   8.1544   8.1603   8.2057   8.2088   8.2386   8.2470   8.2655
     8.2795   8.2879   8.2895   8.3123   8.3286   8.3557   8.3619   8.3945
     8.4021   8.4050   8.4475   8.4591   8.4618   8.4767   8.4767   8.5287
     8.5453   8.5923   8.5983   8.6015   8.6125   8.6227   8.6275   8.6668
     8.6829   8.6941   8.7071   8.7255   8.7449   8.7468   8.7716   8.7846
     8.8120   8.8149   8.8183   8.8400   8.8861   8.9093   8.9179   8.9279
     8.9612   8.9818   9.0215   9.0241   9.0398   9.0662   9.0882   9.0891
     9.1019   9.1053   9.1084   9.1265   9.1308   9.1436   9.1474   9.1824
     9.1848   9.2550   9.2833   9.2979

          k = 0.0000 0.0000 0.0270 (147192 PWs)   bands (ev):

   -21.7737 -21.6643 -21.1738 -21.0373 -20.9272 -20.9122 -20.3766 -20.2551
   -20.1731 -19.8558 -19.5933 -19.4637 -19.1899 -19.0964 -19.0139 -18.9618
   -18.7565 -18.4646 -17.9603 -17.8451 -17.5899 -17.5367 -17.5223 -17.5145
   -17.3435 -17.1667 -16.9845 -16.8084 -16.6078 -16.3973 -16.2999 -15.8937
   -15.1817 -15.1763 -15.0260 -14.8204 -14.6654 -14.4376 -14.4224 -14.3912
   -14.3472 -14.3323 -14.1852 -13.8425 -13.5657 -13.4324 -13.2427 -12.7644
   -12.6102 -12.3206 -12.2935 -12.0687 -12.0367 -11.9242 -11.8863 -11.7783
   -11.7006 -11.5190 -11.3385 -11.3067 -11.0023 -10.7244 -10.6119 -10.4663
   -10.4594 -10.3857 -10.2514 -10.1471 -10.0816 -10.0364  -9.8263  -9.8032
    -9.7129  -9.6710  -9.6060  -9.4424  -9.3793  -9.2889  -9.2710  -9.2212
    -9.1846  -9.1475  -8.9544  -8.8550  -8.8546  -8.8367  -8.7620  -8.7355
    -8.6262  -8.5828  -8.5599  -8.4992  -8.4321  -8.4071  -8.2051  -8.1706
    -8.1225  -8.0960  -8.0781  -8.0103  -7.9292  -7.9108  -7.7248  -7.6555
    -7.3738  -7.3016  -7.2997  -7.1932  -7.1432  -7.1289  -6.9910  -6.9767
    -6.9373  -6.8323  -6.7294  -6.6166  -6.4407  -6.2916  -6.1976  -6.1776
    -6.1418  -6.0344  -5.5610  -5.4414  -5.3999  -5.2817  -5.2329  -5.1670
    -5.0955  -5.0042  -4.7473  -4.3524  -4.1756  -4.0158  -3.9004  -3.2784
    -1.9074  -1.2553  -1.1761  -1.0197  -0.9214  -0.6177  -0.5078  -0.3792
    -0.2061  -0.1108  -0.0296  -0.0170   0.1478   0.3776   0.5914   0.6373
     0.6544   0.6971   0.9311   0.9332   0.9983   1.2421   1.3036   1.4207
     1.5013   1.5234   1.5636   1.5734   1.6413   1.6477   1.6890   1.7566
     1.8072   1.8441   1.8599   1.9045   1.9498   2.0180   2.1340   2.1369
     2.1721   2.1831   2.2467   2.2800   2.3383   2.3895   2.4411   2.4454
     2.4638   2.5582   2.5650   2.5926   2.6096   2.6221   2.6437   2.7015
     2.7078   2.7486   2.7744   2.8212   2.8579   2.9295   2.9986   3.0257
     3.0493   3.0648   3.1307   3.1370   3.1568   3.1576   3.1825   3.2530
     3.2831   3.3190   3.3852   3.4043   3.4220   3.4252   3.4743   3.4824
     3.5036   3.5465   3.5670   3.5700   3.6131   3.6288   3.6533   3.6767
     3.6842   3.7002   3.7150   3.7245   3.7571   3.7986   3.8211   3.8473
     3.8586   3.9222   3.9421   3.9785   4.0226   4.0392   4.1102   4.1257
     4.1307   4.1811   4.1975   4.2171   4.2527   4.3277   4.4008   4.4036
     4.4181   4.4785   4.4839   4.5098   4.5279   4.5685   4.5902   4.6129
     4.6397   4.6625   4.6683   4.7014   4.7096   4.7225   4.7566   4.7699
     4.7714   4.7830   4.7957   4.8399   4.8809   4.8904   4.9107   4.9141
     4.9220   4.9259   4.9694   5.0218   5.0698   5.1125   5.1220   5.1370
     5.2269   5.2453   5.2626   5.2966   5.3047   5.3054   5.3433   5.3995
     5.4156   5.4654   5.4837   5.5334   5.5457   5.5695   5.5758   5.5911
     5.6128   5.6306   5.6312   5.6387   5.6460   5.6711   5.6880   5.7404
     5.7410   5.7861   5.7985   5.8293   5.8297   5.8682   5.8690   5.8840
     5.9009   5.9363   5.9519   5.9703   5.9787   6.0006   6.0400   6.0444
     6.0538   6.0631   6.0646   6.0789   6.1229   6.1341   6.1614   6.1633
     6.1684   6.1925   6.2269   6.2287   6.2638   6.3171   6.3290   6.3733
     6.3850   6.3950   6.4301   6.4320   6.5094   6.5101   6.5544   6.5592
     6.5669   6.6041   6.6056   6.6154   6.6394   6.6598   6.6920   6.7263
     6.7311   6.7377   6.7429   6.7560   6.7630   6.7857   6.8139   6.8182
     6.8485   6.8489   6.8591   6.8929   6.9274   6.9302   6.9461   6.9825
     7.0521   7.0608   7.0696   7.0778   7.1203   7.1329   7.1546   7.1695
     7.1741   7.2113   7.2159   7.2338   7.2379   7.2542   7.2568   7.3320
     7.3528   7.3604   7.3777   7.3823   7.4344   7.4400   7.4741   7.4762
     7.4773   7.5239   7.5262   7.5432   7.5537   7.5566   7.5972   7.6008
     7.6270   7.6282   7.6434   7.6517   7.6892   7.7139   7.7399   7.7682
     7.7723   7.8027   7.8116   7.8185   7.8318   7.8384   7.8574   7.8977
     7.9057   7.9392   7.9472   7.9506   7.9902   7.9973   8.0004   8.0334
     8.0466   8.0558   8.0657   8.0800   8.0856   8.0969   8.1093   8.1113
     8.1384   8.1624   8.1638   8.1827   8.1967   8.2500   8.2523   8.2539
     8.2660   8.2747   8.2895   8.3180   8.3192   8.3625   8.3810   8.3983
     8.4071   8.4246   8.4355   8.4379   8.4606   8.4658   8.4857   8.5336
     8.5521   8.5890   8.6007   8.6061   8.6194   8.6389   8.6538   8.6616
     8.6915   8.6940   8.7044   8.7261   8.7425   8.7603   8.7669   8.7822
     8.8077   8.8149   8.8208   8.8320   8.8866   8.9166   8.9293   8.9347
     8.9522   8.9714   8.9907   8.9957   9.0295   9.0535   9.0631   9.0926
     9.0956   9.1030   9.1060   9.1234   9.1261   9.1374   9.1806   9.1974
     9.2110   9.2324   9.2885   9.2895

          k = 0.0000 0.0000 0.0282 (147224 PWs)   bands (ev):

   -21.7726 -21.6662 -21.1736 -21.0230 -20.9424 -20.9131 -20.3706 -20.2550
   -20.1799 -19.8547 -19.5630 -19.4956 -19.1871 -19.0938 -19.0052 -18.9664
   -18.7673 -18.4657 -17.9422 -17.8599 -17.5799 -17.5472 -17.5233 -17.4734
   -17.3864 -17.1678 -16.9649 -16.8194 -16.6128 -16.4005 -16.2927 -15.8989
   -15.1832 -15.1764 -15.0272 -14.8204 -14.6183 -14.4859 -14.3898 -14.3829
   -14.3528 -14.3331 -14.2112 -13.8482 -13.5673 -13.4342 -13.2420 -12.7604
   -12.6062 -12.3166 -12.2937 -12.0663 -12.0352 -11.9347 -11.8710 -11.7994
   -11.6526 -11.5464 -11.3601 -11.3047 -11.0027 -10.7183 -10.6110 -10.4659
   -10.4581 -10.3552 -10.2848 -10.1198 -10.0902 -10.0562  -9.8247  -9.8078
    -9.7155  -9.6678  -9.6030  -9.4411  -9.3787  -9.2949  -9.2633  -9.2182
    -9.1991  -9.1471  -8.9347  -8.8575  -8.8559  -8.8346  -8.7538  -8.7387
    -8.6444  -8.5832  -8.5572  -8.4981  -8.4301  -8.4107  -8.1961  -8.1684
    -8.1224  -8.0975  -8.0598  -8.0204  -7.9484  -7.8960  -7.7440  -7.6553
    -7.3660  -7.2981  -7.2656  -7.1868  -7.1778  -7.1424  -6.9930  -6.9763
    -6.9327  -6.8318  -6.7362  -6.5948  -6.4605  -6.2810  -6.2005  -6.1860
    -6.1351  -6.0397  -5.5341  -5.4647  -5.3992  -5.2850  -5.2339  -5.1398
    -5.0883  -5.0374  -4.7450  -4.3277  -4.2010  -4.0160  -3.8938  -3.2845
    -1.9028  -1.2600  -1.1751  -0.9946  -0.9376  -0.6298  -0.5044  -0.3399
    -0.2516  -0.0966  -0.0313  -0.0187   0.1437   0.3703   0.5983   0.6292
     0.6622   0.6882   0.9347   0.9354   0.9928   1.2472   1.2973   1.4235
     1.5179   1.5236   1.5741   1.6089   1.6303   1.6497   1.6756   1.7242
     1.8132   1.8413   1.8507   1.9324   1.9470   1.9899   2.1344   2.1390
     2.1761   2.1816   2.2527   2.2829   2.3241   2.3960   2.4282   2.4590
     2.4698   2.5439   2.5706   2.6134   2.6153   2.6339   2.6356   2.7164
     2.7169   2.7384   2.7415   2.8030   2.8674   2.9215   3.0105   3.0159
     3.0377   3.0769   3.1385   3.1523   3.1560   3.1735   3.1878   3.2289
     3.2737   3.3006   3.3916   3.4173   3.4190   3.4384   3.4823   3.4825
     3.4978   3.5213   3.5518   3.5941   3.6308   3.6378   3.6596   3.6621
     3.6854   3.6910   3.6955   3.7266   3.7543   3.7775   3.8238   3.8566
     3.9019   3.9341   3.9375   3.9979   3.9983   4.0070   4.0847   4.1219
     4.1397   4.1962   4.1971   4.2345   4.2613   4.3392   4.3557   4.4270
     4.4323   4.4718   4.4839   4.5014   4.5261   4.5749   4.5827   4.6217
     4.6344   4.6501   4.6906   4.6938   4.7018   4.7287   4.7554   4.7607
     4.7876   4.7942   4.7968   4.8437   4.8531   4.8760   4.8955   4.9055
     4.9179   4.9233   4.9745   5.0066   5.1096   5.1354   5.1493   5.1534
     5.2227   5.2232   5.2402   5.2576   5.3116   5.3321   5.3363   5.3830
     5.4223   5.4633   5.4804   5.5311   5.5619   5.5651   5.5936   5.5976
     5.6234   5.6351   5.6387   5.6436   5.6758   5.6784   5.6987   5.7161
     5.7404   5.7508   5.8215   5.8279   5.8435   5.8521   5.8667   5.8812
     5.9117   5.9187   5.9303   5.9584   5.9912   6.0173   6.0227   6.0392
     6.0454   6.0549   6.0646   6.0782   6.1286   6.1306   6.1328   6.1579
     6.1672   6.2063   6.2149   6.2428   6.2489   6.3158   6.3404   6.3637
     6.3844   6.4161   6.4465   6.4557   6.5079   6.5129   6.5427   6.5544
     6.5700   6.5940   6.6002   6.6240   6.6241   6.6842   6.6909   6.7385
     6.7389   6.7537   6.7638   6.7664   6.7690   6.7782   6.7922   6.8197
     6.8410   6.8459   6.8611   6.8753   6.8827   6.9279   6.9421   6.9622
     7.0530   7.0629   7.0825   7.0898   7.1305   7.1369   7.1450   7.1514
     7.1723   7.2223   7.2318   7.2494   7.2517   7.2556   7.2578   7.3253
     7.3455   7.3507   7.3655   7.3678   7.4282   7.4727   7.4728   7.4773
     7.5018   7.5247   7.5338   7.5415   7.5544   7.5545   7.5974   7.6001
     7.6172   7.6403   7.6434   7.6560   7.6688   7.6931   7.7668   7.7784
     7.7850   7.7914   7.8059   7.8166   7.8299   7.8329   7.8771   7.8819
     7.9095   7.9305   7.9371   7.9389   7.9895   8.0015   8.0218   8.0396
     8.0537   8.0639   8.0692   8.0743   8.0826   8.0889   8.0967   8.1040
     8.1551   8.1657   8.1747   8.1756   8.1920   8.2257   8.2402   8.2543
     8.2595   8.2733   8.2808   8.3031   8.3267   8.3737   8.3948   8.4086
     8.4134   8.4218   8.4221   8.4418   8.4577   8.4643   8.4967   8.5330
     8.5683   8.5846   8.6096   8.6123   8.6249   8.6263   8.6370   8.6523
     8.6991   8.7106   8.7256   8.7315   8.7369   8.7438   8.7562   8.7735
     8.8132   8.8238   8.8298   8.8590   8.9006   8.9221   8.9388   8.9396
     8.9499   8.9638   8.9647   8.9742   8.9857   9.0278   9.0604   9.0671
     9.0951   9.0957   9.1033   9.1168   9.1454   9.1610   9.2096   9.2105
     9.2164   9.2390   9.2643   9.2818

          k = 0.0000 0.0000-0.0293 (147164 PWs)   bands (ev):

   -21.7723 -21.6669 -21.1735 -21.0168 -20.9488 -20.9135 -20.3685 -20.2550
   -20.1823 -19.8544 -19.5399 -19.5192 -19.1861 -19.0930 -19.0020 -18.9680
   -18.7712 -18.4660 -17.9342 -17.8667 -17.5745 -17.5527 -17.5243 -17.4337
   -17.4260 -17.1681 -16.9573 -16.8241 -16.6145 -16.4015 -16.2903 -15.9007
   -15.1837 -15.1764 -15.0276 -14.8204 -14.5911 -14.5136 -14.3790 -14.3737
   -14.3556 -14.3371 -14.2213 -13.8502 -13.5679 -13.4348 -13.2417 -12.7591
   -12.6049 -12.3152 -12.2938 -12.0653 -12.0348 -11.9384 -11.8627 -11.8095
   -11.6252 -11.5669 -11.3673 -11.3041 -11.0029 -10.7162 -10.6106 -10.4682
   -10.4555 -10.3302 -10.3107 -10.1044 -10.0930 -10.0691  -9.8241  -9.8094
    -9.7164  -9.6667  -9.6020  -9.4407  -9.3785  -9.2970  -9.2602  -9.2132
    -9.2085  -9.1470  -8.9251  -8.8674  -8.8563  -8.8268  -8.7492  -8.7415
    -8.6514  -8.5833  -8.5563  -8.4977  -8.4291  -8.4122  -8.1928  -8.1676
    -8.1224  -8.0980  -8.0520  -8.0240  -7.9566  -7.8900  -7.7514  -7.6552
    -7.3633  -7.2968  -7.2446  -7.1990  -7.1835  -7.1482  -6.9937  -6.9762
    -6.9311  -6.8316  -6.7385  -6.5858  -6.4689  -6.2770  -6.2015  -6.1893
    -6.1326  -6.0417  -5.5187  -5.4789  -5.3990  -5.2860  -5.2342  -5.1294
    -5.0703  -5.0654  -4.7442  -4.3168  -4.2121  -4.0160  -3.8916  -3.2865
    -1.9012  -1.2616  -1.1748  -0.9809  -0.9482  -0.6340  -0.5035  -0.3046
    -0.2888  -0.0902  -0.0378  -0.0149   0.1421   0.3678   0.6016   0.6256
     0.6664   0.6836   0.9352   0.9371   0.9907   1.2493   1.2949   1.4245
     1.5233   1.5248   1.5788   1.6232   1.6269   1.6526   1.6702   1.7072
     1.8161   1.8405   1.8467   1.9459   1.9566   1.9656   2.1346   2.1401
     2.1734   2.1848   2.2560   2.2839   2.3181   2.3998   2.4222   2.4574
     2.4828   2.5315   2.5742   2.6109   2.6205   2.6297   2.6584   2.7199
     2.7236   2.7236   2.7312   2.7950   2.8719   2.9170   3.0131   3.0184
     3.0300   3.0814   3.1390   3.1557   3.1637   3.1796   3.1896   3.2166
     3.2715   3.2922   3.3941   3.4179   3.4208   3.4449   3.4859   3.4912
     3.4957   3.5029   3.5452   3.6084   3.6315   3.6464   3.6597   3.6665
     3.6725   3.6828   3.6892   3.7386   3.7533   3.7639   3.8243   3.8610
     3.9243   3.9381   3.9524   3.9594   4.0010   4.0088   4.0724   4.1207
     4.1424   4.1970   4.2131   4.2167   4.3046   4.3114   4.3427   4.4420
     4.4461   4.4674   4.4695   4.4863   4.5584   4.5665   4.5872   4.5921
     4.6404   4.6721   4.6733   4.6948   4.7019   4.7398   4.7463   4.7616
     4.7810   4.7998   4.8230   4.8266   4.8472   4.8691   4.8889   4.9024
     4.9165   4.9224   4.9798   4.9982   5.1320   5.1353   5.1705   5.1719
     5.2002   5.2071   5.2357   5.2454   5.3141   5.3330   5.3493   5.3700
     5.4230   5.4650   5.4787   5.5302   5.5570   5.5622   5.6002   5.6314
     5.6330   5.6347   5.6365   5.6384   5.6553   5.6998   5.6999   5.7240
     5.7285   5.7415   5.8157   5.8311   5.8513   5.8552   5.8598   5.8858
     5.9003   5.9013   5.9548   5.9601   5.9838   5.9875   6.0380   6.0458
     6.0512   6.0553   6.0651   6.0751   6.1066   6.1306   6.1323   6.1568
     6.1685   6.2114   6.2141   6.2407   6.2483   6.3154   6.3474   6.3571
     6.3819   6.4219   6.4569   6.4797   6.4907   6.5156   6.5432   6.5445
     6.5753   6.5829   6.6058   6.6073   6.6316   6.6910   6.7214   6.7257
     6.7387   6.7400   6.7665   6.7677   6.7686   6.7912   6.8156   6.8274
     6.8294   6.8386   6.8424   6.8608   6.8865   6.9262   6.9405   6.9488
     7.0505   7.0608   7.0882   7.1094   7.1299   7.1334   7.1404   7.1419
     7.1755   7.2297   7.2328   7.2467   7.2584   7.2630   7.2645   7.3229
     7.3357   7.3431   7.3613   7.3666   7.4297   7.4681   7.4777   7.4881
     7.5080   7.5191   7.5479   7.5491   7.5536   7.5567   7.5755   7.5997
     7.6121   7.6422   7.6452   7.6686   7.6754   7.6779   7.7585   7.7759
     7.7897   7.7994   7.8036   7.8218   7.8312   7.8343   7.8641   7.8898
     7.9151   7.9253   7.9273   7.9350   7.9938   8.0006   8.0417   8.0481
     8.0510   8.0529   8.0666   8.0706   8.0726   8.0897   8.1018   8.1095
     8.1397   8.1798   8.1840   8.1918   8.1966   8.1998   8.2246   8.2525
     8.2539   8.2766   8.2800   8.2948   8.3314   8.3842   8.3999   8.4002
     8.4091   8.4151   8.4338   8.4513   8.4545   8.4605   8.5020   8.5331
     8.5686   8.6054   8.6109   8.6113   8.6181   8.6262   8.6288   8.6337
     8.7071   8.7188   8.7253   8.7347   8.7433   8.7480   8.7544   8.7549
     8.8128   8.8245   8.8297   8.9093   8.9145   8.9206   8.9243   8.9414
     8.9509   8.9543   8.9546   8.9609   8.9617   9.0235   9.0499   9.0616
     9.0936   9.0971   9.1039   9.1143   9.1539   9.1699   9.2014   9.2237
     9.2335   9.2456   9.2567   9.2837

     the Fermi energy is    -2.7767 ev

     Writing output data file LS7_2_9_2.save/

     init_run     :     19.78s CPU     20.16s WALL (       1 calls)
     electrons    :  10498.30s CPU  10552.90s WALL (       1 calls)

     Called by init_run:
     wfcinit      :      0.00s CPU      0.00s WALL (       1 calls)
     potinit      :      1.20s CPU      1.31s WALL (       1 calls)
     hinit0       :     15.05s CPU     15.09s WALL (       1 calls)

     Called by electrons:
     c_bands      :  10498.29s CPU  10552.70s WALL (       1 calls)
     v_of_rho     :      0.91s CPU      0.95s WALL (       1 calls)
     newd         :      0.71s CPU      0.90s WALL (       1 calls)

     Called by c_bands:
     init_us_2    :      0.77s CPU      0.80s WALL (      26 calls)
     cegterg      :  10301.65s CPU  10346.35s WALL (     102 calls)

     Called by sum_band:

     Called by *egterg:
     h_psi        :   2984.70s CPU   3008.44s WALL (    1979 calls)
     s_psi        :    345.06s CPU    345.37s WALL (    1979 calls)
     g_psi        :     17.81s CPU     17.85s WALL (    1851 calls)
     cdiaghg      :   3805.68s CPU   3807.86s WALL (    1877 calls)

     Called by h_psi:
     h_psi:pot    :   2971.04s CPU   2989.31s WALL (    1979 calls)
     h_psi:calbec :    337.02s CPU    338.21s WALL (    1979 calls)
     vloc_psi     :   2293.51s CPU   2310.28s WALL (    1979 calls)
     add_vuspsi   :    340.49s CPU    340.77s WALL (    1979 calls)

     General routines
     calbec       :    337.01s CPU    338.15s WALL (    1979 calls)
     fft          :      0.89s CPU      0.96s WALL (      14 calls)
     ffts         :      0.01s CPU      0.01s WALL (       1 calls)
     fftw         :   1873.47s CPU   1888.02s WALL (  616216 calls)
     interpolate  :      0.07s CPU      0.07s WALL (       1 calls)
     davcio       :      0.01s CPU     11.92s WALL (      52 calls)

     Parallel routines
     fft_scatt_xy :    349.83s CPU    351.15s WALL (  616231 calls)
     fft_scatt_yz :    506.44s CPU    514.47s WALL (  616231 calls)

     PWSCF        :     2h55m CPU       55h 3m WALL

       2h

   This run was terminated on:   3:45:59  23Apr2021            

=------------------------------------------------------------------------------=
   JOB DONE.
=------------------------------------------------------------------------------=
