
     Program PWSCF v.6.3 starts on 23Apr2021 at  2:27:10 

     This program is part of the open-source Quantum ESPRESSO suite
     for quantum simulation of materials; please cite
         "P. Giannozzi et al., J. Phys.:Condens. Matter 21 395502 (2009);
         "P. Giannozzi et al., J. Phys.:Condens. Matter 29 465901 (2017);
          URL http://www.quantum-espresso.org", 
     in publications or presentations arising from this work. More details at
     http://www.quantum-espresso.org/quote

     Parallel version (MPI), running on    16 processors
     R & G space division:  proc/nbgrp/npool/nimage =      16
     Waiting for input...
     Reading input from standard input
     Message from routine read_cards :
     DEPRECATED: no units specified in CELL_PARAMETERS card

     Current dimensions of program PWSCF are:
     Max number of different atomic species (ntypx) = 10
     Max number of k-points (npk) =  40000
     Max angular momentum in pseudopotentials (lmaxx) =  3

     Atomic positions and unit cell read from directory:
     /home/zfwang/scratch/GNRDATASET/AGNR/LS7_2_11_2_b/LS7_2_11_2_b.save/


     Subspace diagonalization in iterative solution of the eigenvalue problem:
     a serial algorithm will be used


     Parallelization info
     --------------------
     sticks:   dense  smooth     PW     G-vecs:    dense   smooth      PW
     Min        2556     852    219               382876    73664    9645
     Max        2557     853    221               382881    73669    9648
     Sum       40909   13645   3521              6126037  1178677  154333



     bravais-lattice index     =            0
     lattice parameter (alat)  =       1.8897  a.u.
     unit-cell volume          =   34497.4860 (a.u.)^3
     number of atoms/cell      =           92
     number of atomic types    =            2
     number of electrons       =       320.00
     number of Kohn-Sham states=          500
     kinetic-energy cutoff     =      40.0000  Ry
     charge density cutoff     =     480.0000  Ry
     Exchange-correlation      = PBE ( 1  4  3  4 0 0)

     celldm(1)=  18.897261  celldm(2)=   3.000000  celldm(3)=   1.704000
     celldm(4)=   0.000000  celldm(5)=   0.000000  celldm(6)=   0.000000

     crystal axes: (cart. coord. in units of alat)
               a(1) = (  10.000000   0.000000   0.000000 )  
               a(2) = (   0.000000  30.000000   0.000000 )  
               a(3) = (   0.000000   0.000000  17.040000 )  

     reciprocal axes: (cart. coord. in units 2 pi/alat)
               b(1) = (  0.100000  0.000000  0.000000 )  
               b(2) = (  0.000000  0.033333  0.000000 )  
               b(3) = (  0.000000  0.000000  0.058685 )  


     PseudoPot. # 1 for C  read from file:
     /home/zfwang/hp_home/MySoftware/qe-6.3/pseudo/C.pbe-n-rrkjus_psl.0.1.UPF
     MD5 check sum: fff530ed632a789b3b184014e67dd7f1
     Pseudo is Ultrasoft + core correction, Zval =  4.0
     Generated using "atomic" code by A. Dal Corso v.5.0.2 svn rev. 9415
     Using radial grid of 1073 points,  4 beta functions with: 
                l(1) =   0
                l(2) =   0
                l(3) =   1
                l(4) =   1
     Q(r) pseudized with 0 coefficients 


     PseudoPot. # 2 for H  read from file:
     /home/zfwang/hp_home/MySoftware/qe-6.3/pseudo/H.pbe-rrkjus_psl.0.1.UPF
     MD5 check sum: e164a6907b691c6980f16942be34de84
     Pseudo is Ultrasoft, Zval =  1.0
     Generated using "atomic" code by A. Dal Corso v.5.0.2 svn rev. 9415
     Using radial grid of  929 points,  2 beta functions with: 
                l(1) =   0
                l(2) =   0
     Q(r) pseudized with 0 coefficients 


     atomic species   valence    mass     pseudopotential
        C              4.00    12.01070     C ( 1.00)
        H              1.00     1.00794     H ( 1.00)

     No symmetry found



   Cartesian axes

     site n.     atom                  positions (alat units)
         1           C   tau(   1) = (   5.0000000   8.8397618   7.0497882  )
         2           C   tau(   2) = (   5.0000005   8.8474061  11.3536674  )
         3           C   tau(   3) = (   4.9999994  10.0995240   3.5632257  )
         4           C   tau(   4) = (   5.0000003  10.0489638   7.8076405  )
         5           C   tau(   5) = (   5.0000002  10.0710412  12.0836730  )
         6           C   tau(   6) = (   4.9999996   8.8474035   5.6863059  )
         7           C   tau(   7) = (   5.0000008   8.8397679   9.9902421  )
         8           C   tau(   8) = (   4.9999996  11.3087208   2.8563549  )
         9           C   tau(   9) = (   5.0000001  11.2893242   7.1043904  )
        10           C   tau(  10) = (   5.0000004  11.3024271  11.3548543  )
        11           C   tau(  11) = (   4.9999996  11.3392741  15.5920010  )
        12           C   tau(  12) = (   4.9999999  12.5456488   3.5674913  )
        13           C   tau(  13) = (   5.0000003  12.5273699   7.8133035  )
        14           C   tau(  14) = (   5.0000001  12.5368623  12.0584168  )
        15           C   tau(  15) = (   4.9999998  12.5169071  16.3112491  )
        16           C   tau(  16) = (   4.9999995  10.0710427   4.9563406  )
        17           C   tau(  17) = (   5.0000006  10.0489587   9.2323548  )
        18           C   tau(  18) = (   4.9999997  10.0995326  13.4767725  )
        19           C   tau(  19) = (   4.9999997  11.3392578   1.4480065  )
        20           C   tau(  20) = (   4.9999998  11.3024252   5.6851387  )
        21           C   tau(  21) = (   5.0000005  11.2893297   9.9356190  )
        22           C   tau(  22) = (   4.9999997  11.3087110  14.1836433  )
        23           C   tau(  23) = (   5.0000003  13.7710285   2.8502897  )
        24           C   tau(  24) = (   5.0000003  13.7649116   7.1061053  )
        25           C   tau(  25) = (   5.0000002  13.7696138  11.3485429  )
        26           C   tau(  26) = (   4.9999999  13.7719200  15.6126216  )
        27           C   tau(  27) = (   5.0000005  15.0000004   3.5610576  )
        28           C   tau(  28) = (   5.0000003  15.0000051   7.8123710  )
        29           C   tau(  29) = (   5.0000000  14.9999972  12.0585152  )
        30           C   tau(  30) = (   5.0000001  14.9999973  16.3191028  )
        31           C   tau(  31) = (   4.9999999  12.5169236   0.7287471  )
        32           C   tau(  32) = (   4.9999998  12.5368650   4.9815853  )
        33           C   tau(  33) = (   5.0000004  12.5273662   9.2266969  )
        34           C   tau(  34) = (   4.9999999  12.5456572  13.4725115  )
        35           C   tau(  35) = (   5.0000003  13.7719130   1.4273848  )
        36           C   tau(  36) = (   5.0000003  13.7696126   5.6914598  )
        37           C   tau(  37) = (   5.0000003  13.7649145   9.9338949  )
        38           C   tau(  38) = (   4.9999998  13.7710218  14.1897056  )
        39           C   tau(  39) = (   5.0000006  16.2289719   2.8502885  )
        40           C   tau(  40) = (   5.0000003  16.2350845   7.1061018  )
        41           C   tau(  41) = (   5.0000002  16.2303931  11.3485483  )
        42           C   tau(  42) = (   5.0000002  16.2280843  15.6126197  )
        43           C   tau(  43) = (   5.0000003  17.4543467   3.5674947  )
        44           C   tau(  44) = (   5.0000003  17.4726429   7.8133015  )
        45           C   tau(  45) = (   5.0000003  17.4631350  12.0584114  )
        46           C   tau(  46) = (   5.0000002  17.4830809  16.3112532  )
        47           C   tau(  47) = (   5.0000003  14.9999993   0.7208969  )
        48           C   tau(  48) = (   5.0000004  14.9999972   4.9814795  )
        49           C   tau(  49) = (   5.0000002  15.0000003   9.2276319  )
        50           C   tau(  50) = (   4.9999999  15.0000042  13.4789482  )
        51           C   tau(  51) = (   5.0000005  16.2280832   1.4273835  )
        52           C   tau(  52) = (   5.0000004  16.2303943   5.6914616  )
        53           C   tau(  53) = (   5.0000002  16.2350920   9.9338893  )
        54           C   tau(  54) = (   5.0000001  16.2289698  14.1897095  )
        55           C   tau(  55) = (   4.9999998  18.6912835   2.8563512  )
        56           C   tau(  56) = (   5.0000000  18.7106652   7.1043764  )
        57           C   tau(  57) = (   5.0000004  18.6975754  11.3548793  )
        58           C   tau(  58) = (   4.9999999  18.6607329  15.5919957  )
        59           C   tau(  59) = (   4.9999994  19.9004659   3.5632298  )
        60           C   tau(  60) = (   4.9999998  19.9510504   7.8076479  )
        61           C   tau(  61) = (   5.0000003  19.9289572  12.0836539  )
        62           C   tau(  62) = (   5.0000002  17.4830808   0.7287489  )
        63           C   tau(  63) = (   5.0000002  17.4631330   4.9815758  )
        64           C   tau(  64) = (   5.0000003  17.4726299   9.2267033  )
        65           C   tau(  65) = (   5.0000002  17.4543531  13.4725122  )
        66           C   tau(  66) = (   4.9999998  18.6607301   1.4480018  )
        67           C   tau(  67) = (   4.9999999  18.6975754   5.6851500  )
        68           C   tau(  68) = (   5.0000003  18.7106839   9.9355958  )
        69           C   tau(  69) = (   5.0000001  18.6912732  14.1836532  )
        70           C   tau(  70) = (   4.9999995  21.1602320   7.0497423  )
        71           C   tau(  71) = (   5.0000002  21.1526032  11.3537485  )
        72           C   tau(  72) = (   4.9999996  19.9289578   4.9563198  )
        73           C   tau(  73) = (   5.0000001  19.9510305   9.2323710  )
        74           C   tau(  74) = (   5.0000001  19.9004814  13.4767773  )
        75           C   tau(  75) = (   4.9999993  21.1525921   5.6863471  )
        76           C   tau(  76) = (   5.0000001  21.1602523   9.9901638  )
        77           H   tau(  77) = (   5.0000002   7.8815554   7.5648429  )
        78           H   tau(  78) = (   5.0000004   7.9075323  11.9076572  )
        79           H   tau(  79) = (   4.9999993   7.9075368   5.1323503  )
        80           H   tau(  80) = (   5.0000013   7.8815507   9.4751559  )
        81           H   tau(  81) = (   4.9999994  22.1184541   7.5648447  )
        82           H   tau(  82) = (   5.0000003  22.0924540  11.9076486  )
        83           H   tau(  83) = (   4.9999987  22.0924666   5.1323382  )
        84           H   tau(  84) = (   5.0000001  22.1184368   9.4751666  )
        85           H   tau(  85) = (   4.9999991   9.1591822   3.0083510  )
        86           H   tau(  86) = (   4.9999993  10.3766577  16.1007609  )
        87           H   tau(  87) = (   4.9999996   9.1591805  14.0316523  )
        88           H   tau(  88) = (   4.9999995  10.3766602   0.9392416  )
        89           H   tau(  89) = (   4.9999996  19.6233379  16.1007630  )
        90           H   tau(  90) = (   4.9999991  20.8408166   3.0083419  )
        91           H   tau(  91) = (   4.9999996  19.6233366   0.9392368  )
        92           H   tau(  92) = (   5.0000000  20.8408153  14.0316551  )

     number of k points=    26  Marzari-Vanderbilt smearing, width (Ry)=  0.0100
                       cart. coord. in units 2pi/alat
        k(    1) = (   0.0000000   0.0000000   0.0000000), wk =   0.0400000
        k(    2) = (   0.0000000   0.0000000   0.0011737), wk =   0.0800000
        k(    3) = (   0.0000000   0.0000000   0.0023474), wk =   0.0800000
        k(    4) = (   0.0000000   0.0000000   0.0035211), wk =   0.0800000
        k(    5) = (   0.0000000   0.0000000   0.0046948), wk =   0.0800000
        k(    6) = (   0.0000000   0.0000000   0.0058685), wk =   0.0800000
        k(    7) = (   0.0000000   0.0000000   0.0070423), wk =   0.0800000
        k(    8) = (   0.0000000   0.0000000   0.0082160), wk =   0.0800000
        k(    9) = (   0.0000000   0.0000000   0.0093897), wk =   0.0800000
        k(   10) = (   0.0000000   0.0000000   0.0105634), wk =   0.0800000
        k(   11) = (   0.0000000   0.0000000   0.0117371), wk =   0.0800000
        k(   12) = (   0.0000000   0.0000000   0.0129108), wk =   0.0800000
        k(   13) = (   0.0000000   0.0000000   0.0140845), wk =   0.0800000
        k(   14) = (   0.0000000   0.0000000   0.0152582), wk =   0.0800000
        k(   15) = (   0.0000000   0.0000000   0.0164319), wk =   0.0800000
        k(   16) = (   0.0000000   0.0000000   0.0176056), wk =   0.0800000
        k(   17) = (   0.0000000   0.0000000   0.0187793), wk =   0.0800000
        k(   18) = (   0.0000000   0.0000000   0.0199531), wk =   0.0800000
        k(   19) = (   0.0000000   0.0000000   0.0211268), wk =   0.0800000
        k(   20) = (   0.0000000   0.0000000   0.0223005), wk =   0.0800000
        k(   21) = (   0.0000000   0.0000000   0.0234742), wk =   0.0800000
        k(   22) = (   0.0000000   0.0000000   0.0246479), wk =   0.0800000
        k(   23) = (   0.0000000   0.0000000   0.0258216), wk =   0.0800000
        k(   24) = (   0.0000000   0.0000000   0.0269953), wk =   0.0800000
        k(   25) = (   0.0000000   0.0000000   0.0281690), wk =   0.0800000
        k(   26) = (   0.0000000   0.0000000  -0.0293427), wk =   0.0400000

     Dense  grid:  6126037 G-vectors     FFT dimensions: ( 135, 400, 225)

     Smooth grid:  1178677 G-vectors     FFT dimensions: (  80, 240, 135)

     Estimated max dynamical RAM per process >       1.28 GB

     Estimated total dynamical RAM >      20.48 GB

     The potential is recalculated from file :
     /home/zfwang/scratch/GNRDATASET/AGNR/LS7_2_11_2_b/LS7_2_11_2_b.save/charge-density.dat


     negative rho (up, down):  3.806E-04 0.000E+00
     Starting wfcs are  320 randomized atomic wfcs +  180 random wfcs

     Band Structure Calculation
     Davidson diagonalization with overlap

     ethr =  3.13E-09,  avg # of iterations = 45.8

     total cpu time spent up to now is    10748.2 secs

     End of band structure calculation

          k = 0.0000 0.0000 0.0000 (147325 PWs)   bands (ev):

   -21.7074 -21.3673 -21.2638 -21.2364 -20.8825 -20.6012 -20.5702 -20.2993
   -20.2176 -20.1061 -19.7726 -19.7101 -19.6183 -19.5965 -19.1755 -18.9912
   -18.7764 -18.5980 -18.4241 -18.4130 -18.3513 -18.1670 -18.0635 -18.0141
   -17.6320 -17.4682 -17.3064 -17.3061 -17.1405 -17.0959 -16.9654 -16.5704
   -16.5185 -16.3960 -16.3467 -15.9329 -15.8226 -15.4698 -15.3551 -15.1182
   -15.1001 -14.9944 -14.8111 -14.7975 -14.5242 -14.5216 -14.2911 -14.2184
   -13.7366 -13.5027 -13.4683 -13.3707 -13.3672 -12.9906 -12.9807 -12.9241
   -12.7384 -12.6733 -12.5189 -12.5011 -12.4371 -12.0557 -11.9827 -11.8943
   -11.6364 -11.2594 -11.2481 -11.1304 -11.0413 -11.0193 -11.0166 -10.8238
   -10.6117 -10.5200 -10.4822 -10.3865 -10.2453 -10.2053 -10.0073  -9.9346
    -9.8586  -9.7786  -9.7071  -9.7043  -9.5050  -9.4617  -9.3646  -9.3244
    -9.2717  -9.2565  -9.2426  -9.1961  -9.1322  -9.0379  -8.9539  -8.9137
    -8.8553  -8.8191  -8.8151  -8.7219  -8.7076  -8.6801  -8.6186  -8.5417
    -8.5270  -8.5046  -8.4879  -8.4043  -8.3281  -8.2012  -8.1235  -8.0529
    -8.0385  -7.9876  -7.9311  -7.7732  -7.7243  -7.7090  -7.6483  -7.5225
    -7.5132  -7.4720  -7.4075  -7.3946  -7.3743  -7.1934  -7.1609  -6.9413
    -6.9295  -6.7168  -6.7117  -6.6603  -6.4948  -6.4659  -6.4326  -6.4224
    -6.3268  -6.3209  -6.1670  -6.0202  -5.9902  -5.8208  -5.7255  -5.7070
    -5.6979  -5.6057  -5.2531  -5.1536  -5.1212  -4.8999  -4.8464  -4.8144
    -4.7005  -4.4512  -4.3139  -4.2817  -3.9846  -3.5970  -3.1512  -2.6779
    -2.1200  -1.6267  -1.3136  -0.8303  -0.7734  -0.6410  -0.6230  -0.3455
    -0.1463  -0.0400  -0.0219   0.0810   0.3615   0.3616   0.7020   0.7524
     0.7615   0.9781   1.0003   1.0473   1.1267   1.1709   1.2188   1.2801
     1.3027   1.3179   1.3551   1.4184   1.4211   1.4797   1.4935   1.7131
     1.8664   1.9071   1.9302   1.9356   1.9525   1.9538   1.9834   2.0280
     2.0539   2.3241   2.3691   2.3821   2.4482   2.4851   2.5265   2.5511
     2.5553   2.5839   2.6072   2.6580   2.7038   2.7137   2.7211   2.7365
     2.7622   2.8659   2.8976   2.9436   2.9738   3.0076   3.0524   3.0913
     3.0915   3.1005   3.1119   3.1285   3.1299   3.2875   3.3021   3.3531
     3.4034   3.4095   3.4265   3.4332   3.4334   3.4431   3.4551   3.5065
     3.5239   3.5419   3.5604   3.5627   3.6660   3.7208   3.7426   3.7476
     3.7684   3.7745   3.8460   3.9097   3.9230   3.9368   3.9636   4.0025
     4.0504   4.0548   4.0616   4.1156   4.1428   4.1578   4.1980   4.2394
     4.2408   4.2512   4.2917   4.3037   4.3193   4.3507   4.3545   4.3777
     4.3980   4.4474   4.4476   4.5020   4.5825   4.5873   4.6061   4.6454
     4.6687   4.6806   4.6955   4.7003   4.7113   4.7654   4.7985   4.8179
     4.8562   4.8691   4.9046   4.9158   4.9719   4.9962   5.0464   5.0539
     5.0680   5.0900   5.1156   5.1476   5.1525   5.2534   5.2539   5.2546
     5.2929   5.3144   5.3613   5.3928   5.3972   5.4006   5.4161   5.4374
     5.4415   5.4485   5.4789   5.5045   5.5131   5.5684   5.5695   5.5992
     5.6433   5.6485   5.6577   5.6672   5.7162   5.7246   5.7247   5.7431
     5.7496   5.7660   5.7893   5.8050   5.8530   5.8604   5.8827   5.9332
     5.9346   5.9445   5.9550   5.9673   5.9733   5.9835   5.9897   6.0161
     6.0689   6.0706   6.1031   6.1311   6.1674   6.2023   6.2150   6.2195
     6.2456   6.2818   6.2950   6.3086   6.3159   6.3278   6.4395   6.4666
     6.5018   6.5207   6.5318   6.5413   6.5777   6.5783   6.5852   6.5884
     6.5896   6.5969   6.6106   6.6800   6.7036   6.7057   6.7242   6.7565
     6.7596   6.8079   6.8233   6.8293   6.8823   6.8893   6.9187   6.9303
     6.9305   6.9611   6.9625   6.9786   6.9816   7.0220   7.0400   7.0413
     7.0520   7.0727   7.0912   7.0982   7.1030   7.1192   7.1348   7.1361
     7.1447   7.1470   7.1536   7.1868   7.1873   7.2352   7.2515   7.2853
     7.3056   7.3146   7.3212   7.3220   7.3674   7.3924   7.4064   7.4301
     7.4482   7.4484   7.4643   7.4828   7.4946   7.5184   7.5300   7.5682
     7.5703   7.6092   7.6118   7.6155   7.6241   7.6744   7.6862   7.7551
     7.7561   7.7807   7.7966   7.8256   7.8295   7.8325   7.8366   7.8698
     7.8814   7.8978   7.9011   7.9170   7.9173   7.9397   7.9608   8.0040
     8.0384   8.0478   8.0672   8.0675   8.0722   8.0997   8.1076   8.1145
     8.1172   8.1421   8.1531   8.1762   8.1957   8.1983   8.2128   8.2701
     8.3019   8.3460   8.3864   8.3876   8.3962   8.4032   8.4095   8.4471
     8.4770   8.4816   8.4880   8.5101   8.5241   8.5270   8.5443   8.5574
     8.5810   8.6009   8.6187   8.6213   8.6312   8.6329   8.6832   8.6841
     8.7230   8.7472   8.7647   8.7945   8.8121   8.8134   8.8399   8.8442
     8.8679   8.8753   8.9039   8.9155

          k = 0.0000 0.0000 0.0012 (147355 PWs)   bands (ev):

   -21.7073 -21.3691 -21.2617 -21.2363 -20.8829 -20.6005 -20.5702 -20.3063
   -20.2120 -20.1047 -19.7771 -19.7095 -19.6141 -19.5961 -19.1755 -18.9934
   -18.7748 -18.5976 -18.4404 -18.4131 -18.3343 -18.1727 -18.0634 -18.0088
   -17.6325 -17.4675 -17.3337 -17.2805 -17.1395 -17.0941 -16.9654 -16.5707
   -16.5201 -16.3990 -16.3463 -15.9315 -15.8250 -15.4673 -15.3592 -15.1177
   -15.0960 -14.9922 -14.8114 -14.7961 -14.5314 -14.5157 -14.2919 -14.2178
   -13.7363 -13.5024 -13.4679 -13.3884 -13.3503 -13.0161 -12.9980 -12.8897
   -12.7336 -12.6725 -12.5229 -12.4948 -12.4360 -12.0555 -11.9847 -11.8920
   -11.6362 -11.2647 -11.2472 -11.1331 -11.0486 -11.0215 -11.0048 -10.8192
   -10.6123 -10.5252 -10.4826 -10.3810 -10.2478 -10.2050 -10.0074  -9.9378
    -9.8678  -9.7785  -9.7040  -9.6916  -9.5045  -9.4631  -9.3674  -9.3242
    -9.2685  -9.2609  -9.2426  -9.1919  -9.1335  -9.0392  -8.9655  -8.9010
    -8.8698  -8.8157  -8.8063  -8.7206  -8.7090  -8.6791  -8.6199  -8.5412
    -8.5260  -8.5046  -8.4879  -8.4030  -8.3266  -8.2012  -8.1313  -8.0530
    -8.0337  -7.9871  -7.9281  -7.7757  -7.7256  -7.7101  -7.6446  -7.5241
    -7.5188  -7.4719  -7.4069  -7.3873  -7.3763  -7.1914  -7.1626  -6.9412
    -6.9281  -6.7459  -6.6834  -6.6635  -6.4955  -6.4636  -6.4322  -6.4262
    -6.3259  -6.3166  -6.1671  -6.0487  -5.9618  -5.8203  -5.7318  -5.7072
    -5.6983  -5.6007  -5.2530  -5.1543  -5.1207  -4.9000  -4.8453  -4.8203
    -4.6952  -4.4516  -4.3131  -4.2820  -3.9846  -3.5982  -3.1509  -2.6809
    -2.1171  -1.6274  -1.3120  -0.8303  -0.7724  -0.6403  -0.6228  -0.3455
    -0.1471  -0.0499  -0.0237   0.0919   0.3504   0.3740   0.7022   0.7525
     0.7617   0.9715   0.9783   1.0766   1.1236   1.1684   1.2221   1.2510
     1.2829   1.3544   1.3696   1.4187   1.4214   1.4663   1.5074   1.7112
     1.8618   1.8996   1.9369   1.9405   1.9441   1.9531   1.9937   2.0281
     2.0552   2.3217   2.3644   2.3833   2.4528   2.4852   2.5249   2.5501
     2.5551   2.5837   2.6102   2.6523   2.7059   2.7117   2.7123   2.7461
     2.7688   2.8644   2.8994   2.9438   2.9549   3.0278   3.0446   3.0835
     3.0989   3.0993   3.1010   3.1394   3.1418   3.2849   3.2902   3.3634
     3.3916   3.4056   3.4115   3.4315   3.4330   3.4580   3.4612   3.4992
     3.5320   3.5537   3.5604   3.5625   3.6587   3.7210   3.7349   3.7573
     3.7750   3.7782   3.8464   3.9019   3.9215   3.9289   3.9714   4.0075
     4.0283   4.0468   4.0879   4.1199   4.1424   4.1464   4.2126   4.2232
     4.2366   4.2683   4.2871   4.3041   4.3104   4.3535   4.3553   4.3753
     4.3956   4.4558   4.4576   4.4962   4.5609   4.5758   4.6248   4.6413
     4.6507   4.6730   4.6950   4.7241   4.7304   4.7692   4.8006   4.8144
     4.8577   4.8721   4.9010   4.9158   4.9764   4.9867   5.0175   5.0637
     5.0922   5.0976   5.1151   5.1456   5.1552   5.2508   5.2550   5.2559
     5.2885   5.3136   5.3494   5.3801   5.3901   5.4016   5.4179   5.4211
     5.4429   5.4606   5.4929   5.5019   5.5272   5.5702   5.5790   5.5908
     5.6439   5.6446   5.6540   5.6602   5.7121   5.7176   5.7259   5.7307
     5.7674   5.7703   5.7845   5.8035   5.8577   5.8740   5.8797   5.9214
     5.9269   5.9449   5.9509   5.9634   5.9862   5.9876   5.9974   6.0195
     6.0713   6.0768   6.1004   6.1318   6.1687   6.1931   6.2237   6.2251
     6.2458   6.2712   6.2858   6.3151   6.3261   6.3329   6.4372   6.4614
     6.4923   6.5132   6.5350   6.5462   6.5551   6.5597   6.5857   6.5869
     6.5993   6.6192   6.6221   6.6790   6.7084   6.7093   6.7257   6.7526
     6.7555   6.8186   6.8228   6.8247   6.8767   6.8872   6.9224   6.9252
     6.9268   6.9611   6.9643   6.9705   6.9851   7.0281   7.0327   7.0453
     7.0491   7.0678   7.0756   7.0809   7.0869   7.1268   7.1378   7.1388
     7.1515   7.1557   7.1810   7.1823   7.2002   7.2286   7.2644   7.2849
     7.2869   7.3210   7.3220   7.3414   7.3649   7.3916   7.3967   7.4221
     7.4485   7.4528   7.4677   7.4698   7.4780   7.5278   7.5331   7.5544
     7.5938   7.6121   7.6230   7.6242   7.6270   7.6785   7.6836   7.7520
     7.7535   7.7793   7.7890   7.8161   7.8247   7.8333   7.8504   7.8695
     7.8804   7.8984   7.8997   7.9185   7.9204   7.9430   7.9627   8.0022
     8.0112   8.0383   8.0581   8.0731   8.0795   8.0815   8.1028   8.1291
     8.1339   8.1463   8.1553   8.1808   8.1946   8.1975   8.2172   8.2449
     8.3368   8.3522   8.3847   8.3864   8.3878   8.4085   8.4127   8.4447
     8.4689   8.4797   8.4946   8.5015   8.5260   8.5311   8.5567   8.5596
     8.5811   8.5905   8.6171   8.6194   8.6316   8.6441   8.6838   8.6845
     8.7246   8.7420   8.7630   8.7902   8.7941   8.8135   8.8219   8.8536
     8.8732   8.8757   8.9073   8.9165

          k = 0.0000 0.0000 0.0023 (147377 PWs)   bands (ev):

   -21.7069 -21.3740 -21.2559 -21.2362 -20.8842 -20.5982 -20.5702 -20.3230
   -20.1993 -20.1003 -19.7892 -19.7083 -19.6027 -19.5949 -19.1753 -18.9998
   -18.7705 -18.5963 -18.4715 -18.4134 -18.3011 -18.1879 -18.0633 -17.9950
   -17.6340 -17.4657 -17.3626 -17.2574 -17.1365 -17.0883 -16.9653 -16.5716
   -16.5247 -16.4075 -16.3451 -15.9274 -15.8322 -15.4606 -15.3704 -15.1162
   -15.0848 -14.9858 -14.8120 -14.7921 -14.5410 -14.5097 -14.2943 -14.2160
   -13.7354 -13.5017 -13.4667 -13.4087 -13.3326 -13.0704 -13.0183 -12.8392
   -12.7216 -12.6694 -12.5280 -12.4824 -12.4327 -12.0549 -11.9901 -11.8857
   -11.6356 -11.2791 -11.2451 -11.1410 -11.0591 -11.0275 -10.9819 -10.8063
   -10.6144 -10.5380 -10.4839 -10.3671 -10.2549 -10.2040 -10.0121  -9.9469
    -9.8812  -9.7780  -9.7031  -9.6556  -9.5030  -9.4672  -9.3750  -9.3236
    -9.2718  -9.2599  -9.2424  -9.1822  -9.1374  -9.0437  -8.9839  -8.8946
    -8.8786  -8.8175  -8.7880  -8.7156  -8.7128  -8.6765  -8.6234  -8.5399
    -8.5230  -8.5044  -8.4879  -8.3991  -8.3220  -8.2013  -8.1502  -8.0532
    -8.0238  -7.9855  -7.9189  -7.7827  -7.7296  -7.7127  -7.6348  -7.5395
    -7.5213  -7.4716  -7.4053  -7.3817  -7.3691  -7.1858  -7.1677  -6.9409
    -6.9241  -6.7778  -6.6724  -6.6535  -6.4979  -6.4573  -6.4360  -6.4307
    -6.3231  -6.3056  -6.1672  -6.0882  -5.9233  -5.8185  -5.7483  -5.7079
    -5.6996  -5.5883  -5.2527  -5.1564  -5.1193  -4.9002  -4.8422  -4.8353
    -4.6820  -4.4530  -4.3108  -4.2828  -3.9846  -3.6016  -3.1498  -2.6896
    -2.1084  -1.6296  -1.3075  -0.8305  -0.7695  -0.6380  -0.6223  -0.3456
    -0.1501  -0.0723  -0.0290   0.1178   0.3404   0.3876   0.7028   0.7526
     0.7622   0.9282   0.9788   1.1154   1.1215   1.1613   1.1926   1.2307
     1.2903   1.3526   1.4194   1.4223   1.4281   1.4484   1.5269   1.7054
     1.8506   1.8857   1.9277   1.9482   1.9526   1.9550   2.0119   2.0284
     2.0591   2.3146   2.3528   2.3870   2.4645   2.4855   2.5202   2.5479
     2.5544   2.5833   2.6183   2.6386   2.6997   2.7057   2.7119   2.7615
     2.7855   2.8586   2.9044   2.9292   2.9444   3.0291   3.0537   3.0740
     3.0805   3.1025   3.1153   3.1580   3.1612   3.2670   3.2778   3.3656
     3.3762   3.3799   3.4170   3.4286   3.4326   3.4596   3.4808   3.4894
     3.5530   3.5615   3.5620   3.5771   3.6436   3.7215   3.7232   3.7753
     3.7809   3.7963   3.8475   3.8852   3.9132   3.9146   3.9856   3.9992
     4.0211   4.0356   4.1147   4.1298   4.1335   4.1410   4.2033   4.2256
     4.2388   4.2757   4.2894   4.2910   4.3055   4.3461   4.3667   4.3686
     4.3978   4.4737   4.4764   4.4820   4.5307   4.5525   4.6167   4.6389
     4.6432   4.6718   4.6981   4.7531   4.7686   4.7793   4.8056   4.8059
     4.8625   4.8798   4.8932   4.9151   4.9688   4.9813   4.9886   5.0789
     5.1022   5.1137   5.1362   5.1401   5.1627   5.2432   5.2553   5.2614
     5.2770   5.3103   5.3116   5.3698   5.3720   5.4035   5.4130   5.4227
     5.4381   5.4435   5.5187   5.5370   5.5424   5.5703   5.5724   5.6038
     5.6331   5.6408   5.6414   5.6470   5.6912   5.7216   5.7244   5.7275
     5.7509   5.7729   5.7961   5.8314   5.8505   5.8722   5.8917   5.9091
     5.9166   5.9337   5.9574   5.9731   5.9846   5.9983   6.0176   6.0292
     6.0735   6.0953   6.0953   6.1326   6.1725   6.1842   6.2347   6.2382
     6.2464   6.2535   6.2724   6.3233   6.3435   6.3453   6.4310   6.4489
     6.4639   6.4983   6.5315   6.5404   6.5424   6.5505   6.5746   6.5909
     6.6050   6.6357   6.6535   6.6804   6.7153   6.7201   6.7320   6.7434
     6.7512   6.8073   6.8280   6.8421   6.8615   6.8870   6.9042   6.9145
     6.9370   6.9444   6.9655   6.9684   6.9920   7.0210   7.0220   7.0316
     7.0359   7.0475   7.0769   7.0816   7.0828   7.1274   7.1359   7.1451
     7.1500   7.1662   7.1758   7.2216   7.2357   7.2392   7.2677   7.2839
     7.2915   7.3204   7.3221   7.3499   7.3712   7.3814   7.3883   7.4092
     7.4478   7.4551   7.4552   7.4600   7.4784   7.4856   7.5577   7.5910
     7.5973   7.6128   7.6252   7.6443   7.6683   7.6763   7.6889   7.7405
     7.7462   7.7718   7.7757   7.8110   7.8159   7.8316   7.8587   7.8774
     7.8785   7.8954   7.9002   7.9153   7.9268   7.9519   7.9675   7.9737
     7.9942   8.0372   8.0421   8.0510   8.0558   8.0824   8.1119   8.1272
     8.1369   8.1602   8.1760   8.1923   8.1945   8.1957   8.2305   8.2358
     8.3678   8.3683   8.3835   8.3855   8.3889   8.4064   8.4233   8.4381
     8.4616   8.4775   8.4898   8.5005   8.5315   8.5385   8.5651   8.5732
     8.5737   8.5883   8.6121   8.6163   8.6330   8.6634   8.6833   8.6858
     8.7115   8.7297   8.7583   8.7584   8.7932   8.8040   8.8170   8.8590
     8.8775   8.8796   8.9140   8.9172

          k = 0.0000 0.0000 0.0035 (147387 PWs)   bands (ev):

   -21.7063 -21.3812 -21.2471 -21.2359 -20.8861 -20.5946 -20.5701 -20.3443
   -20.1858 -20.0920 -19.8060 -19.7073 -19.5929 -19.5861 -19.1750 -19.0098
   -18.7641 -18.5947 -18.5044 -18.4139 -18.2639 -18.2088 -18.0629 -17.9763
   -17.6361 -17.4627 -17.3924 -17.2376 -17.1316 -17.0784 -16.9652 -16.5733
   -16.5321 -16.4207 -16.3438 -15.9208 -15.8436 -15.4521 -15.3843 -15.1141
   -15.0685 -14.9751 -14.8125 -14.7857 -14.5517 -14.5049 -14.2982 -14.2131
   -13.7341 -13.5006 -13.4646 -13.4297 -13.3158 -13.1268 -13.0476 -12.7915
   -12.7077 -12.6617 -12.5291 -12.4673 -12.4272 -12.0538 -11.9978 -11.8764
   -11.6346 -11.3005 -11.2418 -11.1537 -11.0684 -11.0354 -10.9545 -10.7871
   -10.6189 -10.5534 -10.4862 -10.3489 -10.2656 -10.2020 -10.0334  -9.9527
    -9.8850  -9.7773  -9.7017  -9.6126  -9.4996  -9.4737  -9.3855  -9.3225
    -9.2860  -9.2475  -9.2420  -9.1709  -9.1442  -9.0528  -8.9981  -8.9203
    -8.8556  -8.8204  -8.7761  -8.7186  -8.7042  -8.6726  -8.6286  -8.5377
    -8.5181  -8.5042  -8.4878  -8.3928  -8.3148  -8.2015  -8.1743  -8.0536
    -8.0148  -7.9829  -7.9034  -7.7933  -7.7361  -7.7154  -7.6213  -7.5624
    -7.5215  -7.4712  -7.4026  -7.3901  -7.3452  -7.1773  -7.1757  -6.9403
    -6.9178  -6.8099  -6.6859  -6.6251  -6.5027  -6.4485  -6.4481  -6.4281
    -6.3183  -6.2905  -6.1675  -6.1280  -5.8865  -5.8138  -5.7708  -5.7091
    -5.7017  -5.5728  -5.2520  -5.1600  -5.1170  -4.9005  -4.8550  -4.8370
    -4.6652  -4.4556  -4.3067  -4.2842  -3.9846  -3.6074  -3.1480  -2.7036
    -2.0945  -1.6330  -1.3000  -0.8306  -0.7646  -0.6343  -0.6215  -0.3458
    -0.1573  -0.0968  -0.0375   0.1503   0.3313   0.4024   0.7038   0.7527
     0.7632   0.8841   0.9798   1.1040   1.1342   1.1512   1.1683   1.2427
     1.3012   1.3498   1.4193   1.4238   1.4321   1.4864   1.5471   1.6959
     1.8365   1.8706   1.9113   1.9580   1.9589   1.9684   2.0290   2.0314
     2.0658   2.3035   2.3376   2.3931   2.4796   2.4858   2.5128   2.5453
     2.5526   2.5826   2.6220   2.6305   2.6877   2.6965   2.7208   2.7780
     2.8076   2.8452   2.9101   2.9118   2.9454   3.0118   3.0467   3.0619
     3.0980   3.1051   3.1333   3.1784   3.1814   3.2422   3.2675   3.3348
     3.3451   3.3849   3.4243   3.4322   3.4347   3.4570   3.4835   3.4922
     3.5615   3.5665   3.5797   3.6046   3.6286   3.7142   3.7222   3.7779
     3.8083   3.8168   3.8492   3.8647   3.8979   3.8992   3.9718   4.0004
     4.0169   4.0388   4.1174   4.1353   4.1381   4.1566   4.1851   4.2117
     4.2563   4.2663   4.2686   4.3067   4.3161   4.3315   4.3583   4.3815
     4.4084   4.4418   4.4852   4.5107   4.5132   4.5316   4.5814   4.6412
     4.6471   4.6705   4.7123   4.7720   4.7939   4.8003   4.8055   4.8152
     4.8706   4.8862   4.8891   4.9109   4.9490   4.9534   5.0067   5.0864
     5.1107   5.1236   5.1325   5.1733   5.1755   5.2265   5.2553   5.2614
     5.2690   5.2700   5.3099   5.3388   5.3619   5.3993   5.4144   5.4283
     5.4301   5.4332   5.5306   5.5441   5.5727   5.5734   5.5758   5.6106
     5.6185   5.6269   5.6333   5.6499   5.6743   5.7144   5.7161   5.7232
     5.7373   5.7807   5.8203   5.8405   5.8578   5.8618   5.8647   5.9083
     5.9280   5.9466   5.9619   5.9643   6.0034   6.0112   6.0311   6.0438
     6.0773   6.0918   6.1114   6.1334   6.1789   6.1870   6.2315   6.2473
     6.2473   6.2550   6.2629   6.3324   6.3595   6.3603   6.4223   6.4249
     6.4345   6.4797   6.4994   6.5332   6.5464   6.5511   6.5726   6.5955
     6.6016   6.6460   6.6819   6.6881   6.7152   6.7274   6.7425   6.7470
     6.7514   6.7908   6.8315   6.8439   6.8659   6.8871   6.8874   6.8921
     6.9155   6.9484   6.9554   6.9571   6.9918   6.9997   7.0064   7.0323
     7.0345   7.0463   7.0633   7.0911   7.0912   7.1158   7.1293   7.1580
     7.1588   7.1692   7.1770   7.2490   7.2540   7.2672   7.2860   7.2967
     7.2978   7.3195   7.3231   7.3246   7.3786   7.3794   7.3921   7.3971
     7.4420   7.4457   7.4482   7.4554   7.4620   7.4910   7.5839   7.5984
     7.6138   7.6251   7.6283   7.6653   7.6752   7.6981   7.7121   7.7272
     7.7315   7.7537   7.7722   7.8060   7.8133   7.8266   7.8564   7.8713
     7.8880   7.8933   7.8943   7.9024   7.9328   7.9591   7.9670   7.9717
     7.9728   8.0234   8.0336   8.0342   8.0343   8.0932   8.0971   8.1094
     8.1352   8.1525   8.1880   8.1990   8.2078   8.2301   8.2495   8.2520
     8.3489   8.3755   8.3860   8.3885   8.4085   8.4262   8.4317   8.4360
     8.4634   8.4801   8.4830   8.5029   8.5394   8.5401   8.5543   8.5742
     8.5763   8.6038   8.6139   8.6187   8.6351   8.6544   8.6748   8.6830
     8.6919   8.7290   8.7495   8.7519   8.7925   8.7950   8.8214   8.8647
     8.8748   8.8826   8.9037   8.9078

          k = 0.0000 0.0000 0.0047 (147403 PWs)   bands (ev):

   -21.7055 -21.3900 -21.2362 -21.2356 -20.8888 -20.5895 -20.5701 -20.3675
   -20.1746 -20.0790 -19.8255 -19.7065 -19.5900 -19.5661 -19.1746 -19.0226
   -18.7568 -18.5948 -18.5342 -18.4150 -18.2328 -18.2253 -18.0623 -17.9556
   -17.6387 -17.4588 -17.4227 -17.2215 -17.1249 -17.0641 -16.9650 -16.5760
   -16.5423 -16.4375 -16.3424 -15.9125 -15.8585 -15.4506 -15.3908 -15.1116
   -15.0490 -14.9605 -14.8130 -14.7770 -14.5636 -14.5010 -14.3035 -14.2092
   -13.7326 -13.4995 -13.4613 -13.4515 -13.2998 -13.1838 -13.0828 -12.7541
   -12.6971 -12.6437 -12.5238 -12.4501 -12.4195 -12.0524 -12.0067 -11.8653
   -11.6333 -11.3267 -11.2374 -11.1706 -11.0770 -11.0442 -10.9245 -10.7637
   -10.6274 -10.5671 -10.4896 -10.3299 -10.2786 -10.1985 -10.0722  -9.9492
    -9.8797  -9.7763  -9.6998  -9.5706  -9.4914  -9.4823  -9.3976  -9.3208
    -9.3023  -9.2416  -9.2329  -9.1619  -9.1539  -9.0645  -9.0058  -8.9451
    -8.8342  -8.8243  -8.7728  -8.7256  -8.6864  -8.6677  -8.6344  -8.5343
    -8.5114  -8.5040  -8.4877  -8.3841  -8.3051  -8.2018  -8.2010  -8.0540
    -8.0086  -7.9793  -7.8825  -7.8061  -7.7453  -7.7179  -7.6058  -7.5880
    -7.5215  -7.4707  -7.4005  -7.3988  -7.3186  -7.1860  -7.1667  -6.9395
    -6.9097  -6.8421  -6.7027  -6.5985  -6.5111  -6.4592  -6.4388  -6.4237
    -6.3116  -6.2735  -6.1680  -6.1672  -5.8571  -5.8013  -5.7965  -5.7107
    -5.7047  -5.5569  -5.2507  -5.1652  -5.1138  -4.9009  -4.8765  -4.8299
    -4.6477  -4.4593  -4.3005  -4.2859  -3.9845  -3.6153  -3.1456  -2.7222
    -2.0762  -1.6377  -1.2898  -0.8309  -0.7581  -0.6292  -0.6201  -0.3460
    -0.1728  -0.1155  -0.0489   0.1856   0.3229   0.4182   0.7051   0.7528
     0.7645   0.8406   0.9810   1.0762   1.0909   1.1392   1.2152   1.2566
     1.3140   1.3465   1.4093   1.4260   1.4268   1.5443   1.5678   1.6826
     1.8211   1.8550   1.8964   1.9621   1.9680   1.9859   2.0299   2.0511
     2.0754   2.2891   2.3208   2.4013   2.4864   2.4959   2.5031   2.5433
     2.5490   2.5814   2.6065   2.6456   2.6772   2.6848   2.7314   2.7953
     2.8232   2.8326   2.9003   2.9207   2.9467   2.9941   3.0316   3.0437
     3.1087   3.1304   3.1519   3.1916   3.2014   3.2254   3.2555   3.3024
     3.3127   3.3755   3.4306   3.4317   3.4525   3.4526   3.4817   3.4920
     3.5619   3.5775   3.6063   3.6176   3.6342   3.7106   3.7233   3.7808
     3.8381   3.8382   3.8423   3.8515   3.8776   3.8840   3.9465   3.9926
     4.0147   4.0587   4.1091   4.1325   4.1485   4.1710   4.1860   4.1984
     4.2287   4.2536   4.2900   4.3105   4.3144   4.3408   4.3469   4.3981
     4.3993   4.4203   4.4646   4.5141   4.5276   4.5461   4.5476   4.6413
     4.6468   4.6686   4.7325   4.7652   4.8067   4.8117   4.8122   4.8554
     4.8828   4.8845   4.8914   4.8940   4.9328   4.9492   5.0304   5.0902
     5.1053   5.1249   5.1459   5.1845   5.1953   5.2145   5.2438   5.2443
     5.2558   5.2759   5.3051   5.3104   5.3466   5.3931   5.3962   5.4253
     5.4391   5.4454   5.5171   5.5244   5.5794   5.5801   5.5885   5.6048
     5.6073   5.6294   5.6553   5.6598   5.6613   5.6823   5.6960   5.7260
     5.7542   5.7849   5.8260   5.8264   5.8439   5.8603   5.8915   5.9042
     5.9231   5.9535   5.9648   5.9848   6.0236   6.0269   6.0390   6.0613
     6.0830   6.0890   6.1160   6.1378   6.1875   6.2043   6.2161   6.2455
     6.2484   6.2669   6.2732   6.3423   6.3722   6.3743   6.3822   6.4137
     6.4230   6.4585   6.4650   6.5278   6.5398   6.5602   6.5736   6.5914
     6.5992   6.6535   6.6943   6.7004   6.7012   6.7333   6.7531   6.7596
     6.7651   6.7841   6.8275   6.8325   6.8569   6.8600   6.8781   6.8877
     6.9053   6.9340   6.9374   6.9541   6.9846   6.9924   7.0088   7.0270
     7.0388   7.0467   7.0525   7.0876   7.0972   7.0994   7.1448   7.1578
     7.1667   7.1840   7.1953   7.2398   7.2678   7.2750   7.2882   7.3045
     7.3150   7.3181   7.3364   7.3437   7.3666   7.3884   7.3913   7.3996
     7.4108   7.4402   7.4427   7.4565   7.4818   7.5011   7.5996   7.6110
     7.6152   7.6346   7.6518   7.6559   7.6886   7.7032   7.7133   7.7270
     7.7386   7.7549   7.7766   7.7972   7.8105   7.8202   7.8514   7.8580
     7.8752   7.8764   7.9004   7.9015   7.9420   7.9428   7.9622   7.9701
     7.9803   8.0083   8.0245   8.0283   8.0288   8.0619   8.0894   8.1141
     8.1277   8.1551   8.1795   8.2183   8.2250   8.2498   8.2676   8.2952
     8.3313   8.3628   8.3863   8.3887   8.4197   8.4283   8.4365   8.4631
     8.4708   8.4827   8.5013   8.5034   8.5313   8.5382   8.5488   8.5724
     8.5873   8.5918   8.5929   8.6317   8.6349   8.6461   8.6734   8.6770
     8.7136   8.7185   8.7454   8.7530   8.7915   8.7933   8.8247   8.8565
     8.8597   8.8771   8.8860   8.8947

          k = 0.0000 0.0000 0.0059 (147375 PWs)   bands (ev):

   -21.7044 -21.3996 -21.2352 -21.2238 -20.8920 -20.5832 -20.5700 -20.3916
   -20.1668 -20.0616 -19.8466 -19.7060 -19.5864 -19.5440 -19.1741 -19.0376
   -18.7499 -18.6036 -18.5527 -18.4168 -18.2579 -18.1864 -18.0611 -17.9345
   -17.6412 -17.4539 -17.4535 -17.2090 -17.1164 -17.0459 -16.9648 -16.5804
   -16.5547 -16.4567 -16.3411 -15.9054 -15.8736 -15.4657 -15.3793 -15.1089
   -15.0280 -14.9422 -14.8132 -14.7658 -14.5762 -14.4979 -14.3101 -14.2045
   -13.7310 -13.4986 -13.4738 -13.4566 -13.2848 -13.2404 -13.1215 -12.7327
   -12.6929 -12.6101 -12.5116 -12.4302 -12.4096 -12.0505 -12.0163 -11.8531
   -11.6315 -11.3560 -11.2318 -11.1905 -11.0858 -11.0532 -10.8931 -10.7378
   -10.6407 -10.5761 -10.4944 -10.3123 -10.2928 -10.1924 -10.1190  -9.9420
    -9.8679  -9.7749  -9.6976  -9.5397  -9.4924  -9.4709  -9.4105  -9.3203
    -9.3185  -9.2410  -9.2168  -9.1669  -9.1596  -9.0724  -9.0092  -8.9681
    -8.8290  -8.8159  -8.7760  -8.7330  -8.6680  -8.6620  -8.6374  -8.5296
    -8.5036  -8.5030  -8.4876  -8.3732  -8.2935  -8.2289  -8.2023  -8.0544
    -8.0050  -7.9746  -7.8576  -7.8203  -7.7570  -7.7202  -7.6148  -7.5893
    -7.5216  -7.4702  -7.4122  -7.3940  -7.2907  -7.1981  -7.1547  -6.9383
    -6.9003  -6.8742  -6.7217  -6.5746  -6.5240  -6.4676  -6.4298  -6.4171
    -6.3037  -6.2554  -6.2041  -6.1688  -5.8418  -5.8241  -5.7744  -5.7128
    -5.7086  -5.5421  -5.2485  -5.1724  -5.1099  -4.9013  -4.8983  -4.8212
    -4.6311  -4.4644  -4.2918  -4.2881  -3.9845  -3.6254  -3.1426  -2.7444
    -2.0541  -1.6433  -1.2769  -0.8312  -0.7500  -0.6227  -0.6183  -0.3464
    -0.1976  -0.1257  -0.0629   0.2224   0.3148   0.4348   0.7068   0.7527
     0.7662   0.7983   0.9826   1.0188   1.0770   1.1262   1.2603   1.2713
     1.3281   1.3442   1.3930   1.4291   1.4293   1.5889   1.6010   1.6663
     1.8054   1.8395   1.8832   1.9673   1.9753   2.0043   2.0311   2.0705
     2.0877   2.2720   2.3033   2.4113   2.4871   2.4916   2.5109   2.5420
     2.5434   2.5797   2.5951   2.6624   2.6685   2.6713   2.7416   2.7976
     2.8131   2.8591   2.8963   2.9300   2.9484   2.9764   3.0174   3.0258
     3.1134   3.1602   3.1700   3.1778   3.2187   3.2387   3.2453   3.2701
     3.2796   3.3614   3.4258   3.4376   3.4490   3.4702   3.4826   3.4869
     3.5638   3.5876   3.6162   3.6274   3.6654   3.7161   3.7245   3.7844
     3.8188   3.8541   3.8542   3.8590   3.8680   3.8699   3.9233   3.9651
     4.0276   4.0789   4.1027   4.1232   4.1411   4.1824   4.1887   4.2001
     4.2120   4.2400   4.2974   4.2976   4.3156   4.3321   4.3671   4.3686
     4.4145   4.4158   4.4565   4.4978   4.5114   4.5519   4.5839   4.6331
     4.6543   4.6657   4.7477   4.7519   4.8000   4.8269   4.8321   4.8585
     4.8876   4.8886   4.8978   4.8993   4.9308   4.9633   5.0595   5.0898
     5.0966   5.1187   5.1358   5.1883   5.1941   5.2227   5.2275   5.2556
     5.2570   5.2597   5.2943   5.3148   5.3212   5.3826   5.3904   5.4159
     5.4496   5.4626   5.4926   5.5066   5.5517   5.5556   5.5832   5.6237
     5.6268   5.6491   5.6498   5.6521   5.6621   5.6778   5.6795   5.7325
     5.7729   5.7828   5.7971   5.8194   5.8605   5.8612   5.9055   5.9174
     5.9187   5.9440   5.9659   6.0233   6.0369   6.0391   6.0557   6.0758
     6.0855   6.0911   6.1149   6.1512   6.1983   6.2038   6.2212   6.2459
     6.2492   6.2792   6.2906   6.3386   6.3516   6.3805   6.3826   6.4097
     6.4194   6.4294   6.4373   6.5223   6.5344   6.5679   6.5738   6.5772
     6.6022   6.6589   6.6830   6.6841   6.7156   6.7389   6.7497   6.7802
     6.7828   6.7859   6.8157   6.8178   6.8294   6.8440   6.8504   6.8876
     6.9164   6.9219   6.9323   6.9421   6.9820   6.9864   7.0188   7.0207
     7.0304   7.0307   7.0616   7.0832   7.0923   7.1012   7.1665   7.1677
     7.1709   7.1935   7.2185   7.2252   7.2340   7.2944   7.2949   7.3096
     7.3161   7.3202   7.3548   7.3560   7.3735   7.3856   7.3958   7.4027
     7.4166   7.4401   7.4476   7.4626   7.5031   7.5047   7.6014   7.6172
     7.6311   7.6381   7.6510   7.6683   7.6840   7.6963   7.7121   7.7280
     7.7291   7.7741   7.7949   7.7989   7.8007   7.8283   7.8426   7.8471
     7.8603   7.8679   7.8817   7.8972   7.9271   7.9494   7.9638   7.9643
     7.9901   8.0056   8.0206   8.0271   8.0277   8.0421   8.0711   8.1178
     8.1230   8.1644   8.1767   8.2331   8.2433   8.2631   8.2723   8.3253
     8.3434   8.3492   8.3822   8.3849   8.4122   8.4374   8.4545   8.4718
     8.4731   8.4882   8.5020   8.5025   8.5247   8.5293   8.5588   8.5592
     8.5705   8.5854   8.5981   8.6372   8.6525   8.6719   8.6727   8.6754
     8.7035   8.7371   8.7405   8.7588   8.7787   8.7964   8.8235   8.8271
     8.8310   8.8738   8.8781   8.8904

          k = 0.0000 0.0000 0.0070 (147319 PWs)   bands (ev):

   -21.7031 -21.4097 -21.2346 -21.2103 -20.8958 -20.5757 -20.5699 -20.4162
   -20.1619 -20.0405 -19.8685 -19.7056 -19.5820 -19.5206 -19.1733 -19.0542
   -18.7451 -18.6253 -18.5542 -18.4200 -18.2828 -18.1482 -18.0587 -17.9143
   -17.6432 -17.4845 -17.4482 -17.1998 -17.1063 -17.0243 -16.9645 -16.5875
   -16.5691 -16.4766 -16.3399 -15.9123 -15.8759 -15.4910 -15.3558 -15.1062
   -15.0068 -14.9208 -14.8133 -14.7521 -14.5894 -14.4955 -14.3178 -14.1992
   -13.7300 -13.4982 -13.4964 -13.4503 -13.2988 -13.2684 -13.1625 -12.7241
   -12.6955 -12.5648 -12.4938 -12.4072 -12.3974 -12.0484 -12.0261 -11.8403
   -11.6292 -11.3872 -11.2253 -11.2124 -11.0953 -11.0623 -10.8615 -10.7106
   -10.6571 -10.5806 -10.5005 -10.3082 -10.2980 -10.1829 -10.1678  -9.9348
    -9.8509  -9.7733  -9.6952  -9.5250  -9.5036  -9.4344  -9.4237  -9.3400
    -9.3152  -9.2403  -9.1996  -9.1831  -9.1673  -9.0710  -9.0104  -8.9887
    -8.8344  -8.8023  -8.7836  -8.7394  -8.6619  -8.6557  -8.6268  -8.5235
    -8.5031  -8.4932  -8.4875  -8.3602  -8.2804  -8.2574  -8.2031  -8.0547
    -8.0032  -7.9690  -7.8352  -7.8302  -7.7711  -7.7223  -7.6422  -7.5726
    -7.5216  -7.4699  -7.4245  -7.3882  -7.2622  -7.2112  -7.1422  -6.9368
    -6.9058  -6.8901  -6.7422  -6.5542  -6.5406  -6.4732  -6.4224  -6.4075
    -6.2993  -6.2369  -6.2339  -6.1699  -5.8527  -5.8357  -5.7381  -5.7153
    -5.7133  -5.5293  -5.2451  -5.1817  -5.1052  -4.9194  -4.9017  -4.8111
    -4.6165  -4.4708  -4.2904  -4.2803  -3.9844  -3.6376  -3.1390  -2.7696
    -2.0292  -1.6498  -1.2617  -0.8315  -0.7407  -0.6156  -0.6149  -0.3468
    -0.2277  -0.1310  -0.0789   0.2601   0.3067   0.4518   0.7090   0.7521
     0.7576   0.7683   0.9623   0.9845   1.0628   1.1125   1.2863   1.2959
     1.3426   1.3506   1.3766   1.4331   1.4334   1.6104   1.6391   1.6644
     1.7896   1.8240   1.8722   1.9735   1.9807   2.0227   2.0328   2.0896
     2.1025   2.2532   2.2855   2.4225   2.4789   2.4879   2.5148   2.5415
     2.5441   2.5777   2.5892   2.6566   2.6620   2.6802   2.7433   2.7792
     2.8314   2.8866   2.8949   2.9388   2.9502   2.9588   3.0051   3.0086
     3.1192   3.1471   3.1857   3.1943   3.2184   3.2402   3.2467   3.2521
     3.2633   3.3482   3.4167   3.4406   3.4482   3.4680   3.4758   3.5064
     3.5683   3.5873   3.6302   3.6392   3.6971   3.7259   3.7334   3.7887
     3.7948   3.8292   3.8544   3.8568   3.8812   3.8965   3.9021   3.9364
     4.0384   4.0957   4.0966   4.1107   4.1297   4.1729   4.1837   4.2018
     4.2273   4.2363   4.2783   4.2814   4.2973   4.3232   4.3797   4.3880
     4.3946   4.4342   4.4692   4.4778   4.4828   4.5756   4.6212   4.6266
     4.6612   4.6619   4.7280   4.7685   4.7917   4.8229   4.8372   4.8539
     4.8788   4.8946   4.9204   4.9324   4.9378   4.9892   5.0695   5.0854
     5.0925   5.1112   5.1136   5.2014   5.2036   5.2067   5.2153   5.2246
     5.2553   5.2915   5.2963   5.3021   5.3240   5.3786   5.3793   5.4042
     5.4614   5.4741   5.4783   5.4830   5.5220   5.5258   5.5780   5.6309
     5.6331   5.6380   5.6397   5.6420   5.6677   5.6900   5.6945   5.7414
     5.7674   5.7774   5.7827   5.8330   5.8621   5.8785   5.9089   5.9117
     5.9384   5.9416   5.9657   6.0347   6.0484   6.0614   6.0732   6.0849
     6.0978   6.1027   6.1141   6.1724   6.1958   6.2111   6.2264   6.2477
     6.2540   6.2959   6.2975   6.3018   6.3613   6.3825   6.3847   6.3937
     6.4071   6.4252   6.4274   6.5160   6.5300   6.5609   6.5713   6.5738
     6.6058   6.6610   6.6620   6.6680   6.7263   6.7364   6.7419   6.7563
     6.7713   6.7884   6.8064   6.8216   6.8343   6.8407   6.8485   6.8871
     6.9031   6.9141   6.9166   6.9546   6.9766   6.9809   7.0034   7.0207
     7.0313   7.0346   7.0442   7.0899   7.1028   7.1114   7.1573   7.1675
     7.1897   7.2002   7.2184   7.2270   7.2297   7.2931   7.2956   7.3131
     7.3155   7.3377   7.3498   7.3720   7.3757   7.3760   7.4043   7.4201
     7.4320   7.4413   7.4780   7.4830   7.4988   7.5187   7.6042   7.6175
     7.6290   7.6321   7.6545   7.6821   7.6826   7.6950   7.7171   7.7199
     7.7228   7.7467   7.8060   7.8253   7.8262   7.8266   7.8350   7.8372
     7.8484   7.8506   7.8602   7.8924   7.9266   7.9479   7.9581   7.9617
     7.9967   8.0086   8.0196   8.0257   8.0355   8.0513   8.0595   8.1088
     8.1134   8.1744   8.1880   8.2430   8.2575   8.2627   8.2757   8.3363
     8.3380   8.3750   8.3806   8.3815   8.3996   8.4358   8.4566   8.4636
     8.4754   8.4819   8.4963   8.4998   8.5156   8.5174   8.5572   8.5693
     8.5960   8.5983   8.6064   8.6371   8.6706   8.6751   8.6775   8.6889
     8.7011   8.7421   8.7454   8.7603   8.7628   8.7945   8.8024   8.8144
     8.8159   8.8709   8.8735   8.8778

          k = 0.0000 0.0000 0.0082 (147293 PWs)   bands (ev):

   -21.7016 -21.4200 -21.2340 -21.1959 -20.9000 -20.5698 -20.5671 -20.4410
   -20.1591 -20.0168 -19.8908 -19.7054 -19.5769 -19.4964 -19.1723 -19.0719
   -18.7448 -18.6497 -18.5465 -18.4255 -18.3061 -18.1132 -18.0526 -17.8957
   -17.6442 -17.5156 -17.4417 -17.1930 -17.0949 -17.0003 -16.9641 -16.5990
   -16.5851 -16.4951 -16.3387 -15.9342 -15.8645 -15.5203 -15.3262 -15.1036
   -14.9860 -14.8972 -14.8133 -14.7357 -14.6026 -14.4937 -14.3265 -14.1935
   -13.7301 -13.5191 -13.4983 -13.4424 -13.3542 -13.2549 -13.2049 -12.7220
   -12.7035 -12.5147 -12.4731 -12.3823 -12.3804 -12.0461 -12.0359 -11.8273
   -11.6264 -11.4197 -11.2354 -11.2178 -11.1062 -11.0717 -10.8316 -10.6833
   -10.6732 -10.5822 -10.5080 -10.3260 -10.2880 -10.2142 -10.1695  -9.9282
    -9.8302  -9.7714  -9.6930  -9.5186  -9.5153  -9.4370  -9.3923  -9.3612
    -9.3098  -9.2395  -9.2015  -9.1826  -9.1816  -9.0616  -9.0104  -9.0070
    -8.8403  -8.7957  -8.7944  -8.7422  -8.6664  -8.6493  -8.6054  -8.5158
    -8.5022  -8.4874  -8.4820  -8.3452  -8.2862  -8.2659  -8.2041  -8.0548
    -8.0026  -7.9625  -7.8504  -7.8011  -7.7876  -7.7244  -7.6697  -7.5563
    -7.5215  -7.4700  -7.4369  -7.3813  -7.2334  -7.2247  -7.1298  -6.9367
    -6.9348  -6.8795  -6.7636  -6.5598  -6.5379  -6.4771  -6.4176  -6.3941
    -6.3114  -6.2431  -6.2183  -6.1716  -5.8817  -5.8329  -5.7188  -5.7183
    -5.6985  -5.5189  -5.2406  -5.1934  -5.0997  -4.9390  -4.9020  -4.7997
    -4.6045  -4.4785  -4.2929  -4.2660  -3.9844  -3.6517  -3.1349  -2.7971
    -2.0021  -1.6569  -1.2443  -0.8318  -0.7307  -0.6120  -0.6061  -0.3474
    -0.2594  -0.1342  -0.0966   0.2982   0.2983   0.4687   0.7114   0.7191
     0.7503   0.7708   0.9075   0.9866   1.0485   1.0986   1.3005   1.3064
     1.3569   1.3612   1.3812   1.4383   1.4389   1.6197   1.6322   1.7150
     1.7741   1.8088   1.8639   1.9806   1.9845   2.0326   2.0435   2.1085
     2.1193   2.2331   2.2678   2.4343   2.4653   2.4887   2.5024   2.5414
     2.5572   2.5757   2.5882   2.6411   2.6577   2.6969   2.7253   2.7815
     2.8499   2.8947   2.9143   2.9418   2.9458   2.9521   2.9921   2.9954
     3.1193   3.1257   3.1859   3.2053   3.2150   3.2199   3.2255   3.2718
     3.2873   3.3418   3.4046   3.4400   3.4495   3.4510   3.4780   3.5305
     3.5758   3.5829   3.6436   3.6509   3.7204   3.7346   3.7592   3.7716
     3.7939   3.8043   3.8424   3.8584   3.8828   3.8992   3.9084   3.9214
     4.0465   4.0888   4.0955   4.0978   4.1349   4.1492   4.1826   4.2157
     4.2215   4.2357   4.2567   4.2673   4.2708   4.3342   4.3585   4.4007
     4.4230   4.4464   4.4531   4.4710   4.4848   4.5920   4.6290   4.6535
     4.6592   4.6676   4.7091   4.7824   4.7861   4.7870   4.8423   4.8707
     4.8762   4.9020   4.9354   4.9455   4.9771   5.0169   5.0279   5.0728
     5.1049   5.1089   5.1249   5.1837   5.1881   5.1967   5.2097   5.2275
     5.2556   5.2651   5.3098   5.3356   5.3366   5.3624   5.3759   5.3911
     5.4589   5.4633   5.4747   5.4813   5.4985   5.5031   5.5576   5.6013
     5.6321   5.6326   5.6424   5.6535   5.6757   5.6972   5.7082   5.7419
     5.7428   5.7772   5.7886   5.8594   5.8622   5.8966   5.9029   5.9201
     5.9381   5.9586   5.9656   6.0239   6.0429   6.0855   6.0979   6.1093
     6.1122   6.1184   6.1225   6.1924   6.1976   6.2253   6.2299   6.2329
     6.2595   6.2716   6.3040   6.3084   6.3587   6.3713   6.3773   6.3891
     6.4016   6.4352   6.4402   6.5086   6.5258   6.5437   6.5680   6.5748
     6.6091   6.6333   6.6594   6.6620   6.7097   6.7149   6.7233   6.7277
     6.7428   6.7936   6.8208   6.8325   6.8443   6.8521   6.8596   6.8865
     6.8925   6.8956   6.9136   6.9692   6.9705   6.9733   6.9826   6.9944
     7.0261   7.0487   7.0709   7.0874   7.1019   7.1224   7.1430   7.1539
     7.2050   7.2111   7.2216   7.2232   7.2439   7.2880   7.2920   7.3098
     7.3290   7.3477   7.3613   7.3788   7.3807   7.3887   7.4046   7.4264
     7.4411   7.4428   7.4832   7.5176   7.5227   7.5257   7.6072   7.6086
     7.6139   7.6416   7.6569   7.6707   7.6806   7.6865   7.7077   7.7227
     7.7417   7.7499   7.7951   7.8070   7.8134   7.8141   7.8205   7.8435
     7.8501   7.8651   7.8751   7.8883   7.9241   7.9452   7.9462   7.9720
     7.9994   8.0118   8.0262   8.0404   8.0406   8.0581   8.0722   8.0944
     8.1052   8.1822   8.2031   8.2352   8.2482   8.2825   8.2881   8.3317
     8.3515   8.3570   8.3635   8.3763   8.3909   8.4338   8.4457   8.4458
     8.4812   8.4979   8.5029   8.5044   8.5109   8.5208   8.5472   8.5692
     8.6139   8.6176   8.6334   8.6345   8.6678   8.6684   8.6851   8.7119
     8.7121   8.7140   8.7520   8.7606   8.7680   8.7813   8.7998   8.8112
     8.8132   8.8530   8.8739   8.8763

          k = 0.0000 0.0000 0.0094 (147291 PWs)   bands (ev):

   -21.6999 -21.4303 -21.2334 -21.1809 -20.9045 -20.5696 -20.5576 -20.4659
   -20.1576 -19.9915 -19.9134 -19.7052 -19.5710 -19.4717 -19.1710 -19.0904
   -18.7531 -18.6684 -18.5345 -18.4348 -18.3261 -18.0886 -18.0359 -17.8795
   -17.6435 -17.5468 -17.4343 -17.1879 -17.0823 -16.9747 -16.9637 -16.6166
   -16.6024 -16.5098 -16.3375 -15.9608 -15.8491 -15.5516 -15.2928 -15.1009
   -14.9661 -14.8724 -14.8132 -14.7168 -14.6152 -14.4924 -14.3359 -14.1874
   -13.7321 -13.5414 -13.4992 -13.4332 -13.4091 -13.2480 -13.2414 -12.7229
   -12.7152 -12.4645 -12.4517 -12.3633 -12.3498 -12.0455 -12.0435 -11.8145
   -11.6230 -11.4529 -11.2588 -11.2096 -11.1185 -11.0814 -10.8063 -10.6848
   -10.6571 -10.5818 -10.5162 -10.3507 -10.2823 -10.2521 -10.1525  -9.9223
    -9.8071  -9.7692  -9.6911  -9.5274  -9.5147  -9.4501  -9.3840  -9.3557
    -9.2998  -9.2386  -9.2192  -9.2009  -9.1630  -9.0484  -9.0229  -9.0098
    -8.8466  -8.8079  -8.7974  -8.7398  -8.6727  -8.6430  -8.5827  -8.5066
    -8.5004  -8.4873  -8.4696  -8.3284  -8.3151  -8.2506  -8.2055  -8.0547
    -8.0028  -7.9551  -7.8658  -7.8063  -7.7709  -7.7266  -7.6974  -7.5412
    -7.5215  -7.4712  -7.4484  -7.3735  -7.2379  -7.2048  -7.1183  -6.9661
    -6.9321  -6.8688  -6.7856  -6.5804  -6.5259  -6.4800  -6.4166  -6.3770
    -6.3386  -6.2321  -6.1998  -6.1742  -5.9106  -5.8313  -5.7252  -5.7217
    -5.6577  -5.5110  -5.2349  -5.2077  -5.0935  -4.9567  -4.9023  -4.7873
    -4.5957  -4.4869  -4.2953  -4.2489  -3.9843  -3.6677  -3.1305  -2.8264
    -1.9732  -1.6645  -1.2249  -0.8322  -0.7205  -0.6070  -0.5963  -0.3482
    -0.2912  -0.1367  -0.1155   0.2892   0.3365   0.4849   0.6838   0.7143
     0.7452   0.7737   0.8564   0.9888   1.0345   1.0846   1.3022   1.3118
     1.3486   1.3707   1.4258   1.4451   1.4456   1.5943   1.6542   1.7589
     1.7648   1.7939   1.8603   1.9869   1.9885   2.0347   2.0618   2.1272
     2.1376   2.2126   2.2503   2.4455   2.4513   2.4848   2.4897   2.5415
     2.5710   2.5747   2.5927   2.6251   2.6558   2.6910   2.7218   2.7914
     2.8685   2.8953   2.9222   2.9452   2.9497   2.9531   2.9774   2.9890
     3.0909   3.1312   3.1610   3.1876   3.1901   3.2355   3.2377   3.2935
     3.3030   3.3531   3.3913   3.4330   3.4359   3.4520   3.4799   3.5548
     3.5781   3.5860   3.6446   3.6732   3.7158   3.7507   3.7666   3.7816
     3.7850   3.7999   3.8360   3.8537   3.8656   3.8869   3.9123   3.9393
     4.0521   4.0762   4.0820   4.0872   4.1314   4.1535   4.1836   4.1912
     4.2059   4.2389   4.2459   4.2556   4.2728   4.3302   4.3486   4.4130
     4.4187   4.4531   4.4698   4.4726   4.4986   4.5957   4.6406   4.6469
     4.6694   4.6939   4.6971   4.7518   4.7866   4.7943   4.8407   4.8676
     4.8985   4.9091   4.9390   4.9727   4.9736   5.0155   5.0537   5.0599
     5.0998   5.1047   5.1482   5.1516   5.1637   5.1802   5.2206   5.2276
     5.2526   5.2651   5.3107   5.3463   5.3501   5.3609   5.3730   5.3885
     5.4380   5.4514   5.4586   5.4851   5.4878   5.5049   5.5327   5.5674
     5.6291   5.6428   5.6448   5.6666   5.6732   5.7018   5.7047   5.7223
     5.7331   5.7849   5.8104   5.8597   5.8799   5.8834   5.9265   5.9390
     5.9412   5.9669   5.9685   6.0080   6.0336   6.1060   6.1142   6.1254
     6.1262   6.1384   6.1535   6.1943   6.2044   6.2236   6.2356   6.2406
     6.2616   6.2677   6.2993   6.3123   6.3259   6.3517   6.3932   6.4012
     6.4023   6.4457   6.4626   6.4999   6.5211   6.5261   6.5607   6.5775
     6.6042   6.6058   6.6575   6.6575   6.6599   6.6814   6.6894   6.7207
     6.7441   6.7883   6.8237   6.8447   6.8483   6.8586   6.8805   6.8805
     6.8873   6.9011   6.9212   6.9543   6.9569   6.9678   6.9687   6.9852
     7.0336   7.0654   7.0820   7.0853   7.0992   7.1018   7.1399   7.1721
     7.2028   7.2123   7.2264   7.2299   7.2569   7.2807   7.3033   7.3070
     7.3459   7.3481   7.3832   7.3856   7.3966   7.4040   7.4043   7.4169
     7.4421   7.4530   7.4709   7.5221   7.5393   7.5683   7.5834   7.6150
     7.6238   7.6490   7.6576   7.6608   7.6639   7.6746   7.7067   7.7251
     7.7502   7.7510   7.7820   7.7861   7.7867   7.8100   7.8321   7.8456
     7.8489   7.8838   7.8881   7.8911   7.9129   7.9339   7.9472   7.9971
     8.0008   8.0294   8.0331   8.0389   8.0513   8.0663   8.0843   8.0978
     8.1107   8.1866   8.2115   8.2124   8.2491   8.2793   8.3009   8.3187
     8.3331   8.3470   8.3642   8.3718   8.3802   8.4267   8.4329   8.4523
     8.4776   8.4956   8.5037   8.5104   8.5245   8.5365   8.5487   8.5707
     8.6043   8.6269   8.6294   8.6513   8.6609   8.6749   8.7001   8.7064
     8.7113   8.7126   8.7401   8.7711   8.7816   8.7924   8.7980   8.8123
     8.8201   8.8280   8.8681   8.8743

          k = 0.0000 0.0000 0.0106 (147327 PWs)   bands (ev):

   -21.6980 -21.4406 -21.2326 -21.1653 -20.9092 -20.5695 -20.5471 -20.4907
   -20.1570 -19.9651 -19.9361 -19.7050 -19.5645 -19.4468 -19.1693 -19.1096
   -18.7720 -18.6778 -18.5197 -18.4490 -18.3413 -18.0782 -18.0046 -17.8663
   -17.6410 -17.5778 -17.4260 -17.1842 -17.0688 -16.9630 -16.9482 -16.6408
   -16.6206 -16.5197 -16.3362 -15.9898 -15.8322 -15.5840 -15.2566 -15.0982
   -14.9473 -14.8477 -14.8129 -14.6955 -14.6260 -14.4915 -14.3458 -14.1813
   -13.7373 -13.5630 -13.5007 -13.4622 -13.4229 -13.2911 -13.2282 -12.7295
   -12.7256 -12.4307 -12.4186 -12.3375 -12.3158 -12.0548 -12.0407 -11.8022
   -11.6188 -11.4865 -11.2821 -11.2011 -11.1322 -11.0915 -10.7913 -10.6859
   -10.6342 -10.5796 -10.5237 -10.3877 -10.2799 -10.2753 -10.1330  -9.9167
    -9.7824  -9.7668  -9.6900  -9.5396  -9.5116  -9.4631  -9.4077  -9.3355
    -9.2885  -9.2376  -9.2234  -9.2197  -9.1439  -9.0370  -9.0341  -9.0088
    -8.8531  -8.8236  -8.8048  -8.7339  -8.6790  -8.6373  -8.5617  -8.4971
    -8.4962  -8.4871  -8.4562  -8.3440  -8.3098  -8.2346  -8.2070  -8.0541
    -8.0035  -7.9469  -7.8810  -7.8271  -7.7400  -7.7288  -7.7249  -7.5279
    -7.5215  -7.4752  -7.4572  -7.3647  -7.2498  -7.1766  -7.1091  -6.9928
    -6.9286  -6.8582  -6.8080  -6.6017  -6.5178  -6.4825  -6.4236  -6.3645
    -6.3566  -6.2133  -6.1815  -6.1779  -5.9388  -5.8300  -5.7325  -5.7255
    -5.6163  -5.5056  -5.2282  -5.2247  -5.0864  -4.9721  -4.9025  -4.7742
    -4.5909  -4.4953  -4.2974  -4.2292  -3.9842  -3.6853  -3.1257  -2.8569
    -1.9432  -1.6724  -1.2036  -0.8325  -0.7111  -0.6001  -0.5857  -0.3492
    -0.3222  -0.1388  -0.1351   0.2789   0.3750   0.4989   0.6531   0.7176
     0.7311   0.7769   0.8150   0.9906   1.0214   1.0706   1.2938   1.3135
     1.3455   1.3833   1.4537   1.4538   1.4739   1.5665   1.6763   1.7443
     1.7794   1.8014   1.8700   1.9881   1.9971   2.0365   2.0793   2.1461
     2.1572   2.1928   2.2334   2.4369   2.4548   2.4660   2.4908   2.5413
     2.5759   2.5793   2.6050   2.6088   2.6563   2.6642   2.7374   2.8016
     2.8869   2.8968   2.9056   2.9486   2.9495   2.9684   2.9735   2.9865
     3.0626   3.1297   3.1304   3.1723   3.1746   3.2421   3.2500   3.3160
     3.3170   3.3784   3.3811   3.4148   3.4287   3.4553   3.4821   3.5735
     3.5782   3.5983   3.6445   3.6957   3.6971   3.7414   3.7621   3.7949
     3.7963   3.8069   3.8339   3.8486   3.8533   3.8810   3.9170   3.9466
     4.0537   4.0581   4.0663   4.0800   4.1219   4.1550   4.1740   4.1844
     4.1996   4.2199   4.2467   4.2509   4.2851   4.3054   4.3628   4.4016
     4.4083   4.4836   4.4853   4.4925   4.5086   4.5967   4.6220   4.6670
     4.6716   4.6838   4.7116   4.7408   4.7944   4.8050   4.8344   4.8671
     4.9160   4.9206   4.9247   4.9432   4.9984   5.0477   5.0529   5.0761
     5.1004   5.1022   5.1155   5.1436   5.1569   5.1580   5.2036   5.2515
     5.2607   5.2760   5.2942   5.3370   5.3439   5.3623   5.3912   5.3960
     5.4233   5.4304   5.4566   5.4735   5.4835   5.5099   5.5274   5.5352
     5.6328   5.6468   5.6576   5.6578   5.6786   5.6809   5.7065   5.7091
     5.7307   5.7948   5.8376   5.8518   5.8778   5.8878   5.9362   5.9447
     5.9654   5.9712   5.9784   5.9892   6.0377   6.1181   6.1200   6.1204
     6.1414   6.1616   6.1868   6.2023   6.2047   6.2419   6.2478   6.2551
     6.2627   6.2700   6.2929   6.2977   6.3124   6.3318   6.3990   6.4030
     6.4199   6.4564   6.4885   6.4893   6.5087   6.5165   6.5544   6.5750
     6.5825   6.5887   6.6095   6.6383   6.6482   6.6628   6.6773   6.7098
     6.7395   6.7777   6.8245   6.8457   6.8516   6.8527   6.8831   6.8882
     6.8965   6.9094   6.9204   6.9396   6.9400   6.9701   6.9713   6.9956
     7.0402   7.0491   7.0676   7.0847   7.0975   7.1287   7.1346   7.1874
     7.1966   7.2212   7.2292   7.2353   7.2638   7.2805   7.3058   7.3286
     7.3497   7.3598   7.3861   7.3936   7.4030   7.4113   7.4190   7.4205
     7.4349   7.4672   7.4689   7.5053   7.5385   7.5667   7.5994   7.6240
     7.6365   7.6483   7.6491   7.6568   7.6645   7.6858   7.7041   7.7100
     7.7230   7.7419   7.7547   7.7747   7.8164   7.8270   7.8325   7.8538
     7.8641   7.8789   7.8939   7.8950   7.9062   7.9219   7.9540   7.9957
     8.0317   8.0346   8.0434   8.0436   8.0504   8.0843   8.1020   8.1239
     8.1248   8.1864   8.1882   8.2117   8.2231   8.2469   8.3140   8.3244
     8.3288   8.3470   8.3639   8.3664   8.3718   8.4104   8.4348   8.4582
     8.4727   8.4922   8.5052   8.5128   8.5203   8.5254   8.5665   8.5733
     8.5919   8.6226   8.6369   8.6479   8.6578   8.6770   8.6884   8.7092
     8.7162   8.7259   8.7420   8.7658   8.7715   8.8073   8.8100   8.8228
     8.8249   8.8304   8.8551   8.8694

          k = 0.0000 0.0000 0.0117 (147325 PWs)   bands (ev):

   -21.6959 -21.4507 -21.2318 -21.1492 -20.9140 -20.5694 -20.5358 -20.5154
   -20.1570 -19.9587 -19.9379 -19.7049 -19.5574 -19.4220 -19.1671 -19.1292
   -18.7984 -18.6806 -18.5027 -18.4686 -18.3514 -18.0745 -17.9664 -17.8563
   -17.6363 -17.6087 -17.4167 -17.1813 -17.0548 -16.9622 -16.9215 -16.6705
   -16.6392 -16.5255 -16.3349 -16.0204 -15.8143 -15.6169 -15.2184 -15.0955
   -14.9295 -14.8253 -14.8125 -14.6722 -14.6332 -14.4909 -14.3560 -14.1750
   -13.7469 -13.5847 -13.5113 -13.5033 -13.4124 -13.3329 -13.2155 -12.7456
   -12.7294 -12.4102 -12.3816 -12.3013 -12.2791 -12.0638 -12.0377 -11.7908
   -11.6137 -11.5203 -11.3048 -11.1935 -11.1467 -11.1022 -10.7901 -10.6735
   -10.6180 -10.5751 -10.5273 -10.4349 -10.2849 -10.2800 -10.1122  -9.9113
    -9.7641  -9.7571  -9.6898  -9.5521  -9.5085  -9.4758  -9.4315  -9.3319
    -9.2938  -9.2377  -9.2366  -9.1962  -9.1242  -9.0495  -9.0207  -9.0069
    -8.8598  -8.8413  -8.8148  -8.7270  -8.6845  -8.6322  -8.5446  -8.4907
    -8.4871  -8.4850  -8.4418  -8.3728  -8.2896  -8.2181  -8.2088  -8.0530
    -8.0046  -7.9382  -7.8961  -7.8497  -7.7523  -7.7310  -7.7088  -7.5215
    -7.5174  -7.4835  -7.4619  -7.3550  -7.2595  -7.1492  -7.1052  -7.0140
    -6.9239  -6.8482  -6.8305  -6.6233  -6.5127  -6.4847  -6.4447  -6.3787
    -6.3337  -6.1914  -6.1833  -6.1635  -5.9658  -5.8290  -5.7405  -5.7297
    -5.5748  -5.5025  -5.2442  -5.2209  -5.0783  -4.9853  -4.9027  -4.7608
    -4.5909  -4.5026  -4.2990  -4.2072  -3.9842  -3.7046  -3.1207  -2.8883
    -1.9124  -1.6804  -1.1807  -0.8329  -0.7033  -0.5909  -0.5746  -0.3517
    -0.3505  -0.1550  -0.1408   0.2671   0.4133   0.5084   0.6298   0.6995
     0.7212   0.7805   0.7919   0.9902   1.0110   1.0567   1.2836   1.3035
     1.3537   1.3944   1.4637   1.4645   1.5231   1.5369   1.6973   1.7315
     1.7654   1.8135   1.9034   1.9880   2.0064   2.0384   2.0932   2.1654
     2.1765   2.1777   2.2175   2.4222   2.4470   2.4608   2.4919   2.5401
     2.5804   2.5837   2.5924   2.6225   2.6376   2.6590   2.7517   2.8113
     2.8884   2.9000   2.9038   2.9391   2.9405   2.9682   2.9880   3.0024
     3.0348   3.0996   3.1172   3.1592   3.1751   3.2349   3.2621   3.3373
     3.3387   3.3681   3.3968   3.4153   3.4192   3.4594   3.4847   3.5690
     3.5995   3.6115   3.6441   3.6707   3.7176   3.7307   3.7549   3.7891
     3.8072   3.8089   3.8151   3.8596   3.8781   3.8832   3.9121   3.9414
     4.0178   4.0504   4.0643   4.0786   4.1194   4.1313   4.1825   4.1928
     4.1930   4.1995   4.2393   4.2547   4.2881   4.2936   4.3697   4.3946
     4.4056   4.5080   4.5127   4.5130   4.5147   4.6000   4.6017   4.6626
     4.6773   4.6785   4.6976   4.7779   4.8085   4.8147   4.8258   4.8557
     4.8891   4.9224   4.9428   4.9477   5.0127   5.0403   5.0668   5.0801
     5.0885   5.1065   5.1185   5.1239   5.1371   5.1584   5.1905   5.2527
     5.2677   5.2800   5.3028   5.3161   5.3494   5.3716   5.3730   5.3839
     5.4208   5.4476   5.4526   5.4584   5.4710   5.5084   5.5160   5.5482
     5.6382   5.6434   5.6462   5.6590   5.6751   5.6790   5.6903   5.7120
     5.7400   5.8052   5.8363   5.8522   5.8803   5.8956   5.9421   5.9481
     5.9668   5.9675   5.9743   6.0084   6.0613   6.0828   6.1225   6.1279
     6.1594   6.1858   6.2153   6.2180   6.2336   6.2450   6.2567   6.2662
     6.2675   6.2748   6.2877   6.2910   6.3117   6.3162   6.4023   6.4047
     6.4264   6.4664   6.4763   6.4918   6.5025   6.5227   6.5435   6.5455
     6.5604   6.5646   6.5899   6.6266   6.6355   6.6363   6.6891   6.6914
     6.7335   6.7760   6.8269   6.8309   6.8368   6.8516   6.8703   6.8865
     6.8936   6.9053   6.9317   6.9350   6.9621   6.9772   6.9860   7.0062
     7.0169   7.0418   7.0547   7.0988   7.1009   7.1320   7.1385   7.1973
     7.2105   7.2203   7.2276   7.2426   7.2780   7.2857   7.3064   7.3520
     7.3582   7.3590   7.3703   7.3943   7.3998   7.4189   7.4343   7.4372
     7.4481   7.4673   7.4809   7.4880   7.5271   7.5595   7.5854   7.6281
     7.6362   7.6452   7.6496   7.6577   7.6700   7.6725   7.7119   7.7128
     7.7209   7.7352   7.7382   7.7792   7.8139   7.8486   7.8587   7.8591
     7.8707   7.8760   7.8926   7.8960   7.9125   7.9204   7.9637   7.9949
     8.0137   8.0228   8.0536   8.0712   8.0907   8.1093   8.1255   8.1310
     8.1414   8.1667   8.1682   8.2004   8.2015   8.2428   8.3026   8.3246
     8.3353   8.3542   8.3597   8.3605   8.3736   8.3988   8.4403   8.4635
     8.4669   8.4863   8.5077   8.5080   8.5107   8.5128   8.5363   8.5758
     8.6000   8.6161   8.6276   8.6380   8.6678   8.6735   8.6855   8.7014
     8.7283   8.7294   8.7484   8.7502   8.7746   8.8037   8.8051   8.8228
     8.8392   8.8546   8.8596   8.8632

          k = 0.0000 0.0000 0.0129 (147299 PWs)   bands (ev):

   -21.6936 -21.4606 -21.2310 -21.1327 -20.9188 -20.5695 -20.5398 -20.5238
   -20.1574 -19.9812 -19.9101 -19.7048 -19.5496 -19.3974 -19.1642 -19.1491
   -18.8284 -18.6805 -18.4925 -18.4839 -18.3573 -18.0730 -17.9261 -17.8496
   -17.6392 -17.6296 -17.4062 -17.1790 -17.0408 -16.9611 -16.8950 -16.7042
   -16.6577 -16.5282 -16.3336 -16.0522 -15.7960 -15.6500 -15.1787 -15.0926
   -14.9127 -14.8118 -14.8082 -14.6472 -14.6340 -14.4906 -14.3661 -14.1688
   -13.7624 -13.6106 -13.5509 -13.5077 -13.4065 -13.3677 -13.2031 -12.7630
   -12.7340 -12.3901 -12.3536 -12.2551 -12.2406 -12.0723 -12.0345 -11.7807
   -11.6075 -11.5540 -11.3264 -11.1912 -11.1576 -11.1133 -10.7980 -10.6534
   -10.6129 -10.5668 -10.5231 -10.4874 -10.2854 -10.2817 -10.0910  -9.9061
    -9.7611  -9.7316  -9.6910  -9.5658  -9.5051  -9.4882  -9.4539  -9.3452
    -9.3000  -9.2545  -9.2355  -9.1532  -9.1041  -9.0609  -9.0117  -9.0020
    -8.8664  -8.8607  -8.8249  -8.7203  -8.6892  -8.6278  -8.5330  -8.4871
    -8.4798  -8.4737  -8.4266  -8.4014  -8.2680  -8.2105  -8.2013  -8.0514
    -8.0059  -7.9299  -7.9109  -7.8729  -7.7795  -7.7333  -7.6773  -7.5214
    -7.5109  -7.4942  -7.4643  -7.3445  -7.2659  -7.1231  -7.1109  -7.0251
    -6.9176  -6.8530  -6.8390  -6.6447  -6.5097  -6.4868  -6.4764  -6.3834
    -6.3093  -6.1910  -6.1676  -6.1460  -5.9908  -5.8280  -5.7494  -5.7342
    -5.5333  -5.5013  -5.2661  -5.2134  -5.0693  -4.9963  -4.9029  -4.7472
    -4.5965  -4.5080  -4.2998  -4.1835  -3.9841  -3.7253  -3.1155  -2.9202
    -1.8812  -1.6886  -1.1563  -0.8333  -0.6979  -0.5793  -0.5634  -0.3786
    -0.3521  -0.1746  -0.1426   0.2532   0.4510   0.5095   0.6178   0.6545
     0.7253   0.7834   0.7845   0.9836   1.0074   1.0430   1.2723   1.2900
     1.3647   1.4038   1.4753   1.4774   1.5059   1.5727   1.7070   1.7308
     1.7520   1.8128   1.9480   1.9865   2.0163   2.0401   2.0977   2.1695
     2.1859   2.1969   2.2047   2.4071   2.4283   2.4627   2.4929   2.5363
     2.5760   2.5874   2.5889   2.6143   2.6416   2.6642   2.7611   2.8215
     2.8712   2.9052   2.9126   2.9237   2.9330   2.9723   2.9934   3.0077
     3.0301   3.0705   3.1048   3.1443   3.1865   3.2227   3.2681   3.3611
     3.3612   3.3637   3.3793   3.4085   3.4505   3.4642   3.4886   3.5648
     3.6157   3.6244   3.6417   3.6434   3.7204   3.7384   3.7559   3.7799
     3.7803   3.8005   3.8246   3.8873   3.8884   3.8926   3.9181   3.9264
     3.9725   4.0347   4.0605   4.0920   4.1163   4.1185   4.1658   4.1755
     4.2039   4.2087   4.2310   4.2533   4.2830   4.2987   4.3777   4.3778
     4.4236   4.5123   4.5309   4.5329   4.5454   4.5776   4.6115   4.6444
     4.6588   4.6729   4.7232   4.8032   4.8168   4.8234   4.8272   4.8287
     4.8836   4.9286   4.9523   4.9651   5.0064   5.0376   5.0478   5.0483
     5.0923   5.1048   5.1171   5.1232   5.1593   5.1630   5.1781   5.2390
     5.2528   5.2724   5.3109   5.3397   5.3460   5.3560   5.3687   5.3777
     5.4222   5.4334   5.4406   5.4568   5.4804   5.4930   5.5354   5.5768
     5.6148   5.6276   5.6553   5.6593   5.6729   5.6745   5.6946   5.7136
     5.7560   5.8159   5.8194   5.8536   5.8628   5.9244   5.9298   5.9557
     5.9597   5.9698   5.9729   6.0362   6.0388   6.0883   6.1274   6.1408
     6.1718   6.2056   6.2301   6.2420   6.2440   6.2450   6.2629   6.2748
     6.2784   6.2855   6.2933   6.3010   6.3104   6.3160   6.4006   6.4088
     6.4235   6.4603   6.4713   6.4762   6.4962   6.5040   6.5073   6.5263
     6.5435   6.5652   6.5946   6.6109   6.6244   6.6312   6.6636   6.7086
     6.7339   6.7797   6.8046   6.8069   6.8314   6.8399   6.8463   6.8823
     6.9005   6.9120   6.9307   6.9438   6.9775   6.9859   6.9944   7.0150
     7.0172   7.0375   7.0462   7.1114   7.1141   7.1177   7.1457   7.2067
     7.2151   7.2267   7.2275   7.2573   7.2856   7.3010   7.3088   7.3302
     7.3549   7.3770   7.3789   7.3867   7.3989   7.4111   7.4531   7.4584
     7.4630   7.4670   7.4755   7.5074   7.5137   7.5560   7.5569   7.6054
     7.6116   7.6365   7.6459   7.6521   7.6703   7.6784   7.7004   7.7171
     7.7493   7.7495   7.7553   7.7975   7.8050   7.8458   7.8587   7.8650
     7.8754   7.8784   7.9071   7.9095   7.9290   7.9322   7.9738   7.9971
     7.9980   8.0139   8.0634   8.0687   8.0950   8.1296   8.1354   8.1474
     8.1556   8.1623   8.1804   8.1817   8.2118   8.2386   8.2856   8.3227
     8.3304   8.3519   8.3598   8.3631   8.3715   8.3973   8.4484   8.4581
     8.4624   8.4688   8.4966   8.5033   8.5083   8.5085   8.5273   8.5669
     8.5761   8.5986   8.6114   8.6330   8.6521   8.6885   8.6905   8.7007
     8.7278   8.7371   8.7384   8.7426   8.7824   8.7986   8.8043   8.8237
     8.8241   8.8477   8.8501   8.8678

          k = 0.0000 0.0000 0.0141 (147253 PWs)   bands (ev):

   -21.6911 -21.4702 -21.2301 -21.1157 -20.9236 -20.5710 -20.5625 -20.5112
   -20.1580 -20.0035 -19.8821 -19.7047 -19.5414 -19.3733 -19.1691 -19.1605
   -18.8596 -18.6793 -18.5193 -18.4637 -18.3603 -18.0724 -17.8849 -17.8459
   -17.6693 -17.6213 -17.3943 -17.1772 -17.0273 -16.9598 -16.8692 -16.7405
   -16.6757 -16.5286 -16.3321 -16.0848 -15.7774 -15.6832 -15.1381 -15.0895
   -14.8966 -14.8107 -14.7993 -14.6257 -14.6214 -14.4905 -14.3756 -14.1627
   -13.7847 -13.6465 -13.5743 -13.5157 -13.4257 -13.3733 -13.1911 -12.7813
   -12.7391 -12.3701 -12.3304 -12.2037 -12.2010 -12.0804 -12.0310 -11.7722
   -11.5999 -11.5876 -11.3467 -11.2025 -11.1569 -11.1250 -10.8094 -10.6339
   -10.6190 -10.5523 -10.5425 -10.5109 -10.2845 -10.2794 -10.0699  -9.9008
    -9.7580  -9.7067  -9.6937  -9.5818  -9.5010  -9.5002  -9.4731  -9.3711
    -9.2989  -9.2698  -9.2343  -9.1072  -9.0836  -9.0708  -9.0086  -8.9939
    -8.8814  -8.8729  -8.8337  -8.7142  -8.6929  -8.6240  -8.5266  -8.4875
    -8.4649  -8.4629  -8.4295  -8.4106  -8.2453  -8.2120  -8.1845  -8.0491
    -8.0074  -7.9269  -7.9255  -7.8917  -7.8065  -7.7356  -7.6457  -7.5214
    -7.5092  -7.5056  -7.4662  -7.3330  -7.2679  -7.1270  -7.0987  -7.0256
    -6.9093  -6.8754  -6.8312  -6.6656  -6.5121  -6.5083  -6.4889  -6.3845
    -6.2839  -6.2016  -6.1426  -6.1289  -6.0131  -5.8269  -5.7591  -5.7391
    -5.5017  -5.4918  -5.2900  -5.2060  -5.0593  -5.0054  -4.9031  -4.7340
    -4.6075  -4.5110  -4.2995  -4.1583  -3.9840  -3.7474  -3.1102  -2.9523
    -1.8498  -1.6966  -1.1305  -0.8336  -0.6955  -0.5661  -0.5527  -0.4018
    -0.3540  -0.1934  -0.1444   0.2369   0.4865   0.5011   0.6066   0.6186
     0.7297   0.7806   0.7889   0.9722   1.0092   1.0295   1.2602   1.2759
     1.3756   1.4119   1.4737   1.4886   1.4921   1.6225   1.6974   1.7391
     1.7503   1.8090   1.9834   1.9933   2.0265   2.0416   2.0887   2.1762
     2.1880   2.2079   2.2221   2.3917   2.4100   2.4611   2.4939   2.5276
     2.5598   2.5910   2.5971   2.6004   2.6613   2.6723   2.7640   2.8338
     2.8538   2.8985   2.9037   2.9121   2.9412   2.9798   2.9823   3.0023
     3.0335   3.0666   3.0974   3.1304   3.2013   3.2087   3.2656   3.3625
     3.3674   3.3788   3.3867   3.4012   3.4698   3.4766   3.5023   3.5608
     3.6111   3.6237   3.6345   3.6424   3.7189   3.7558   3.7574   3.7600
     3.7707   3.7871   3.8355   3.8739   3.8923   3.9060   3.9236   3.9237
     3.9517   4.0194   4.0526   4.1040   4.1109   4.1148   4.1398   4.1645
     4.1964   4.2234   4.2278   4.2587   4.2889   4.3035   4.3592   4.3931
     4.4439   4.5083   4.5506   4.5520   4.5529   4.5795   4.6121   4.6245
     4.6587   4.6700   4.7475   4.7567   4.8197   4.8308   4.8489   4.8554
     4.8846   4.9347   4.9569   4.9865   4.9897   5.0164   5.0254   5.0361
     5.0588   5.0868   5.1277   5.1493   5.1631   5.1799   5.1837   5.2115
     5.2365   5.2812   5.3054   5.3152   5.3528   5.3602   5.3623   5.3988
     5.4207   5.4208   5.4222   5.4501   5.4884   5.4983   5.5685   5.5907
     5.6035   5.6094   5.6540   5.6588   5.6687   5.6787   5.7128   5.7159
     5.7747   5.8023   5.8244   5.8443   5.8528   5.8995   5.9384   5.9639
     5.9662   5.9780   5.9816   5.9933   6.0574   6.1068   6.1322   6.1650
     6.1757   6.2066   6.2397   6.2455   6.2489   6.2613   6.2745   6.2759
     6.2903   6.3043   6.3092   6.3122   6.3181   6.3303   6.3994   6.3996
     6.4260   6.4412   6.4549   6.4561   6.4632   6.4863   6.4903   6.5044
     6.5590   6.5642   6.5799   6.5873   6.6226   6.6512   6.6524   6.7275
     6.7389   6.7638   6.7715   6.7853   6.8177   6.8378   6.8402   6.8752
     6.9020   6.9191   6.9322   6.9369   6.9876   6.9900   6.9921   7.0272
     7.0324   7.0444   7.0486   7.1041   7.1266   7.1333   7.1516   7.1929
     7.2173   7.2215   7.2605   7.2673   7.2773   7.3105   7.3170   7.3262
     7.3402   7.3594   7.3874   7.4034   7.4107   7.4129   7.4386   7.4602
     7.4773   7.4882   7.4992   7.5052   7.5057   7.5465   7.5542   7.5676
     7.5715   7.6349   7.6388   7.6614   7.6687   7.6717   7.6894   7.7327
     7.7638   7.7691   7.7938   7.7960   7.8198   7.8211   7.8553   7.8708
     7.8759   7.8916   7.9297   7.9321   7.9424   7.9506   7.9778   7.9965
     7.9969   8.0050   8.0204   8.0736   8.1090   8.1231   8.1499   8.1561
     8.1709   8.1798   8.1878   8.1956   8.2331   8.2368   8.2728   8.3131
     8.3286   8.3435   8.3435   8.3688   8.3712   8.4007   8.4313   8.4468
     8.4578   8.4738   8.4905   8.4980   8.5045   8.5091   8.5252   8.5375
     8.5590   8.5732   8.6075   8.6307   8.6331   8.6731   8.6732   8.7115
     8.7130   8.7265   8.7279   8.7732   8.7822   8.7875   8.7895   8.8232
     8.8274   8.8330   8.8395   8.8655

          k = 0.0000 0.0000 0.0153 (147267 PWs)   bands (ev):

   -21.6885 -21.4795 -21.2292 -21.0984 -20.9283 -20.5897 -20.5679 -20.4980
   -20.1588 -20.0256 -19.8538 -19.7046 -19.5327 -19.3502 -19.1893 -19.1555
   -18.8911 -18.6779 -18.5478 -18.4423 -18.3615 -18.0722 -17.8447 -17.8438
   -17.6983 -17.6121 -17.3809 -17.1758 -17.0150 -16.9581 -16.8450 -16.7781
   -16.6923 -16.5274 -16.3306 -16.1181 -15.7589 -15.7162 -15.0972 -15.0862
   -14.8808 -14.8091 -14.7993 -14.6076 -14.5954 -14.4905 -14.3839 -14.1567
   -13.8141 -13.6884 -13.5854 -13.5315 -13.4537 -13.3615 -13.1794 -12.8004
   -12.7447 -12.3500 -12.3091 -12.1610 -12.1505 -12.0878 -12.0269 -11.7657
   -11.6209 -11.5906 -11.3654 -11.2234 -11.1487 -11.1370 -10.8213 -10.6338
   -10.6199 -10.5959 -10.5299 -10.4963 -10.2880 -10.2677 -10.0496  -9.8957
    -9.7546  -9.6980  -9.6831  -9.6015  -9.5118  -9.4958  -9.4876  -9.4016
    -9.2952  -9.2834  -9.2331  -9.0856  -9.0627  -9.0553  -9.0071  -8.9882
    -8.9032  -8.8793  -8.8397  -8.7089  -8.6953  -8.6204  -8.5233  -8.4890
    -8.4563  -8.4531  -8.4482  -8.3940  -8.2220  -8.2126  -8.1678  -8.0461
    -8.0089  -7.9424  -7.9398  -7.8928  -7.8332  -7.7379  -7.6142  -7.5214
    -7.5170  -7.5128  -7.4685  -7.3208  -7.2650  -7.1489  -7.0769  -7.0196
    -6.8982  -6.8976  -6.8253  -6.6851  -6.5489  -6.5080  -6.4909  -6.3846
    -6.2581  -6.2159  -6.1170  -6.1123  -6.0320  -5.8257  -5.7696  -5.7443
    -5.5033  -5.4505  -5.3155  -5.1991  -5.0484  -5.0127  -4.9032  -4.7215
    -4.6231  -4.5121  -4.2977  -4.1323  -3.9838  -3.7706  -3.1050  -2.9844
    -1.8187  -1.7045  -1.1034  -0.8340  -0.6964  -0.5531  -0.5430  -0.4188
    -0.3564  -0.2104  -0.1460   0.2181   0.4872   0.5082   0.5709   0.6282
     0.7344   0.7799   0.7936   0.9596   1.0128   1.0162   1.2476   1.2619
     1.3858   1.4190   1.4406   1.5036   1.5080   1.6723   1.6849   1.7270
     1.7733   1.8044   1.9784   2.0359   2.0372   2.0417   2.0723   2.1762
     2.1918   2.2323   2.2446   2.3758   2.3925   2.4569   2.4948   2.5126
     2.5439   2.5875   2.5948   2.6131   2.6812   2.6839   2.7608   2.8363
     2.8480   2.8666   2.8903   2.9178   2.9488   2.9613   2.9918   3.0069
     3.0142   3.0932   3.0949   3.1178   3.1942   3.2177   3.2562   3.3467
     3.3748   3.3781   3.4128   3.4149   3.4762   3.4826   3.5348   3.5569
     3.5820   3.6208   3.6384   3.6409   3.7281   3.7362   3.7624   3.7649
     3.7741   3.7745   3.8453   3.8501   3.8752   3.8858   3.8975   3.9609
     3.9829   4.0044   4.0469   4.0885   4.1083   4.1181   4.1199   4.1624
     4.1740   4.2185   4.2536   4.2688   4.3010   4.3115   4.3395   4.4121
     4.4618   4.5028   4.5367   4.5592   4.5645   4.5925   4.6085   4.6391
     4.6652   4.6687   4.7069   4.7693   4.8145   4.8361   4.8727   4.8855
     4.8921   4.9406   4.9617   4.9619   4.9972   5.0009   5.0099   5.0255
     5.0278   5.0710   5.1264   5.1450   5.1629   5.1822   5.2022   5.2149
     5.2244   5.2712   5.3019   5.3222   5.3393   5.3410   5.3677   5.3997
     5.4093   5.4179   5.4364   5.4558   5.4878   5.5160   5.5708   5.5804
     5.6071   5.6349   5.6446   5.6627   5.6630   5.7003   5.7088   5.7388
     5.7859   5.7926   5.8165   5.8447   5.8497   5.8748   5.9157   5.9477
     5.9703   5.9789   5.9899   6.0120   6.0624   6.1320   6.1366   6.1705
     6.1847   6.1959   6.2359   6.2619   6.2655   6.2726   6.2812   6.2822
     6.2915   6.3110   6.3232   6.3336   6.3385   6.3460   6.3771   6.4015
     6.4042   6.4210   6.4260   6.4445   6.4550   6.4750   6.4875   6.4968
     6.5463   6.5598   6.5664   6.5755   6.6153   6.6637   6.6801   6.7175
     6.7348   6.7466   6.7474   6.7913   6.7931   6.8349   6.8454   6.8673
     6.9002   6.9230   6.9271   6.9332   6.9884   6.9956   6.9962   7.0328
     7.0352   7.0454   7.0784   7.0986   7.1432   7.1437   7.1681   7.1817
     7.2143   7.2208   7.2403   7.2804   7.2904   7.3047   7.3136   7.3292
     7.3496   7.3653   7.3977   7.4075   7.4113   7.4241   7.4256   7.4489
     7.4760   7.4906   7.5034   7.5098   7.5211   7.5329   7.5403   7.5548
     7.5682   7.6150   7.6423   7.6558   7.6620   7.6836   7.6940   7.7420
     7.7729   7.7858   7.7921   7.7986   7.8204   7.8297   7.8604   7.8613
[...]
    -5.5616  -5.5296  -5.1667  -5.0977  -5.0348  -4.9480  -4.9045  -4.8658
    -4.6724  -4.5070  -4.1868  -4.0070  -3.9846  -3.9228  -3.2180  -3.0693
    -1.7547  -1.5979  -0.8336  -0.8255  -0.8013  -0.6381  -0.5677  -0.3496
    -0.2152  -0.1996  -0.1450  -0.0238   0.0783   0.4107   0.7560   0.7877
     0.7937   0.8525   0.8532   0.8875   0.9104   1.0624   1.1169   1.1434
     1.1586   1.4484   1.4619   1.5855   1.6081   1.6971   1.7167   1.7733
     1.8439   1.8552   1.9922   2.0624   2.0705   2.1519   2.1680   2.1839
     2.2382   2.2740   2.3426   2.3731   2.3895   2.4209   2.4561   2.4698
     2.5429   2.5533   2.5839   2.6079   2.6655   2.6924   2.6958   2.7659
     2.7790   2.8267   2.8512   2.8558   2.9447   2.9495   3.0635   3.0720
     3.0834   3.1368   3.1450   3.1763   3.1853   3.2101   3.2116   3.3045
     3.3834   3.3844   3.4192   3.4246   3.4409   3.4866   3.5377   3.5691
     3.5848   3.6006   3.6083   3.6265   3.6403   3.6557   3.7009   3.7486
     3.8008   3.8203   3.8505   3.8579   3.8814   3.8892   3.9133   3.9358
     3.9493   3.9827   3.9997   4.0112   4.0260   4.1004   4.1279   4.1620
     4.2223   4.2517   4.2748   4.3201   4.3485   4.3916   4.4211   4.4556
     4.5086   4.5415   4.5527   4.5530   4.5732   4.6002   4.6082   4.6787
     4.7168   4.7236   4.7377   4.7583   4.7690   4.7892   4.7985   4.8268
     4.8732   4.8824   4.8929   4.9086   4.9612   4.9771   4.9900   5.0043
     5.0285   5.0391   5.0760   5.0861   5.1320   5.1883   5.2112   5.2455
     5.2574   5.2579   5.2762   5.3167   5.3207   5.3341   5.3573   5.3738
     5.3913   5.4217   5.4518   5.4893   5.5337   5.5344   5.5676   5.5698
     5.6220   5.6355   5.6728   5.7003   5.7028   5.7155   5.7714   5.8308
     5.8825   5.8858   5.9011   5.9201   5.9263   5.9278   5.9394   5.9845
     5.9868   5.9998   6.0085   6.0204   6.0468   6.0855   6.1011   6.1048
     6.1109   6.1337   6.1341   6.1409   6.1560   6.2200   6.2202   6.2400
     6.2747   6.2813   6.2858   6.2953   6.2988   6.3335   6.3419   6.3430
     6.3557   6.3849   6.4117   6.4121   6.4688   6.4737   6.5103   6.5283
     6.5874   6.6234   6.6568   6.6670   6.7325   6.7430   6.7483   6.7555
     6.7607   6.7725   6.7970   6.8052   6.8195   6.8411   6.8661   6.8836
     6.8931   6.9039   6.9149   6.9294   6.9475   6.9802   6.9873   7.0072
     7.0118   7.0268   7.0299   7.0557   7.0612   7.0683   7.0834   7.1655
     7.1666   7.1777   7.1942   7.2744   7.2893   7.2894   7.3353   7.3597
     7.3641   7.3937   7.4211   7.4221   7.4339   7.4597   7.4619   7.4688
     7.4967   7.5021   7.5071   7.5425   7.5761   7.5771   7.6001   7.6013
     7.6035   7.6218   7.6556   7.6746   7.6906   7.6962   7.7447   7.7484
     7.7895   7.7931   7.8162   7.8185   7.8266   7.8274   7.8656   7.8902
     7.9100   7.9120   7.9163   7.9607   7.9982   8.0081   8.0114   8.0295
     8.0457   8.0579   8.0618   8.0803   8.1000   8.1360   8.1544   8.1627
     8.1819   8.2035   8.2147   8.2171   8.2214   8.2309   8.2554   8.2776
     8.3075   8.3081   8.3491   8.3717   8.3814   8.3882   8.3941   8.4033
     8.4166   8.4240   8.4321   8.4536   8.4704   8.4850   8.5130   8.5177
     8.5227   8.5372   8.5524   8.5595   8.5697   8.5719   8.6163   8.6220
     8.6551   8.6585   8.6608   8.6713   8.7571   8.7593   8.7838   8.7975
     8.8004   8.8247   8.8437   8.8737

          k = 0.0000 0.0000 0.0270 (147192 PWs)   bands (ev):

   -21.6632 -21.5428 -21.2224 -20.9591 -20.9105 -20.8159 -20.5672 -20.3568
   -20.2149 -20.1662 -19.7043 -19.5912 -19.4732 -19.3584 -19.2371 -19.1315
   -18.9816 -18.8494 -18.6702 -18.3524 -18.2198 -18.0932 -17.9495 -17.8707
   -17.5513 -17.4035 -17.2279 -17.1731 -17.1481 -17.0645 -16.9757 -16.6992
   -16.6458 -16.4591 -16.4249 -16.3039 -15.9767 -15.6265 -15.0332 -14.9351
   -14.8579 -14.8125 -14.5809 -14.4979 -14.4930 -14.2980 -14.2905 -14.2044
   -14.0644 -14.0569 -13.9379 -13.5811 -13.4978 -13.2050 -13.0965 -12.9805
   -12.7960 -12.1576 -12.1394 -12.1325 -12.0172 -11.9026 -11.8720 -11.7223
   -11.6218 -11.5589 -11.4645 -11.3852 -11.2623 -11.1496 -11.0609 -10.8856
   -10.7472 -10.5910 -10.4280 -10.3508 -10.1372  -9.9938  -9.9838  -9.9252
    -9.8540  -9.7749  -9.7208  -9.6886  -9.5922  -9.5539  -9.5258  -9.3134
    -9.2986  -9.2456  -9.2239  -9.1825  -9.1347  -9.0916  -9.0010  -8.9204
    -8.8356  -8.7930  -8.7760  -8.7305  -8.6935  -8.5774  -8.5403  -8.4848
    -8.4830  -8.4517  -8.3455  -8.2943  -8.2130  -8.1478  -8.1011  -8.0681
    -8.0591  -8.0453  -8.0209  -7.9042  -7.7506  -7.7213  -7.7038  -7.6424
    -7.5298  -7.5212  -7.3547  -7.3110  -7.1971  -7.0885  -7.0592  -6.9989
    -6.9655  -6.9490  -6.8623  -6.7175  -6.6445  -6.5195  -6.5071  -6.4961
    -6.3823  -6.0839  -6.0246  -5.9961  -5.9102  -5.9085  -5.7956  -5.7700
    -5.5817  -5.5311  -5.1658  -5.0688  -5.0285  -4.9422  -4.9047  -4.8978
    -4.6725  -4.5067  -4.1673  -4.0309  -3.9844  -3.9117  -3.2301  -3.0677
    -1.7568  -1.5870  -0.8323  -0.8113  -0.7935  -0.6664  -0.5691  -0.3482
    -0.1906  -0.1823  -0.1291  -0.0488   0.0313   0.4087   0.7632   0.7882
     0.8016   0.8435   0.8605   0.9007   0.9259   1.0669   1.0793   1.1375
     1.1521   1.4518   1.4641   1.5813   1.6074   1.7198   1.7303   1.7720
     1.8193   1.8394   2.0119   2.0747   2.0784   2.1536   2.1611   2.1984
     2.2480   2.2682   2.3357   2.3736   2.3989   2.4006   2.4409   2.4951
     2.5344   2.5427   2.5928   2.6089   2.6582   2.6979   2.6982   2.7547
     2.7709   2.8223   2.8391   2.8651   2.9499   2.9819   3.0608   3.0693
     3.0718   3.1528   3.1580   3.1796   3.1906   3.2016   3.2083   3.2766
     3.3712   3.4018   3.4125   3.4250   3.4369   3.4914   3.5394   3.5455
     3.5938   3.6000   3.6039   3.6128   3.6317   3.6824   3.7263   3.7482
     3.7940   3.8075   3.8443   3.8537   3.8550   3.8814   3.9284   3.9546
     3.9696   3.9765   4.0118   4.0126   4.0358   4.0994   4.1224   4.1509
     4.2056   4.2234   4.2466   4.3495   4.3739   4.4016   4.4313   4.4854
     4.5102   4.5561   4.5631   4.5732   4.5733   4.5796   4.5843   4.6524
     4.6958   4.7117   4.7379   4.7673   4.7869   4.7943   4.8032   4.8307
     4.8680   4.8814   4.8825   4.8976   4.9338   4.9788   4.9835   4.9954
     5.0430   5.0629   5.0699   5.0792   5.1369   5.1755   5.2321   5.2549
     5.2631   5.2726   5.2752   5.3003   5.3226   5.3454   5.3566   5.3631
     5.4018   5.4232   5.4437   5.4696   5.5058   5.5315   5.5372   5.5675
     5.6333   5.6466   5.7063   5.7124   5.7149   5.7426   5.7754   5.8286
     5.8718   5.8802   5.8929   5.9139   5.9250   5.9427   5.9515   5.9738
     5.9939   6.0066   6.0284   6.0388   6.0679   6.0721   6.0927   6.1003
     6.1206   6.1248   6.1362   6.1392   6.1529   6.1843   6.2107   6.2312
     6.2532   6.2615   6.2781   6.2854   6.2948   6.3008   6.3462   6.3465
     6.3501   6.3780   6.4087   6.4179   6.4753   6.4916   6.5161   6.5417
     6.6009   6.6273   6.6658   6.6764   6.7402   6.7405   6.7533   6.7561
     6.7835   6.7967   6.7984   6.8089   6.8148   6.8429   6.8730   6.8771
     6.9028   6.9049   6.9225   6.9422   6.9652   6.9726   6.9733   7.0020
     7.0119   7.0164   7.0224   7.0361   7.0445   7.0525   7.0551   7.1462
     7.1635   7.2008   7.2142   7.2240   7.2798   7.3136   7.3299   7.3643
     7.3775   7.3799   7.4247   7.4277   7.4359   7.4366   7.4634   7.4646
     7.4914   7.5004   7.5366   7.5636   7.5651   7.5915   7.6042   7.6122
     7.6246   7.6326   7.6566   7.6944   7.7030   7.7261   7.7412   7.7444
     7.7649   7.7948   7.8038   7.8045   7.8222   7.8272   7.8343   7.8800
     7.9174   7.9197   7.9418   7.9497   8.0005   8.0163   8.0265   8.0358
     8.0363   8.0500   8.0583   8.0749   8.0859   8.1160   8.1297   8.1441
     8.1675   8.2137   8.2168   8.2257   8.2318   8.2470   8.2703   8.2828
     8.2971   8.3037   8.3543   8.3627   8.3900   8.3949   8.4091   8.4123
     8.4151   8.4223   8.4298   8.4534   8.4606   8.4959   8.5020   8.5226
     8.5278   8.5430   8.5554   8.5641   8.5725   8.5784   8.6025   8.6190
     8.6255   8.6406   8.6664   8.6816   8.7516   8.7578   8.7965   8.7979
     8.8110   8.8223   8.8374   8.8540

          k = 0.0000 0.0000 0.0282 (147224 PWs)   bands (ev):

   -21.6623 -21.5446 -21.2222 -20.9599 -20.8934 -20.8339 -20.5671 -20.3489
   -20.2239 -20.1664 -19.7043 -19.5768 -19.4777 -19.3626 -19.2358 -19.1391
   -18.9589 -18.8739 -18.6701 -18.3519 -18.2077 -18.0976 -17.9580 -17.8717
   -17.5501 -17.3631 -17.2636 -17.1527 -17.1517 -17.0847 -16.9756 -16.6967
   -16.6343 -16.4554 -16.4399 -16.3018 -15.9854 -15.6230 -15.0289 -14.9424
   -14.8547 -14.8114 -14.5698 -14.4931 -14.4727 -14.3313 -14.2853 -14.1729
   -14.0891 -14.0404 -13.9748 -13.5805 -13.4982 -13.1978 -13.0942 -12.9882
   -12.7977 -12.1486 -12.1357 -12.1310 -12.0152 -11.9146 -11.8744 -11.6821
   -11.6066 -11.5978 -11.4658 -11.3549 -11.2782 -11.1807 -11.0584 -10.8868
   -10.7505 -10.5906 -10.4271 -10.3516 -10.0994 -10.0187  -9.9734  -9.9265
    -9.8484  -9.8002  -9.7195  -9.6874  -9.5945  -9.5534  -9.5279  -9.2950
    -9.2909  -9.2545  -9.2236  -9.1829  -9.1489  -9.0980  -9.0008  -8.9214
    -8.8128  -8.7911  -8.7727  -8.7542  -8.6939  -8.5747  -8.5343  -8.4829
    -8.4574  -8.4543  -8.3538  -8.3168  -8.2014  -8.1357  -8.1115  -8.0809
    -8.0599  -8.0423  -8.0213  -7.8913  -7.7485  -7.7194  -7.7006  -7.6607
    -7.5332  -7.5212  -7.3447  -7.3142  -7.1944  -7.0720  -7.0612  -6.9982
    -6.9822  -6.9472  -6.8749  -6.7164  -6.6171  -6.5240  -6.5199  -6.5076
    -6.3822  -6.0842  -6.0112  -5.9928  -5.9197  -5.9051  -5.7976  -5.7615
    -5.5957  -5.5320  -5.1653  -5.0546  -5.0108  -4.9386  -4.9279  -4.9049
    -4.6726  -4.5066  -4.1507  -4.0499  -3.9844  -3.9047  -3.2375  -3.0668
    -1.7581  -1.5803  -0.8303  -0.8187  -0.7624  -0.6954  -0.5698  -0.3474
    -0.1797  -0.1671  -0.0988  -0.0686  -0.0139   0.4076   0.7676   0.7884
     0.8090   0.8350   0.8681   0.8920   0.9639   1.0417   1.0700   1.1339
     1.1478   1.4539   1.4656   1.5787   1.6066   1.7416   1.7423   1.7712
     1.7957   1.8269   2.0257   2.0805   2.0868   2.1421   2.1547   2.2270
     2.2547   2.2645   2.3305   2.3719   2.3732   2.4112   2.4337   2.5193
     2.5308   2.5344   2.5731   2.6261   2.6554   2.7005   2.7023   2.7468
     2.7651   2.8188   2.8297   2.8721   2.9532   3.0134   3.0583   3.0604
     3.0640   3.1596   3.1632   3.1778   3.1934   3.2030   3.2175   3.2508
     3.3621   3.3874   3.4144   3.4389   3.4496   3.4947   3.5208   3.5430
     3.5858   3.5958   3.6030   3.6219   3.6221   3.7093   3.7474   3.7517
     3.7670   3.8121   3.8278   3.8356   3.8557   3.8769   3.9389   3.9633
     3.9727   3.9984   4.0040   4.0114   4.0681   4.0760   4.1440   4.1443
     4.1606   4.2215   4.2241   4.3683   4.3823   4.4219   4.4505   4.5052
     4.5077   4.5248   4.5604   4.5733   4.5779   4.5933   4.6075   4.6275
     4.6684   4.6888   4.7488   4.7806   4.7862   4.8083   4.8086   4.8495
     4.8531   4.8594   4.8733   4.9063   4.9191   4.9778   4.9801   4.9846
     5.0540   5.0604   5.0816   5.0836   5.1366   5.1628   5.2466   5.2619
     5.2619   5.2746   5.2892   5.2940   5.3108   5.3392   5.3697   5.3746
     5.4132   5.4240   5.4380   5.4531   5.4828   5.4980   5.5412   5.5615
     5.6391   5.6564   5.7093   5.7368   5.7544   5.7704   5.7789   5.8241
     5.8312   5.8500   5.8702   5.9206   5.9442   5.9566   5.9706   5.9737
     5.9885   6.0350   6.0391   6.0396   6.0572   6.0589   6.1001   6.1138
     6.1148   6.1195   6.1382   6.1504   6.1647   6.1741   6.1881   6.2221
     6.2279   6.2414   6.2574   6.2786   6.2867   6.3013   6.3407   6.3485
     6.3572   6.3714   6.4066   6.4214   6.4770   6.5088   6.5119   6.5589
     6.6215   6.6244   6.6710   6.6837   6.7249   6.7315   6.7553   6.7657
     6.7759   6.7889   6.8016   6.8298   6.8553   6.8558   6.8745   6.8789
     6.9029   6.9130   6.9185   6.9462   6.9540   6.9574   6.9867   6.9974
     7.0020   7.0112   7.0120   7.0149   7.0316   7.0589   7.0713   7.1232
     7.1580   7.1696   7.2268   7.2335   7.2676   7.3246   7.3339   7.3675
     7.3711   7.3917   7.4126   7.4283   7.4327   7.4356   7.4558   7.4618
     7.4860   7.5069   7.5497   7.5663   7.5846   7.5869   7.6145   7.6320
     7.6335   7.6389   7.6608   7.7129   7.7131   7.7247   7.7275   7.7617
     7.7617   7.7755   7.7833   7.7881   7.8211   7.8296   7.8523   7.8556
     7.9020   7.9167   7.9403   7.9899   8.0134   8.0199   8.0281   8.0407
     8.0414   8.0424   8.0541   8.0726   8.0755   8.0807   8.1093   8.1257
     8.1775   8.2075   8.2167   8.2281   8.2505   8.2686   8.2693   8.2903
     8.2914   8.3122   8.3480   8.3573   8.3806   8.3874   8.3898   8.4226
     8.4330   8.4383   8.4389   8.4456   8.4781   8.4925   8.5007   8.5140
     8.5348   8.5492   8.5566   8.5591   8.5733   8.5817   8.5821   8.5984
     8.6259   8.6618   8.6759   8.6889   8.7413   8.7601   8.7662   8.7961
     8.8090   8.8157   8.8349   8.8551

          k = 0.0000 0.0000-0.0293 (147164 PWs)   bands (ev):

   -21.6620 -21.5451 -21.2221 -20.9601 -20.8846 -20.8429 -20.5671 -20.3460
   -20.2271 -20.1665 -19.7043 -19.5713 -19.4800 -19.3639 -19.2354 -19.1417
   -18.9474 -18.8860 -18.6700 -18.3518 -18.2033 -18.0994 -17.9609 -17.8721
   -17.5497 -17.3385 -17.2870 -17.1538 -17.1405 -17.0955 -16.9755 -16.6958
   -16.6300 -16.4541 -16.4454 -16.3011 -15.9884 -15.6218 -15.0273 -14.9450
   -14.8537 -14.8110 -14.5671 -14.4932 -14.4576 -14.3507 -14.2809 -14.1539
   -14.1083 -14.0179 -14.0017 -13.5802 -13.4983 -13.1953 -13.0934 -12.9909
   -12.7982 -12.1455 -12.1355 -12.1294 -12.0144 -11.9189 -11.8753 -11.6515
   -11.6280 -11.6013 -11.4664 -11.3367 -11.2907 -11.1920 -11.0575 -10.8872
   -10.7516 -10.5905 -10.4268 -10.3518 -10.0708 -10.0466  -9.9656  -9.9266
    -9.8441  -9.8120  -9.7191  -9.6870  -9.5953  -9.5532  -9.5287  -9.2937
    -9.2739  -9.2672  -9.2235  -9.1816  -9.1549  -9.1002  -9.0008  -8.9217
    -8.7986  -8.7905  -8.7716  -8.7687  -8.6941  -8.5738  -8.5329  -8.4829
    -8.4553  -8.4423  -8.3639  -8.3223  -8.1970  -8.1251  -8.1216  -8.0857
    -8.0600  -8.0413  -8.0214  -7.8866  -7.7468  -7.7261  -7.6815  -7.6790
    -7.5343  -7.5212  -7.3412  -7.3152  -7.1937  -7.0648  -7.0617  -6.9980
    -6.9894  -6.9465  -6.8793  -6.7160  -6.6031  -6.5382  -6.5201  -6.5078
    -6.3822  -6.0843  -6.0060  -5.9916  -5.9242  -5.9034  -5.7982  -5.7581
    -5.6008  -5.5323  -5.1651  -5.0516  -4.9962  -4.9448  -4.9373  -4.9050
    -4.6727  -4.5065  -4.1435  -4.0580  -3.9843  -3.9024  -3.2401  -3.0665
    -1.7585  -1.5781  -0.8287  -0.8222  -0.7404  -0.7167  -0.5700  -0.3471
    -0.1771  -0.1602  -0.0769  -0.0674  -0.0493   0.4072   0.7691   0.7885
     0.8129   0.8308   0.8725   0.8873   0.9956   1.0102   1.0711   1.1326
     1.1463   1.4547   1.4660   1.5777   1.6063   1.7463   1.7577   1.7710
     1.7799   1.8219   2.0306   2.0845   2.0894   2.1334   2.1552   2.2404
     2.2571   2.2633   2.3285   2.3605   2.3712   2.4153   2.4316   2.5298
     2.5311   2.5353   2.5584   2.6323   2.6547   2.7018   2.7038   2.7438
     2.7629   2.8176   2.8261   2.8746   2.9544   3.0363   3.0461   3.0573
     3.0613   3.1565   3.1628   3.1867   3.1898   3.2124   3.2212   3.2349
     3.3588   3.3824   3.4107   3.4528   3.4543   3.4964   3.5067   3.5456
     3.5778   3.5945   3.6119   3.6131   3.6252   3.7300   3.7462   3.7470
     3.7665   3.8120   3.8143   3.8326   3.8563   3.8752   3.9420   3.9713
     3.9714   3.9891   4.0112   4.0349   4.0394   4.1148   4.1190   4.1417
     4.1563   4.2086   4.2243   4.3743   4.3837   4.4334   4.4716   4.4907
     4.5077   4.5155   4.5595   4.5733   4.5833   4.6023   4.6147   4.6258
     4.6494   4.6784   4.7512   4.7824   4.7905   4.8104   4.8236   4.8379
     4.8448   4.8702   4.8782   4.8802   4.9301   4.9722   4.9791   4.9823
     5.0575   5.0583   5.0825   5.0930   5.1356   5.1563   5.2518   5.2611
     5.2670   5.2744   5.2852   5.2993   5.3152   5.3244   5.3731   5.3897
     5.4220   5.4223   5.4360   5.4446   5.4735   5.4818   5.5437   5.5579
     5.6408   5.6594   5.7103   5.7530   5.7832   5.7849   5.7858   5.8063
     5.8180   5.8204   5.8631   5.9234   5.9445   5.9709   5.9713   5.9849
     5.9861   6.0317   6.0372   6.0494   6.0515   6.0655   6.0925   6.1000
     6.1178   6.1379   6.1483   6.1499   6.1563   6.1879   6.1891   6.1984
     6.2248   6.2348   6.2366   6.2785   6.2876   6.3012   6.3387   6.3493
     6.3621   6.3667   6.4058   6.4226   6.4776   6.5063   6.5207   6.5635
     6.6213   6.6339   6.6734   6.6930   6.7051   6.7290   6.7553   6.7697
     6.7713   6.7859   6.8018   6.8549   6.8574   6.8709   6.8829   6.8883
     6.8887   6.9005   6.9290   6.9364   6.9444   6.9605   6.9865   6.9910
     6.9950   7.0090   7.0101   7.0120   7.0290   7.0693   7.1036   7.1106
     7.1191   7.1631   7.2391   7.2451   7.2547   7.3223   7.3420   7.3680
     7.3733   7.3976   7.3984   7.4303   7.4347   7.4356   7.4511   7.4594
     7.4850   7.5113   7.5430   7.5822   7.5825   7.5976   7.6133   7.6269
     7.6410   7.6499   7.6617   7.7051   7.7214   7.7226   7.7404   7.7572
     7.7656   7.7707   7.7716   7.7750   7.8296   7.8306   7.8454   7.8745
     7.8877   7.8958   7.9482   8.0209   8.0240   8.0253   8.0268   8.0319
     8.0429   8.0455   8.0466   8.0529   8.0717   8.0805   8.0910   8.1243
     8.1885   8.1959   8.2174   8.2289   8.2653   8.2692   8.2779   8.2805
     8.2878   8.3283   8.3436   8.3630   8.3671   8.3728   8.3888   8.4283
     8.4314   8.4348   8.4484   8.4574   8.4831   8.4887   8.5158   8.5186
     8.5209   8.5462   8.5501   8.5648   8.5656   8.5736   8.5800   8.6003
     8.6203   8.6801   8.6915   8.6978   8.7301   8.7363   8.7625   8.7954
     8.8027   8.8151   8.8343   8.8575

     the Fermi energy is    -2.5952 ev

     Writing output data file LS7_2_11_2_b.save/

     init_run     :     22.23s CPU     22.85s WALL (       1 calls)
     electrons    :  10647.84s CPU  10724.38s WALL (       1 calls)

     Called by init_run:
     wfcinit      :      0.00s CPU      0.00s WALL (       1 calls)
     potinit      :      1.21s CPU      1.35s WALL (       1 calls)
     hinit0       :     17.16s CPU     17.31s WALL (       1 calls)

     Called by electrons:
     c_bands      :  10647.83s CPU  10724.08s WALL (       1 calls)
     v_of_rho     :      0.88s CPU      0.94s WALL (       1 calls)
     newd         :      0.96s CPU      1.16s WALL (       1 calls)

     Called by c_bands:
     init_us_2    :      0.95s CPU      1.05s WALL (      26 calls)
     cegterg      :  10414.72s CPU  10482.97s WALL (      77 calls)

     Called by sum_band:

     Called by *egterg:
     h_psi        :   3223.77s CPU   3255.84s WALL (    1294 calls)
     s_psi        :    381.33s CPU    381.65s WALL (    1294 calls)
     g_psi        :     17.27s CPU     17.32s WALL (    1191 calls)
     cdiaghg      :   3114.75s CPU   3116.54s WALL (    1217 calls)

     Called by h_psi:
     h_psi:pot    :   3210.58s CPU   3237.86s WALL (    1294 calls)
     h_psi:calbec :    420.21s CPU    423.99s WALL (    1294 calls)
     vloc_psi     :   2415.57s CPU   2438.69s WALL (    1294 calls)
     add_vuspsi   :    374.78s CPU    375.07s WALL (    1294 calls)

     General routines
     calbec       :    420.20s CPU    423.90s WALL (    1294 calls)
     fft          :      1.06s CPU      1.15s WALL (      14 calls)
     ffts         :      0.01s CPU      0.01s WALL (       1 calls)
     fftw         :   2045.61s CPU   2066.76s WALL (  571782 calls)
     interpolate  :      0.07s CPU      0.07s WALL (       1 calls)
     davcio       :      0.00s CPU      5.35s WALL (      52 calls)

     Parallel routines
     fft_scatt_xy :    296.26s CPU    297.49s WALL (  571797 calls)
     fft_scatt_yz :    779.20s CPU    794.44s WALL (  571797 calls)

     PWSCF        :     2h58m CPU       58h 3m WALL

       6h

   This run was terminated on:   5:33:23  23Apr2021            

=------------------------------------------------------------------------------=
   JOB DONE.
=------------------------------------------------------------------------------=
