
     Program PWSCF v.6.3 starts on 16Apr2021 at  8:53:22 

     This program is part of the open-source Quantum ESPRESSO suite
     for quantum simulation of materials; please cite
         "P. Giannozzi et al., J. Phys.:Condens. Matter 21 395502 (2009);
         "P. Giannozzi et al., J. Phys.:Condens. Matter 29 465901 (2017);
          URL http://www.quantum-espresso.org", 
     in publications or presentations arising from this work. More details at
     http://www.quantum-espresso.org/quote

     Parallel version (MPI), running on    16 processors
     R & G space division:  proc/nbgrp/npool/nimage =      16
     Waiting for input...
     Reading input from standard input
     Message from routine read_cards :
     DEPRECATED: no units specified in CELL_PARAMETERS card

     Current dimensions of program PWSCF are:
     Max number of different atomic species (ntypx) = 10
     Max number of k-points (npk) =  40000
     Max angular momentum in pseudopotentials (lmaxx) =  3

     Atomic positions and unit cell read from directory:
     /home/zfwang/scratch/GNRDATASET/AGNR/ls2/ls2.save/


     Subspace diagonalization in iterative solution of the eigenvalue problem:
     a serial algorithm will be used


     Parallelization info
     --------------------
     sticks:   dense  smooth     PW     G-vecs:    dense   smooth      PW
     Min        2556     852    219               382876    73664    9645
     Max        2557     853    221               382881    73669    9648
     Sum       40909   13645   3521              6126037  1178677  154333



     bravais-lattice index     =            0
     lattice parameter (alat)  =       1.8897  a.u.
     unit-cell volume          =   34497.4860 (a.u.)^3
     number of atoms/cell      =          112
     number of atomic types    =            2
     number of electrons       =       376.00
     number of Kohn-Sham states=          500
     kinetic-energy cutoff     =      40.0000  Ry
     charge density cutoff     =     480.0000  Ry
     Exchange-correlation      = PBE ( 1  4  3  4 0 0)

     celldm(1)=  18.897261  celldm(2)=   3.000000  celldm(3)=   1.704000
     celldm(4)=   0.000000  celldm(5)=   0.000000  celldm(6)=   0.000000

     crystal axes: (cart. coord. in units of alat)
               a(1) = (  10.000000   0.000000   0.000000 )  
               a(2) = (   0.000000  30.000000   0.000000 )  
               a(3) = (   0.000000   0.000000  17.040000 )  

     reciprocal axes: (cart. coord. in units 2 pi/alat)
               b(1) = (  0.100000  0.000000  0.000000 )  
               b(2) = (  0.000000  0.033333  0.000000 )  
               b(3) = (  0.000000  0.000000  0.058685 )  


     PseudoPot. # 1 for C  read from file:
     /home/zfwang/hp_home/MySoftware/qe-6.3/pseudo/C.pbe-n-rrkjus_psl.0.1.UPF
     MD5 check sum: fff530ed632a789b3b184014e67dd7f1
     Pseudo is Ultrasoft + core correction, Zval =  4.0
     Generated using "atomic" code by A. Dal Corso v.5.0.2 svn rev. 9415
     Using radial grid of 1073 points,  4 beta functions with: 
                l(1) =   0
                l(2) =   0
                l(3) =   1
                l(4) =   1
     Q(r) pseudized with 0 coefficients 


     PseudoPot. # 2 for H  read from file:
     /home/zfwang/hp_home/MySoftware/qe-6.3/pseudo/H.pbe-rrkjus_psl.0.1.UPF
     MD5 check sum: e164a6907b691c6980f16942be34de84
     Pseudo is Ultrasoft, Zval =  1.0
     Generated using "atomic" code by A. Dal Corso v.5.0.2 svn rev. 9415
     Using radial grid of  929 points,  2 beta functions with: 
                l(1) =   0
                l(2) =   0
     Q(r) pseudized with 0 coefficients 


     atomic species   valence    mass     pseudopotential
        C              4.00    12.01070     C ( 1.00)
        H              1.00     1.00794     H ( 1.00)

     No symmetry found



   Cartesian axes

     site n.     atom                  positions (alat units)
         1           C   tau(   1) = (   5.0000004   6.4378561   6.9664848  )
         2           C   tau(   2) = (   4.9999999   6.4690703  11.3240923  )
         3           C   tau(   3) = (   5.0000008   7.6078530   7.7277134  )
         4           C   tau(   4) = (   4.9999989   7.6855310  11.9646912  )
         5           C   tau(   5) = (   5.0000004   6.4690777   5.5677018  )
         6           C   tau(   6) = (   5.0000004   6.4378562   9.9253140  )
         7           C   tau(   7) = (   5.0000008   8.8769198   7.0843960  )
         8           C   tau(   8) = (   4.9999992   8.8815709  11.2056454  )
         9           C   tau(   9) = (   5.0000007  10.1491349   7.7384045  )
        10           C   tau(  10) = (   4.9999951  10.1058367  11.8542613  )
        11           C   tau(  11) = (   5.0000005   7.6855384   4.9271153  )
        12           C   tau(  12) = (   5.0000010   7.6078545   9.1640843  )
        13           C   tau(  13) = (   5.0000005   8.8815754   5.6861562  )
        14           C   tau(  14) = (   5.0000012   8.8769196   9.8074102  )
        15           C   tau(  15) = (   5.0000009  11.5354603   2.6357257  )
        16           C   tau(  16) = (   5.0000007  11.3916381   7.0380949  )
        17           C   tau(  17) = (   4.9999988  11.3757895  11.2829086  )
        18           C   tau(  18) = (   5.0000005  11.5436430  15.5964946  )
        19           C   tau(  19) = (   5.0000003  12.6824949   3.4602744  )
        20           C   tau(  20) = (   5.0000007  12.6467131   7.7348461  )
        21           C   tau(  21) = (   4.9999997  12.6438318  12.0055470  )
        22           C   tau(  22) = (   4.9999980  12.7531427  16.2680970  )
        23           C   tau(  23) = (   4.9999997  10.1058470   5.0375532  )
        24           C   tau(  24) = (   5.0000009  10.1491336   9.1534019  )
        25           C   tau(  25) = (   5.0000000  11.5436465   1.2953010  )
        26           C   tau(  26) = (   5.0000002  11.3757929   5.6089039  )
        27           C   tau(  27) = (   5.0000010  11.3916350   9.8537154  )
        28           C   tau(  28) = (   5.0000046  11.5354548  14.2561128  )
        29           C   tau(  29) = (   5.0000000  13.9228652   2.7793682  )
        30           C   tau(  30) = (   5.0000002  13.8899673   7.0309569  )
        31           C   tau(  31) = (   4.9999998  13.8809596  11.2933494  )
        32           C   tau(  32) = (   4.9999990  13.9389483  15.5324539  )
        33           C   tau(  33) = (   5.0000000  15.1445296   3.4966900  )
        34           C   tau(  34) = (   5.0000001  15.1445105   7.7306510  )
        35           C   tau(  35) = (   4.9999999  15.1445131  11.9853896  )
        36           C   tau(  36) = (   4.9999994  15.1445420  16.2576591  )
        37           C   tau(  37) = (   4.9999988  12.7531438   0.6237268  )
        38           C   tau(  38) = (   5.0000002  12.6438394   4.8862684  )
        39           C   tau(  39) = (   5.0000008  12.6467121   9.1569668  )
        40           C   tau(  40) = (   5.0000010  12.6824869  13.4315390  )
        41           C   tau(  41) = (   4.9999995  13.9389541   1.3593541  )
        42           C   tau(  42) = (   5.0000001  13.8809631   5.5984670  )
        43           C   tau(  43) = (   5.0000001  13.8899630   9.8608565  )
        44           C   tau(  44) = (   4.9999994  13.9228643  14.1124611  )
        45           C   tau(  45) = (   4.9999998  16.3661924   2.7793806  )
        46           C   tau(  46) = (   4.9999999  16.3990560   7.0309573  )
        47           C   tau(  47) = (   5.0000001  16.4080681  11.2933511  )
        48           C   tau(  48) = (   4.9999997  16.3500996  15.5324469  )
        49           C   tau(  49) = (   4.9999994  17.6065562   3.4602688  )
        50           C   tau(  50) = (   4.9999999  17.6423004   7.7348506  )
        51           C   tau(  51) = (   5.0000002  17.6451870  12.0055497  )
        52           C   tau(  52) = (   4.9999998  17.5359301  16.2681162  )
        53           C   tau(  53) = (   4.9999995  15.1445244   0.6341700  )
        54           C   tau(  54) = (   5.0000000  15.1445222   4.9064299  )
        55           C   tau(  55) = (   5.0000001  15.1445105   9.1611659  )
        56           C   tau(  56) = (   4.9999994  15.1445221  13.3951192  )
        57           C   tau(  57) = (   4.9999998  16.3501272   1.3593459  )
        58           C   tau(  58) = (   4.9999999  16.4080655   5.5984687  )
        59           C   tau(  59) = (   5.0000001  16.3990522   9.8608577  )
        60           C   tau(  60) = (   4.9999996  16.3661870  14.1124737  )
        61           C   tau(  61) = (   4.9999983  18.7536182   2.6357915  )
        62           C   tau(  62) = (   4.9999997  18.8973753   7.0381008  )
        63           C   tau(  63) = (   5.0000002  18.9132168  11.2829052  )
        64           C   tau(  64) = (   4.9999999  18.7454168  15.5964463  )
        65           C   tau(  65) = (   4.9999999  20.1398688   7.7384147  )
        66           C   tau(  66) = (   5.0000002  20.1831689  11.8542659  )
        67           C   tau(  67) = (   4.9999999  17.5359154   0.6237457  )
        68           C   tau(  68) = (   4.9999997  17.6451966   4.8862712  )
        69           C   tau(  69) = (   5.0000001  17.6422991   9.1569690  )
        70           C   tau(  70) = (   5.0000000  17.6065644  13.4315325  )
        71           C   tau(  71) = (   4.9999992  18.7454216   1.2952477  )
        72           C   tau(  72) = (   4.9999998  18.9132298   5.6089119  )
        73           C   tau(  73) = (   5.0000002  18.8973726   9.8537167  )
        74           C   tau(  74) = (   5.0000002  18.7535859  14.2561710  )
        75           C   tau(  75) = (   4.9999999  21.4120780   7.0844109  )
        76           C   tau(  76) = (   5.0000003  21.4074238  11.2056519  )
        77           C   tau(  77) = (   5.0000001  22.6811441   7.7277315  )
        78           C   tau(  78) = (   5.0000003  22.6034571  11.9647013  )
        79           C   tau(  79) = (   5.0000005  20.1831665   5.0375677  )
        80           C   tau(  80) = (   5.0000001  20.1398663   9.1534079  )
        81           C   tau(  81) = (   5.0000001  21.4074340   5.6861744  )
        82           C   tau(  82) = (   5.0000002  21.4120783   9.8074184  )
        83           C   tau(  83) = (   5.0000000  23.8511456   6.9665074  )
        84           C   tau(  84) = (   5.0000004  23.8199226  11.3241112  )
        85           C   tau(  85) = (   5.0000002  22.6034700   4.9271345  )
        86           C   tau(  86) = (   5.0000002  22.6811425   9.1641014  )
        87           C   tau(  87) = (   5.0000000  23.8199287   5.5677263  )
        88           C   tau(  88) = (   5.0000004  23.8511435   9.9253300  )
        89           H   tau(  89) = (   5.0000000   5.4691931   7.4629755  )
        90           H   tau(  90) = (   4.9999999   5.5388918  11.8920299  )
        91           H   tau(  91) = (   4.9999987   7.7511052  13.0540625  )
        92           H   tau(  92) = (   5.0000003   5.5389015   4.9997630  )
        93           H   tau(  93) = (   5.0000002   5.4691958   9.4288131  )
        94           H   tau(  94) = (   4.9999848   9.8964702  12.8868699  )
        95           H   tau(  95) = (   5.0000005   7.7511164   3.8377416  )
        96           H   tau(  96) = (   5.0000024  10.5443986   2.9814692  )
        97           H   tau(  97) = (   5.0000019  10.5864656  16.1027932  )
        98           H   tau(  98) = (   4.9999980   9.8964834   4.0049428  )
        99           H   tau(  99) = (   5.0000004  10.5864736   0.7890264  )
       100           H   tau( 100) = (   5.0000140  10.5443858  13.9103467  )
       101           H   tau( 101) = (   4.9999962  19.7446533   2.9814648  )
       102           H   tau( 102) = (   5.0000000  19.7026024  16.1028050  )
       103           H   tau( 103) = (   5.0000002  20.3925301  12.8868617  )
       104           H   tau( 104) = (   4.9999988  19.7025865   0.7890396  )
       105           H   tau( 105) = (   5.0000009  19.7446814  13.9103592  )
       106           H   tau( 106) = (   5.0000003  22.5378800  13.0540725  )
       107           H   tau( 107) = (   5.0000024  20.3925463   4.0049524  )
       108           H   tau( 108) = (   5.0000000  24.8198067   7.4630054  )
       109           H   tau( 109) = (   5.0000006  24.7500947  11.8920528  )
       110           H   tau( 110) = (   5.0000003  22.5378926   3.8377594  )
       111           H   tau( 111) = (   5.0000001  24.7501066   4.9997880  )
       112           H   tau( 112) = (   5.0000005  24.8198050   9.4288351  )

     number of k points=    26  Marzari-Vanderbilt smearing, width (Ry)=  0.0100
                       cart. coord. in units 2pi/alat
        k(    1) = (   0.0000000   0.0000000   0.0000000), wk =   0.0400000
        k(    2) = (   0.0000000   0.0000000   0.0011737), wk =   0.0800000
        k(    3) = (   0.0000000   0.0000000   0.0023474), wk =   0.0800000
        k(    4) = (   0.0000000   0.0000000   0.0035211), wk =   0.0800000
        k(    5) = (   0.0000000   0.0000000   0.0046948), wk =   0.0800000
        k(    6) = (   0.0000000   0.0000000   0.0058685), wk =   0.0800000
        k(    7) = (   0.0000000   0.0000000   0.0070423), wk =   0.0800000
        k(    8) = (   0.0000000   0.0000000   0.0082160), wk =   0.0800000
        k(    9) = (   0.0000000   0.0000000   0.0093897), wk =   0.0800000
        k(   10) = (   0.0000000   0.0000000   0.0105634), wk =   0.0800000
        k(   11) = (   0.0000000   0.0000000   0.0117371), wk =   0.0800000
        k(   12) = (   0.0000000   0.0000000   0.0129108), wk =   0.0800000
        k(   13) = (   0.0000000   0.0000000   0.0140845), wk =   0.0800000
        k(   14) = (   0.0000000   0.0000000   0.0152582), wk =   0.0800000
        k(   15) = (   0.0000000   0.0000000   0.0164319), wk =   0.0800000
        k(   16) = (   0.0000000   0.0000000   0.0176056), wk =   0.0800000
        k(   17) = (   0.0000000   0.0000000   0.0187793), wk =   0.0800000
        k(   18) = (   0.0000000   0.0000000   0.0199531), wk =   0.0800000
        k(   19) = (   0.0000000   0.0000000   0.0211268), wk =   0.0800000
        k(   20) = (   0.0000000   0.0000000   0.0223005), wk =   0.0800000
        k(   21) = (   0.0000000   0.0000000   0.0234742), wk =   0.0800000
        k(   22) = (   0.0000000   0.0000000   0.0246479), wk =   0.0800000
        k(   23) = (   0.0000000   0.0000000   0.0258216), wk =   0.0800000
        k(   24) = (   0.0000000   0.0000000   0.0269953), wk =   0.0800000
        k(   25) = (   0.0000000   0.0000000   0.0281690), wk =   0.0800000
        k(   26) = (   0.0000000   0.0000000  -0.0293427), wk =   0.0400000

     Dense  grid:  6126037 G-vectors     FFT dimensions: ( 135, 400, 225)

     Smooth grid:  1178677 G-vectors     FFT dimensions: (  80, 240, 135)

     Estimated max dynamical RAM per process >       1.30 GB

     Estimated total dynamical RAM >      20.74 GB

     The potential is recalculated from file :
     /home/zfwang/scratch/GNRDATASET/AGNR/ls2/ls2.save/charge-density.dat


     negative rho (up, down):  3.074E-04 0.000E+00
     Starting wfcs are  376 randomized atomic wfcs +  124 random wfcs

     Band Structure Calculation
     Davidson diagonalization with overlap

     ethr =  2.66E-09,  avg # of iterations = 41.3

     total cpu time spent up to now is    11665.4 secs

     End of band structure calculation

          k = 0.0000 0.0000 0.0000 (147325 PWs)   bands (ev):

   -21.4403 -21.1637 -21.0812 -20.9893 -20.7403 -20.5547 -20.3984 -20.2274
   -20.2097 -19.9185 -19.9182 -19.8453 -19.6171 -19.2715 -19.2012 -19.1512
   -19.0413 -18.9035 -18.6993 -18.5013 -18.3844 -18.2981 -18.1162 -18.1126
   -18.0586 -17.7131 -17.5467 -17.4388 -17.4280 -17.3972 -17.1879 -17.0535
   -16.9179 -16.7800 -16.7399 -16.7096 -16.5805 -16.3655 -16.3156 -16.1171
   -15.9884 -15.6113 -15.5663 -15.1440 -15.0899 -15.0404 -14.8361 -14.8175
   -14.6369 -14.5659 -14.3920 -14.3206 -14.2068 -14.1889 -14.0584 -13.9512
   -13.9148 -13.7295 -13.5200 -13.1398 -13.1161 -12.9010 -12.7789 -12.7042
   -12.6768 -12.4874 -12.4671 -12.3673 -12.2462 -12.1445 -11.9864 -11.9459
   -11.8860 -11.6426 -11.6371 -11.4633 -11.2170 -11.1771 -11.1463 -10.9784
   -10.8526 -10.7777 -10.6624 -10.5831 -10.4323 -10.4044 -10.3543 -10.2275
   -10.1935 -10.0803  -9.9014  -9.8288  -9.8063  -9.6391  -9.5937  -9.4913
    -9.4624  -9.4056  -9.3370  -9.2660  -9.2480  -9.1926  -9.1627  -9.1619
    -9.1504  -9.0923  -8.9833  -8.9155  -8.8416  -8.7389  -8.7306  -8.6989
    -8.6908  -8.6492  -8.6235  -8.5766  -8.5249  -8.4450  -8.4428  -8.4298
    -8.3357  -8.3108  -8.2985  -8.2967  -8.1934  -8.1352  -8.1299  -8.0862
    -8.0645  -7.8671  -7.7775  -7.7264  -7.7068  -7.6309  -7.6130  -7.5145
    -7.5043  -7.4346  -7.2403  -7.2224  -7.2115  -7.1971  -7.1220  -7.0255
    -6.9821  -6.9526  -6.9451  -6.8447  -6.7583  -6.6763  -6.6217  -6.6208
    -6.4572  -6.4301  -6.4300  -6.3895  -6.3263  -6.2043  -6.1341  -6.0060
    -5.9475  -5.8731  -5.7636  -5.7465  -5.7370  -5.6685  -5.4280  -5.2650
    -5.2242  -5.0920  -5.0845  -5.0767  -5.0666  -4.9230  -4.8034  -4.7363
    -4.6997  -4.5818  -4.5353  -4.4167  -4.3468  -4.0738  -4.0656  -4.0406
    -3.3666  -3.2062  -3.0353  -2.4339  -2.0008  -1.3307  -1.1523  -0.9079
    -0.5459  -0.4601  -0.3870  -0.2316  -0.1712   0.0519   0.1995   0.2602
     0.3362   0.4048   0.4444   0.7920   0.8017   0.8421   0.8514   1.0125
     1.0282   1.1212   1.2292   1.2931   1.3084   1.3638   1.4845   1.4971
     1.5311   1.5318   1.6007   1.6057   1.6590   1.7112   1.8853   1.9150
     1.9490   1.9644   1.9753   2.1715   2.1965   2.2210   2.2724   2.2867
     2.3364   2.3913   2.3993   2.4754   2.5731   2.5857   2.6601   2.6940
     2.7466   2.7769   2.7942   2.8282   2.8374   2.8426   2.9457   2.9711
     2.9751   3.0178   3.0207   3.0456   3.1399   3.1534   3.1613   3.1749
     3.1831   3.1876   3.2009   3.2181   3.2691   3.2851   3.3006   3.3471
     3.3479   3.3504   3.3909   3.4675   3.4726   3.4922   3.6029   3.6780
     3.7131   3.7448   3.7700   3.7774   3.8135   3.8260   3.8581   3.8978
     3.9237   3.9400   3.9820   4.0009   4.0182   4.0290   4.0719   4.0752
     4.0892   4.2614   4.2659   4.2753   4.3037   4.3470   4.3495   4.3731
     4.3924   4.4102   4.4338   4.4436   4.4760   4.4990   4.5006   4.5246
     4.5514   4.6055   4.6323   4.6395   4.6965   4.6992   4.7042   4.7420
     4.7786   4.7905   4.8008   4.8598   4.8901   4.9065   4.9237   4.9340
     4.9355   4.9479   5.0677   5.0768   5.0949   5.1226   5.1435   5.1582
     5.1611   5.1724   5.1760   5.2167   5.2174   5.2855   5.2928   5.3739
     5.3907   5.4007   5.4505   5.4641   5.4783   5.4832   5.5305   5.5348
     5.5499   5.6010   5.6123   5.6126   5.6144   5.6183   5.6817   5.6952
     5.7143   5.7307   5.7343   5.7943   5.8193   5.8428   5.8573   5.8753
     5.8935   5.8961   5.9076   5.9176   5.9214   5.9676   5.9726   6.0040
     6.0278   6.0680   6.0736   6.0783   6.0939   6.1009   6.1208   6.1263
     6.1818   6.2521   6.2681   6.2879   6.2935   6.3203   6.3287   6.3389
     6.3457   6.3734   6.3982   6.3998   6.4044   6.4440   6.4766   6.4809
     6.4850   6.5748   6.5933   6.5950   6.6384   6.6419   6.6421   6.6702
     6.6755   6.6833   6.7198   6.7307   6.7811   6.7880   6.8043   6.8050
     6.8280   6.8422   6.8644   6.9061   6.9070   6.9116   6.9492   6.9561
     6.9727   6.9727   6.9850   7.0313   7.0488   7.0819   7.0883   7.1039
     7.1148   7.1518   7.1756   7.1757   7.1953   7.2118   7.2187   7.2372
     7.2666   7.2673   7.2675   7.2769   7.2897   7.3079   7.3459   7.3517
     7.3738   7.3932   7.4074   7.4237   7.4322   7.4372   7.4465   7.4553
     7.4746   7.5107   7.5324   7.5423   7.5489   7.5540   7.5900   7.6004
     7.6287   7.6399   7.6432   7.6698   7.6709   7.6882   7.7151   7.7208
     7.7233   7.7752   7.8255   7.8442   7.8524   7.8719   7.8748   7.8797
     7.8984   7.9212   7.9241   7.9292   7.9722   7.9810   7.9893   8.0134
     8.0463   8.0519   8.0613   8.1247   8.1403   8.1564   8.1568   8.1845
     8.2161   8.2327   8.2408   8.2572   8.2605   8.2627   8.3098   8.3109
     8.3398   8.4301   8.4551   8.4616

          k = 0.0000 0.0000 0.0012 (147355 PWs)   bands (ev):

   -21.4402 -21.1645 -21.0812 -20.9884 -20.7401 -20.5549 -20.3980 -20.2280
   -20.2098 -19.9245 -19.9184 -19.8383 -19.6169 -19.2771 -19.1954 -19.1516
   -19.0406 -18.9035 -18.6999 -18.5014 -18.3847 -18.2980 -18.1451 -18.0955
   -18.0461 -17.7126 -17.5535 -17.4387 -17.4231 -17.3955 -17.1879 -17.0537
   -16.9193 -16.7790 -16.7408 -16.7080 -16.5807 -16.3678 -16.3134 -16.1204
   -15.9873 -15.6129 -15.5665 -15.1410 -15.0952 -15.0362 -14.8353 -14.8174
   -14.6372 -14.5641 -14.3919 -14.3229 -14.2069 -14.1876 -14.0572 -13.9514
   -13.9155 -13.7285 -13.5195 -13.1402 -13.1166 -12.9028 -12.7794 -12.7456
   -12.6388 -12.4859 -12.4671 -12.3645 -12.2451 -12.1441 -11.9864 -11.9457
   -11.8886 -11.6424 -11.6353 -11.4620 -11.2212 -11.1777 -11.1431 -10.9780
   -10.8532 -10.7764 -10.6663 -10.5814 -10.4323 -10.4096 -10.3460 -10.2279
   -10.1965 -10.0765  -9.9017  -9.8447  -9.7922  -9.6439  -9.5896  -9.4912
    -9.4623  -9.4056  -9.3467  -9.2710  -9.2441  -9.1872  -9.1639  -9.1567
    -9.1501  -9.0923  -8.9820  -8.9173  -8.8415  -8.7467  -8.7299  -8.6916
    -8.6907  -8.6475  -8.6243  -8.5791  -8.5237  -8.4457  -8.4411  -8.4303
    -8.3368  -8.3102  -8.2976  -8.2970  -8.1929  -8.1340  -8.1287  -8.0862
    -8.0652  -7.8685  -7.7760  -7.7318  -7.7067  -7.6310  -7.6068  -7.5150
    -7.5044  -7.4344  -7.2407  -7.2226  -7.2117  -7.2000  -7.1186  -7.0252
    -6.9936  -6.9526  -6.9335  -6.8454  -6.7572  -6.6778  -6.6270  -6.6217
    -6.4523  -6.4352  -6.4306  -6.3831  -6.3261  -6.2043  -6.1344  -6.0065
    -5.9473  -5.8730  -5.7739  -5.7503  -5.7361  -5.6543  -5.4271  -5.2691
    -5.2205  -5.1032  -5.0924  -5.0766  -5.0488  -4.9228  -4.8035  -4.7363
    -4.7002  -4.5820  -4.5351  -4.4182  -4.3441  -4.0782  -4.0713  -4.0312
    -3.3672  -3.2066  -3.0352  -2.4354  -1.9994  -1.3319  -1.1508  -0.9072
    -0.5450  -0.4606  -0.3866  -0.2315  -0.1718   0.0522   0.1985   0.2590
     0.3363   0.4056   0.4457   0.7922   0.7950   0.8423   0.8558   1.0119
     1.0304   1.1210   1.2278   1.2904   1.3101   1.3665   1.4505   1.4975
     1.5320   1.5640   1.6002   1.6023   1.6598   1.7144   1.8871   1.9118
     1.9524   1.9539   1.9860   2.1705   2.1957   2.2212   2.2731   2.2840
     2.3393   2.3921   2.3996   2.4739   2.5731   2.5848   2.6606   2.6934
     2.7473   2.7774   2.7936   2.8286   2.8348   2.8439   2.9418   2.9740
     2.9748   3.0000   3.0353   3.0458   3.1347   3.1472   3.1625   3.1795
     3.1812   3.1913   3.2009   3.2158   3.2750   3.2868   3.2998   3.3489
     3.3501   3.3508   3.3923   3.4701   3.4732   3.4927   3.6026   3.6719
     3.7188   3.7364   3.7707   3.7852   3.8067   3.8302   3.8587   3.9005
     3.9192   3.9398   3.9825   3.9870   4.0305   4.0380   4.0579   4.0885
     4.0889   4.2387   4.2621   4.3010   4.3031   4.3432   4.3476   4.3678
     4.3732   4.4277   4.4359   4.4362   4.4823   4.4901   4.5077   4.5289
     4.5515   4.6059   4.6344   4.6382   4.6901   4.6983   4.6990   4.7540
     4.7741   4.7917   4.8011   4.8586   4.8853   4.9172   4.9214   4.9348
     4.9388   4.9512   5.0625   5.0668   5.0955   5.1191   5.1374   5.1574
     5.1625   5.1691   5.2024   5.2170   5.2193   5.2736   5.3067   5.3718
     5.3909   5.3972   5.4522   5.4525   5.4758   5.4977   5.5327   5.5327
     5.5464   5.5852   5.6087   5.6159   5.6178   5.6226   5.6820   5.6866
     5.7204   5.7316   5.7426   5.7852   5.8192   5.8411   5.8509   5.8761
     5.8918   5.8973   5.9085   5.9112   5.9215   5.9712   5.9803   6.0101
     6.0282   6.0687   6.0760   6.0860   6.0936   6.1010   6.1206   6.1309
     6.1806   6.2525   6.2643   6.2879   6.2935   6.3145   6.3191   6.3382
     6.3591   6.3683   6.3783   6.4048   6.4247   6.4484   6.4662   6.4851
     6.4924   6.5717   6.5887   6.5958   6.6368   6.6421   6.6477   6.6719
     6.6741   6.6748   6.7050   6.7524   6.7795   6.7832   6.8016   6.8088
     6.8259   6.8394   6.8664   6.9068   6.9106   6.9114   6.9420   6.9565
     6.9584   6.9755   6.9972   7.0308   7.0430   7.0787   7.0896   7.1075
     7.1274   7.1429   7.1690   7.1864   7.1868   7.2121   7.2196   7.2318
     7.2385   7.2497   7.2837   7.2883   7.2887   7.3288   7.3464   7.3544
     7.3779   7.3944   7.3947   7.4225   7.4407   7.4463   7.4475   7.4499
     7.4763   7.5170   7.5376   7.5399   7.5468   7.5521   7.5896   7.5988
     7.6024   7.6336   7.6657   7.6786   7.6833   7.6907   7.7067   7.7263
     7.7284   7.7736   7.8217   7.8251   7.8505   7.8704   7.8774   7.8845
     7.9084   7.9259   7.9267   7.9305   7.9735   7.9832   7.9835   8.0184
     8.0450   8.0542   8.0617   8.1198   8.1413   8.1550   8.1612   8.1688
     8.2093   8.2124   8.2488   8.2570   8.2595   8.2718   8.3084   8.3262
     8.3477   8.4324   8.4419   8.4544

          k = 0.0000 0.0000 0.0023 (147377 PWs)   bands (ev):

   -21.4398 -21.1669 -21.0811 -20.9857 -20.7396 -20.5558 -20.3967 -20.2297
   -20.2100 -19.9390 -19.9179 -19.8217 -19.6164 -19.2904 -19.1815 -19.1528
   -19.0387 -18.9034 -18.7017 -18.5018 -18.3856 -18.2975 -18.1791 -18.0893
   -18.0162 -17.7112 -17.5707 -17.4385 -17.4140 -17.3880 -17.1879 -17.0542
   -16.9232 -16.7764 -16.7428 -16.7033 -16.5811 -16.3735 -16.3078 -16.1300
   -15.9842 -15.6175 -15.5671 -15.1320 -15.1074 -15.0269 -14.8329 -14.8172
   -14.6381 -14.5589 -14.3916 -14.3295 -14.2070 -14.1839 -14.0538 -13.9521
   -13.9177 -13.7257 -13.5181 -13.1415 -13.1182 -12.9078 -12.7996 -12.7810
   -12.5965 -12.4815 -12.4649 -12.3566 -12.2416 -12.1428 -11.9865 -11.9454
   -11.8959 -11.6421 -11.6306 -11.4579 -11.2318 -11.1796 -11.1355 -10.9766
   -10.8550 -10.7726 -10.6766 -10.5776 -10.4323 -10.4191 -10.3273 -10.2290
   -10.2045 -10.0665  -9.9023  -9.8696  -9.7726  -9.6550  -9.5805  -9.4907
    -9.4623  -9.4056  -9.3702  -9.2809  -9.2374  -9.1796  -9.1675  -9.1493
    -9.1383  -9.0922  -8.9781  -8.9223  -8.8413  -8.7601  -8.7303  -8.6902
    -8.6792  -8.6407  -8.6271  -8.5855  -8.5210  -8.4478  -8.4362  -8.4317
    -8.3397  -8.3084  -8.3001  -8.2931  -8.1914  -8.1305  -8.1252  -8.0863
    -8.0675  -7.8723  -7.7719  -7.7453  -7.7061  -7.6314  -7.5908  -7.5166
    -7.5049  -7.4337  -7.2419  -7.2230  -7.2126  -7.2073  -7.1098  -7.0242
    -7.0141  -6.9526  -6.9126  -6.8476  -6.7541  -6.6824  -6.6437  -6.6216
    -6.4458  -6.4398  -6.4319  -6.3688  -6.3254  -6.2042  -6.1355  -6.0082
    -5.9467  -5.8728  -5.8023  -5.7511  -5.7336  -5.6251  -5.4243  -5.2786
    -5.2122  -5.1292  -5.0936  -5.0764  -5.0253  -4.9222  -4.8036  -4.7362
    -4.7018  -4.5824  -4.5344  -4.4224  -4.3368  -4.0929  -4.0753  -4.0146
    -3.3691  -3.2078  -3.0350  -2.4397  -1.9953  -1.3353  -1.1461  -0.9052
    -0.5424  -0.4620  -0.3857  -0.2313  -0.1734   0.0532   0.1957   0.2555
     0.3366   0.4082   0.4496   0.7792   0.7927   0.8427   0.8646   1.0101
     1.0369   1.1203   1.2239   1.2833   1.3150   1.3737   1.4008   1.4989
     1.5329   1.5893   1.5935   1.6204   1.6617   1.7229   1.8925   1.9048
     1.9395   1.9602   2.0009   2.1675   2.1934   2.2218   2.2752   2.2771
     2.3466   2.3945   2.4005   2.4697   2.5728   2.5823   2.6622   2.6920
     2.7496   2.7786   2.7916   2.8295   2.8298   2.8457   2.9337   2.9708
     2.9807   2.9827   3.0422   3.0454   3.1251   3.1400   3.1657   3.1751
     3.1878   3.1961   3.2018   3.2097   3.2858   3.2912   3.3027   3.3493
     3.3543   3.3591   3.3964   3.4749   3.4777   3.4944   3.6018   3.6592
     3.7212   3.7303   3.7731   3.7943   3.7988   3.8349   3.8607   3.9074
     3.9087   3.9386   3.9712   3.9838   4.0423   4.0425   4.0631   4.0860
     4.1038   4.2077   4.2642   4.2990   4.3246   4.3321   4.3401   4.3421
     4.3767   4.4149   4.4206   4.4688   4.4696   4.4957   4.5228   4.5372
     4.5516   4.6050   4.6345   4.6398   4.6699   4.6911   4.7003   4.7725
     4.7727   4.7956   4.8019   4.8550   4.8738   4.9167   4.9361   4.9432
     4.9465   4.9597   5.0385   5.0600   5.0905   5.0973   5.1551   5.1592
     5.1627   5.1668   5.2178   5.2254   5.2412   5.2621   5.3238   5.3643
     5.3884   5.3915   5.4370   5.4586   5.4694   5.5179   5.5264   5.5377
     5.5380   5.5575   5.6038   5.6217   5.6238   5.6246   5.6776   5.6829
     5.7238   5.7243   5.7649   5.7656   5.8209   5.8358   5.8381   5.8754
     5.8781   5.8847   5.9074   5.9176   5.9340   5.9754   5.9996   6.0247
     6.0301   6.0643   6.0907   6.0963   6.0987   6.1044   6.1201   6.1426
     6.1780   6.2513   6.2531   6.2880   6.2937   6.2980   6.3158   6.3365
     6.3565   6.3616   6.3779   6.4055   6.4507   6.4579   6.4579   6.4857
     6.5065   6.5649   6.5803   6.5938   6.6319   6.6433   6.6512   6.6608
     6.6699   6.6775   6.6982   6.7703   6.7750   6.7805   6.7941   6.8186
     6.8201   6.8312   6.8711   6.9065   6.9091   6.9213   6.9240   6.9416
     6.9578   6.9842   7.0066   7.0291   7.0347   7.0709   7.0909   7.1170
     7.1272   7.1540   7.1578   7.1650   7.1985   7.2095   7.2127   7.2171
     7.2228   7.2340   7.2860   7.2923   7.2978   7.3492   7.3627   7.3668
     7.3673   7.3953   7.3975   7.4163   7.4384   7.4514   7.4522   7.4704
     7.4806   7.5232   7.5329   7.5444   7.5471   7.5512   7.5634   7.5901
     7.6086   7.6428   7.6678   7.6781   7.6982   7.7034   7.7267   7.7334
     7.7364   7.7694   7.7857   7.8236   7.8476   7.8606   7.8775   7.8953
     7.9213   7.9287   7.9338   7.9445   7.9686   7.9779   7.9877   8.0338
     8.0424   8.0617   8.0631   8.1070   8.1363   8.1430   8.1469   8.1722
     8.1738   8.2072   8.2529   8.2549   8.2566   8.2904   8.2996   8.3557
     8.3664   8.4184   8.4397   8.4491

          k = 0.0000 0.0000 0.0035 (147387 PWs)   bands (ev):

   -21.4392 -21.1707 -21.0811 -20.9814 -20.7388 -20.5571 -20.3948 -20.2326
   -20.2105 -19.9563 -19.9172 -19.8010 -19.6155 -19.3070 -19.1640 -19.1547
   -19.0356 -18.9032 -18.7048 -18.5024 -18.3874 -18.2969 -18.2134 -18.0868
   -17.9808 -17.7088 -17.5935 -17.4381 -17.4082 -17.3718 -17.1878 -17.0549
   -16.9295 -16.7722 -16.7454 -16.6966 -16.5818 -16.3813 -16.3004 -16.1451
   -15.9797 -15.6253 -15.5680 -15.1227 -15.1173 -15.0164 -14.8289 -14.8168
   -14.6398 -14.5504 -14.3911 -14.3392 -14.2072 -14.1788 -14.0481 -13.9531
   -13.9211 -13.7212 -13.5158 -13.1438 -13.1209 -12.9159 -12.8551 -12.7835
   -12.5674 -12.4746 -12.4540 -12.3442 -12.2357 -12.1408 -11.9867 -11.9448
   -11.9068 -11.6415 -11.6236 -11.4512 -11.2460 -11.1824 -11.1270 -10.9740
   -10.8578 -10.7665 -10.6909 -10.5743 -10.4323 -10.4269 -10.3048 -10.2303
   -10.2152 -10.0523  -9.9034  -9.8963  -9.7547  -9.6686  -9.5701  -9.4899
    -9.4633  -9.4059  -9.3983  -9.2926  -9.2310  -9.1748  -9.1730  -9.1481
    -9.1095  -9.0922  -8.9719  -8.9296  -8.8409  -8.7736  -8.7316  -8.6893
    -8.6715  -8.6326  -8.6254  -8.5929  -8.5178  -8.4512  -8.4341  -8.4290
    -8.3433  -8.3056  -8.3037  -8.2876  -8.1893  -8.1248  -8.1193  -8.0864
    -8.0713  -7.8778  -7.7659  -7.7625  -7.7053  -7.6319  -7.5695  -7.5193
    -7.5057  -7.4325  -7.2437  -7.2240  -7.2168  -7.2140  -7.0978  -7.0362
    -7.0226  -6.9525  -6.8899  -6.8510  -6.7493  -6.6896  -6.6671  -6.6216
    -6.4575  -6.4341  -6.4234  -6.3515  -6.3240  -6.2041  -6.1372  -6.0109
    -5.9457  -5.8725  -5.8368  -5.7495  -5.7296  -5.5925  -5.4193  -5.2906
    -5.2021  -5.1563  -5.0957  -5.0761  -5.0025  -4.9211  -4.8038  -4.7362
    -4.7043  -4.5832  -4.5332  -4.4279  -4.3260  -4.1095  -4.0800  -3.9967
    -3.3723  -3.2097  -3.0346  -2.4468  -1.9887  -1.3407  -1.1387  -0.9018
    -0.5383  -0.4640  -0.3843  -0.2309  -0.1760   0.0548   0.1912   0.2500
     0.3370   0.4121   0.4558   0.7595   0.7935   0.8435   0.8734   1.0071
     1.0472   1.1192   1.2186   1.2736   1.3221   1.3502   1.3835   1.5012
     1.5343   1.5813   1.5837   1.6641   1.6700   1.7352   1.8965   1.9010
     1.9251   1.9699   2.0161   2.1628   2.1898   2.2227   2.2683   2.2785
     2.3561   2.3981   2.4021   2.4632   2.5716   2.5781   2.6648   2.6903
     2.7532   2.7792   2.7883   2.8226   2.8314   2.8470   2.9242   2.9629
     2.9663   2.9918   3.0344   3.0425   3.1179   3.1432   3.1654   3.1693
     3.1944   3.1990   3.2026   3.2045   3.2850   3.2970   3.3222   3.3484
     3.3631   3.3709   3.4030   3.4777   3.4889   3.4977   3.6007   3.6444
     3.7055   3.7431   3.7769   3.7799   3.8116   3.8361   3.8639   3.8916
     3.9224   3.9359   3.9612   3.9859   4.0267   4.0577   4.0810   4.0914
     4.1183   4.1784   4.2675   4.2828   4.3142   4.3251   4.3331   4.3335
     4.3914   4.4002   4.4035   4.4433   4.5011   4.5114   4.5398   4.5476
     4.5523   4.5962   4.6288   4.6464   4.6569   4.6684   4.7044   4.7854
     4.7886   4.8029   4.8034   4.8483   4.8593   4.9111   4.9372   4.9580
     4.9703   4.9761   5.0153   5.0352   5.0807   5.0997   5.1442   5.1519
     5.1734   5.1866   5.2189   5.2374   5.2546   5.2814   5.3396   5.3491
     5.3793   5.3924   5.4205   5.4613   5.4688   5.5165   5.5226   5.5268
     5.5433   5.5445   5.5979   5.6248   5.6253   5.6331   5.6707   5.6837
     5.7133   5.7270   5.7424   5.7739   5.8184   5.8207   5.8438   5.8519
     5.8685   5.8810   5.9152   5.9185   5.9602   5.9775   6.0247   6.0336
     6.0410   6.0616   6.0857   6.1104   6.1145   6.1176   6.1242   6.1583
     6.1770   6.2314   6.2532   6.2845   6.2882   6.2944   6.3110   6.3343
     6.3429   6.3542   6.3919   6.4059   6.4444   6.4660   6.4844   6.4876
     6.5209   6.5579   6.5699   6.5883   6.6236   6.6242   6.6450   6.6627
     6.6751   6.6891   6.6958   6.7523   6.7732   6.7835   6.8046   6.8115
     6.8185   6.8318   6.8765   6.8948   6.8968   6.9127   6.9305   6.9388
     6.9597   6.9989   7.0038   7.0260   7.0296   7.0586   7.0913   7.1113
     7.1270   7.1378   7.1409   7.1828   7.1958   7.1963   7.2056   7.2106
     7.2239   7.2288   7.2866   7.2950   7.3092   7.3430   7.3537   7.3764
     7.4003   7.4026   7.4039   7.4147   7.4305   7.4595   7.4611   7.4873
     7.4999   7.5064   7.5127   7.5419   7.5425   7.5531   7.5848   7.5918
     7.6187   7.6455   7.6731   7.6747   7.6980   7.7270   7.7401   7.7411
     7.7520   7.7643   7.7660   7.8206   7.8467   7.8508   7.8751   7.9045
     7.9303   7.9314   7.9371   7.9529   7.9646   7.9869   7.9893   8.0418
     8.0587   8.0658   8.0751   8.0881   8.0991   8.1303   8.1303   8.1506
     8.1855   8.2067   8.2459   8.2561   8.2620   8.2792   8.3032   8.3843
     8.3844   8.4061   8.4303   8.4522

          k = 0.0000 0.0000 0.0047 (147403 PWs)   bands (ev):

   -21.4384 -21.1757 -21.0810 -20.9756 -20.7377 -20.5589 -20.3921 -20.2367
   -20.2111 -19.9740 -19.9161 -19.7786 -19.6140 -19.3249 -19.1572 -19.1449
   -19.0315 -18.9029 -18.7090 -18.5033 -18.3904 -18.2959 -18.2467 -18.0852
   -17.9438 -17.7053 -17.6191 -17.4376 -17.4054 -17.3505 -17.1878 -17.0558
   -16.9378 -16.7669 -16.7479 -16.6882 -16.5827 -16.3901 -16.2920 -16.1649
   -15.9743 -15.6360 -15.5690 -15.1391 -15.0975 -15.0063 -14.8235 -14.8162
   -14.6421 -14.5391 -14.3900 -14.3510 -14.2075 -14.1733 -14.0405 -13.9545
   -13.9253 -13.7152 -13.5127 -13.1470 -13.1248 -12.9264 -12.9110 -12.7869
   -12.5567 -12.4654 -12.4310 -12.3266 -12.2271 -12.1385 -11.9872 -11.9439
   -11.9196 -11.6406 -11.6157 -11.4423 -11.2618 -11.1861 -11.1198 -10.9697
   -10.8611 -10.7586 -10.7074 -10.5731 -10.4324 -10.4309 -10.2829 -10.2297
   -10.2268 -10.0359  -9.9238  -9.9050  -9.7393  -9.6828  -9.5603  -9.4887
    -9.4699  -9.4231  -9.4055  -9.3053  -9.2256  -9.1802  -9.1710  -9.1466
    -9.0921  -9.0769  -8.9638  -8.9381  -8.8403  -8.7864  -8.7334  -8.6881
    -8.6689  -8.6414  -8.6037  -8.5994  -8.5146  -8.4556  -8.4371  -8.4202
    -8.3467  -8.3078  -8.3018  -8.2811  -8.1870  -8.1174  -8.1112  -8.0866
    -8.0767  -7.8844  -7.7808  -7.7586  -7.7040  -7.6327  -7.5457  -7.5230
    -7.5068  -7.4305  -7.2462  -7.2285  -7.2239  -7.2159  -7.0842  -7.0586
    -7.0204  -6.9526  -6.8667  -6.8552  -6.7431  -6.6992  -6.6942  -6.6215
    -6.4690  -6.4373  -6.4063  -6.3324  -6.3219  -6.2039  -6.1390  -6.0147
    -5.9443  -5.8729  -5.8721  -5.7470  -5.7239  -5.5603  -5.4114  -5.3038
    -5.1916  -5.1840  -5.0985  -5.0757  -4.9812  -4.9192  -4.8041  -4.7361
    -4.7077  -4.5843  -4.5316  -4.4340  -4.3125  -4.1264  -4.0862  -3.9783
    -3.3768  -3.2123  -3.0340  -2.4561  -1.9800  -1.3475  -1.1291  -0.8971
    -0.5332  -0.4660  -0.3824  -0.2304  -0.1796   0.0569   0.1853   0.2428
     0.3374   0.4170   0.4641   0.7378   0.7947   0.8445   0.8809   1.0024
     1.0605   1.1174   1.2126   1.2624   1.3003   1.3307   1.3946   1.5045
     1.5363   1.5674   1.5741   1.6669   1.7213   1.7496   1.8883   1.9109
     1.9123   1.9804   2.0314   2.1569   2.1850   2.2240   2.2589   2.2826
     2.3666   2.4029   2.4042   2.4549   2.5690   2.5724   2.6686   2.6893
     2.7582   2.7778   2.7838   2.8142   2.8330   2.8477   2.9142   2.9478
     2.9612   3.0012   3.0154   3.0352   3.1167   3.1534   3.1546   3.1694
     3.1975   3.1993   3.2015   3.2089   3.2805   3.3033   3.3472   3.3482
     3.3751   3.3846   3.4121   3.4816   3.4994   3.5064   3.5998   3.6287
     3.6913   3.7560   3.7642   3.7820   3.8224   3.8325   3.8682   3.8739
     3.9324   3.9412   3.9571   3.9889   4.0113   4.0719   4.0750   4.1213
     4.1321   4.1529   4.2547   4.2719   4.2908   4.3226   4.3229   4.3285
     4.3853   4.3869   4.3995   4.4300   4.5276   4.5287   4.5569   4.5570
     4.5598   4.5753   4.6215   4.6367   4.6514   4.6563   4.7103   4.7995
     4.8037   4.8081   4.8160   4.8379   4.8440   4.9050   4.9385   4.9733
     4.9810   4.9957   5.0001   5.0141   5.0810   5.1019   5.1257   5.1483
     5.1820   5.2051   5.2199   5.2506   5.2563   5.3213   5.3281   5.3529
     5.3716   5.3940   5.3978   5.4529   5.4829   5.5035   5.5046   5.5156
     5.5507   5.5526   5.5900   5.6262   5.6291   5.6410   5.6641   5.6837
     5.7005   5.7238   5.7301   5.7662   5.8029   5.8129   5.8266   5.8341
     5.8842   5.8856   5.9115   5.9352   5.9772   5.9870   6.0385   6.0520
     6.0550   6.0603   6.0795   6.1153   6.1179   6.1332   6.1511   6.1737
     6.1774   6.2167   6.2511   6.2720   6.2885   6.2963   6.3056   6.3300
     6.3330   6.3524   6.4040   6.4049   6.4377   6.4686   6.4907   6.5128
     6.5328   6.5549   6.5584   6.5773   6.6036   6.6119   6.6473   6.6522
     6.6865   6.6947   6.7080   6.7311   6.7716   6.7728   6.8019   6.8022
     6.8231   6.8486   6.8649   6.8816   6.8817   6.9170   6.9251   6.9561
     6.9620   6.9874   7.0191   7.0192   7.0266   7.0428   7.0900   7.0965
     7.1126   7.1206   7.1311   7.1701   7.2023   7.2029   7.2067   7.2090
     7.2232   7.2367   7.2927   7.2983   7.3192   7.3232   7.3593   7.3869
     7.3922   7.4042   7.4062   7.4386   7.4532   7.4664   7.4713   7.4740
     7.4820   7.4959   7.5318   7.5388   7.5457   7.5739   7.5931   7.6130
     7.6315   7.6382   7.6701   7.6838   7.7016   7.7208   7.7480   7.7489
     7.7507   7.7648   7.8031   7.8164   7.8434   7.8487   7.8721   7.8959
     7.9301   7.9383   7.9406   7.9544   7.9835   7.9852   8.0014   8.0434
     8.0604   8.0631   8.0714   8.0847   8.0890   8.1014   8.1154   8.1498
     8.1965   8.2085   8.2301   8.2560   8.2601   8.2714   8.3075   8.3817
     8.4050   8.4103   8.4127   8.4543

          k = 0.0000 0.0000 0.0059 (147375 PWs)   bands (ev):

   -21.4373 -21.1817 -21.0809 -20.9688 -20.7361 -20.5611 -20.3887 -20.2422
   -20.2118 -19.9911 -19.9147 -19.7554 -19.6118 -19.3432 -19.1602 -19.1250
   -19.0264 -18.9025 -18.7144 -18.5045 -18.3954 -18.2946 -18.2777 -18.0837
   -17.9064 -17.7006 -17.6461 -17.4369 -17.4034 -17.3276 -17.1877 -17.0566
   -16.9475 -16.7609 -16.7502 -16.6784 -16.5839 -16.3993 -16.2835 -16.1886
   -15.9683 -15.6496 -15.5700 -15.1560 -15.0732 -14.9970 -14.8169 -14.8155
   -14.6451 -14.5258 -14.3881 -14.3640 -14.2079 -14.1680 -14.0313 -13.9563
   -13.9300 -13.7080 -13.5089 -13.1516 -13.1301 -12.9668 -12.9388 -12.7912
   -12.5589 -12.4544 -12.4040 -12.3017 -12.2155 -12.1363 -11.9884 -11.9426
   -11.9326 -11.6394 -11.6075 -11.4316 -11.2783 -11.1902 -11.1155 -10.9632
   -10.8647 -10.7492 -10.7247 -10.5747 -10.4327 -10.4309 -10.2692 -10.2382
   -10.2206 -10.0188  -9.9516  -9.9070  -9.7267  -9.6970  -9.5519  -9.4907
    -9.4872  -9.4328  -9.4055  -9.3187  -9.2214  -9.1887  -9.1672  -9.1448
    -9.0920  -9.0439  -8.9543  -8.9464  -8.8395  -8.7986  -8.7354  -8.6865
    -8.6689  -8.6526  -8.6044  -8.5797  -8.5111  -8.4607  -8.4407  -8.4106
    -8.3492  -8.3119  -8.2972  -8.2739  -8.1845  -8.1087  -8.1012  -8.0869
    -8.0839  -7.8912  -7.7989  -7.7507  -7.7025  -7.6338  -7.5277  -7.5212
    -7.5082  -7.4270  -7.2492  -7.2387  -7.2258  -7.2184  -7.0808  -7.0701
    -7.0176  -6.9528  -6.8599  -6.8433  -6.7358  -6.7232  -6.7107  -6.6213
    -6.4800  -6.4414  -6.3908  -6.3190  -6.3123  -6.2038  -6.1405  -6.0197
    -5.9426  -5.9093  -5.8715  -5.7437  -5.7169  -5.5303  -5.3998  -5.3178
    -5.2120  -5.1812  -5.1021  -5.0750  -4.9620  -4.9161  -4.8044  -4.7360
    -4.7120  -4.5856  -4.5297  -4.4401  -4.2971  -4.1431  -4.0942  -3.9597
    -3.3825  -3.2157  -3.0333  -2.4674  -1.9695  -1.3554  -1.1176  -0.8911
    -0.5279  -0.4670  -0.3803  -0.2301  -0.1839   0.0596   0.1785   0.2344
     0.3376   0.4225   0.4744   0.7152   0.7962   0.8459   0.8869   0.9957
     1.0760   1.1148   1.2068   1.2506   1.2518   1.3402   1.4065   1.5087
     1.5389   1.5526   1.5625   1.6701   1.7649   1.7724   1.8809   1.8970
     1.9257   1.9911   2.0463   2.1501   2.1794   2.2256   2.2496   2.2874
     2.3774   2.4069   2.4085   2.4454   2.5646   2.5653   2.6734   2.6893
     2.7646   2.7729   2.7780   2.8047   2.8340   2.8477   2.9042   2.9353
     2.9567   2.9927   3.0107   3.0240   3.1218   3.1402   3.1625   3.1645
     3.1967   3.2038   3.2073   3.2147   3.2774   3.3097   3.3454   3.3746
     3.3894   3.3988   3.4237   3.4866   3.5069   3.5223   3.5994   3.6125
     3.6792   3.7479   3.7684   3.7885   3.8239   3.8315   3.8561   3.8735
     3.9303   3.9566   3.9642   3.9926   3.9961   4.0567   4.0933   4.1338
     4.1451   4.1521   4.2235   4.2637   4.2772   4.3101   4.3184   4.3254
     4.3698   4.3708   4.3709   4.4549   4.5392   4.5429   4.5484   4.5734
     4.5738   4.5772   4.6013   4.6134   4.6530   4.6627   4.7180   4.8038
     4.8057   4.8213   4.8289   4.8345   4.8358   4.8986   4.9398   4.9690
     4.9812   4.9909   4.9913   5.0484   5.0849   5.1025   5.1060   5.1461
     5.1918   5.2190   5.2198   5.2494   5.2798   5.3047   5.3573   5.3621
     5.3632   5.3708   5.3989   5.4457   5.4880   5.4924   5.5003   5.5054
     5.5554   5.5562   5.5784   5.6247   5.6375   5.6455   5.6575   5.6822
     5.6873   5.7137   5.7282   5.7564   5.7924   5.8018   5.8032   5.8172
     5.8875   5.9069   5.9113   5.9581   5.9742   6.0103   6.0441   6.0600
     6.0634   6.0764   6.0795   6.1171   6.1198   6.1541   6.1655   6.1766
     6.1866   6.2245   6.2460   6.2638   6.2888   6.3000   6.3006   6.3189
     6.3344   6.3540   6.4011   6.4140   6.4355   6.4660   6.4908   6.5333
     6.5374   6.5426   6.5650   6.5652   6.5947   6.5977   6.6380   6.6497
     6.6947   6.6970   6.7080   6.7300   6.7594   6.7750   6.7835   6.7936
     6.8309   6.8358   6.8629   6.8691   6.8873   6.9204   6.9212   6.9623
     6.9647   6.9737   7.0029   7.0237   7.0299   7.0412   7.0826   7.0832
     7.0979   7.1028   7.1326   7.1414   7.1962   7.2039   7.2171   7.2257
     7.2259   7.2445   7.3030   7.3038   7.3131   7.3285   7.3654   7.3678
     7.3951   7.4036   7.4117   7.4436   7.4609   7.4658   7.4722   7.4828
     7.4859   7.5052   7.5362   7.5382   7.5704   7.5933   7.5941   7.6257
     7.6419   7.6434   7.6713   7.6859   7.6897   7.7296   7.7560   7.7564
     7.7579   7.7815   7.8141   7.8378   7.8388   7.8538   7.8690   7.8702
     7.9277   7.9363   7.9478   7.9733   7.9770   8.0033   8.0168   8.0277
     8.0340   8.0387   8.0721   8.0798   8.0798   8.1172   8.1317   8.1498
     8.1940   8.2009   8.2116   8.2575   8.2605   8.2835   8.3047   8.3626
     8.3934   8.4148   8.4210   8.4576

          k = 0.0000 0.0000 0.0070 (147319 PWs)   bands (ev):

   -21.4360 -21.1885 -21.0808 -20.9610 -20.7342 -20.5636 -20.3848 -20.2491
   -20.2128 -20.0073 -19.9131 -19.7324 -19.6086 -19.3615 -19.1635 -19.1048
   -19.0206 -18.9020 -18.7210 -18.5059 -18.4039 -18.3049 -18.2931 -18.0821
   -17.8693 -17.6945 -17.6738 -17.4360 -17.4016 -17.3048 -17.1875 -17.0570
   -16.9585 -16.7545 -16.7521 -16.6675 -16.5854 -16.4087 -16.2750 -16.2156
   -15.9619 -15.6659 -15.5709 -15.1728 -15.0451 -14.9888 -14.8145 -14.8091
   -14.6488 -14.5112 -14.3846 -14.3774 -14.2082 -14.1633 -14.0214 -13.9583
   -13.9344 -13.6997 -13.5044 -13.1581 -13.1370 -13.0215 -12.9524 -12.7962
   -12.5672 -12.4421 -12.3821 -12.2680 -12.2007 -12.1348 -11.9911 -11.9435
   -11.9410 -11.6378 -11.5997 -11.4198 -11.2952 -11.1943 -11.1151 -10.9544
   -10.8682 -10.7418 -10.7387 -10.5788 -10.4332 -10.4276 -10.2689 -10.2486
   -10.1987 -10.0020  -9.9790  -9.9094  -9.7170  -9.7102  -9.5455  -9.5213
    -9.4854  -9.4310  -9.4055  -9.3324  -9.2184  -9.1980  -9.1633  -9.1431
    -9.0918  -9.0128  -8.9533  -8.9437  -8.8381  -8.8107  -8.7375  -8.6845
    -8.6702  -8.6651  -8.6087  -8.5563  -8.5072  -8.4658  -8.4447  -8.4010
    -8.3502  -8.3153  -8.2921  -8.2662  -8.1820  -8.0991  -8.0928  -8.0897
    -8.0872  -7.8978  -7.8160  -7.7427  -7.7006  -7.6350  -7.5335  -7.5098
    -7.4981  -7.4208  -7.2525  -7.2489  -7.2277  -7.2213  -7.1029  -7.0564
    -7.0144  -6.9533  -6.8650  -6.8200  -6.7525  -6.7276  -6.7235  -6.6212
    -6.4906  -6.4465  -6.3780  -6.3153  -6.2915  -6.2035  -6.1412  -6.0263
    -5.9447  -5.9405  -5.8707  -5.7400  -5.7085  -5.5043  -5.3834  -5.3322
    -5.2403  -5.1710  -5.1065  -5.0742  -4.9464  -4.9105  -4.8047  -4.7358
    -4.7171  -4.5871  -4.5275  -4.4460  -4.2799  -4.1595  -4.1037  -3.9411
    -3.3896  -3.2197  -3.0324  -2.4801  -1.9576  -1.3640  -1.1045  -0.8838
    -0.5242  -0.4654  -0.3781  -0.2303  -0.1886   0.0627   0.1709   0.2249
     0.3376   0.4282   0.4863   0.6923   0.7980   0.8475   0.8916   0.9863
     1.0929   1.1112   1.2017   1.2057   1.2384   1.3502   1.4185   1.5140
     1.5375   1.5422   1.5495   1.6735   1.7798   1.8226   1.8754   1.8834
     1.9408   2.0020   2.0606   2.1432   2.1732   2.2276   2.2408   2.2925
     2.3883   2.4102   2.4146   2.4351   2.5570   2.5582   2.6793   2.6905
     2.7638   2.7711   2.7722   2.7942   2.8337   2.8467   2.8944   2.9221
     2.9537   2.9736   3.0108   3.0201   3.1265   3.1312   3.1518   3.1663
     3.1925   3.2131   3.2186   3.2216   3.2783   3.3164   3.3423   3.3991
     3.4057   3.4125   3.4374   3.4925   3.5165   3.5403   3.5962   3.6002
     3.6701   3.7321   3.7802   3.7960   3.8105   3.8393   3.8395   3.8791
     3.9302   3.9578   3.9812   3.9902   3.9969   4.0357   4.1122   4.1213
     4.1567   4.1835   4.1921   4.2342   4.2826   4.2968   4.3051   4.3299
     4.3343   4.3552   4.3574   4.4849   4.5174   4.5385   4.5594   4.5643
     4.5883   4.5904   4.6035   4.6073   4.6505   4.6714   4.7263   4.8024
     4.8024   4.8091   4.8160   4.8588   4.8601   4.8921   4.9403   4.9407
     4.9723   4.9992   5.0100   5.0747   5.0873   5.1000   5.1005   5.1470
     5.2019   5.2153   5.2304   5.2508   5.2828   5.3031   5.3351   5.3593
     5.3700   5.3758   5.4184   5.4414   5.4709   5.4850   5.4981   5.5197
     5.5547   5.5579   5.5622   5.6207   5.6438   5.6452   5.6526   5.6757
     5.6814   5.7119   5.7146   5.7556   5.7789   5.7891   5.7931   5.8045
     5.8908   5.9016   5.9309   5.9661   5.9856   6.0267   6.0482   6.0583
     6.0606   6.0868   6.1054   6.1165   6.1287   6.1485   6.1765   6.1939
     6.1953   6.2384   6.2407   6.2712   6.2892   6.2974   6.3030   6.3122
     6.3398   6.3579   6.3934   6.4208   6.4405   6.4580   6.4852   6.5252
     6.5278   6.5543   6.5585   6.5828   6.5847   6.5931   6.6194   6.6519
     6.6842   6.6958   6.7065   6.7456   6.7523   6.7642   6.7799   6.7899
     6.8094   6.8301   6.8413   6.8886   6.8929   6.9124   6.9169   6.9398
     6.9683   6.9841   6.9905   7.0189   7.0206   7.0448   7.0704   7.0868
     7.0937   7.0948   7.1112   7.1340   7.1935   7.1992   7.2238   7.2291
     7.2306   7.2514   7.3139   7.3152   7.3155   7.3372   7.3503   7.3711
     7.3782   7.4085   7.4158   7.4299   7.4469   7.4777   7.4939   7.4973
     7.5132   7.5139   7.5374   7.5386   7.5861   7.5935   7.6134   7.6136
     7.6396   7.6695   7.6825   7.6880   7.6911   7.7440   7.7632   7.7670
     7.7704   7.7916   7.8242   7.8368   7.8393   7.8617   7.8664   7.8701
     7.9214   7.9288   7.9520   7.9667   7.9940   7.9983   8.0021   8.0208
     8.0252   8.0384   8.0624   8.0734   8.0961   8.1294   8.1501   8.1555
     8.1579   8.1962   8.2214   8.2608   8.2697   8.2972   8.2981   8.3354
     8.3814   8.4165   8.4266   8.4544

          k = 0.0000 0.0000 0.0082 (147293 PWs)   bands (ev):

   -21.4344 -21.1958 -21.0807 -20.9526 -20.7318 -20.5664 -20.3804 -20.2575
   -20.2139 -20.0221 -19.9111 -19.7103 -19.6036 -19.3797 -19.1670 -19.0846
   -19.0141 -18.9014 -18.7289 -18.5076 -18.4178 -18.3261 -18.2912 -18.0804
   -17.8331 -17.7017 -17.6865 -17.4348 -17.3997 -17.2831 -17.1873 -17.0568
   -16.9705 -16.7537 -16.7478 -16.6554 -16.5870 -16.4181 -16.2671 -16.2449
   -15.9553 -15.6847 -15.5715 -15.1892 -15.0139 -14.9817 -14.8131 -14.8004
   -14.6533 -14.4969 -14.3907 -14.3787 -14.2086 -14.1593 -14.0120 -13.9604
   -13.9376 -13.6908 -13.4995 -13.1685 -13.1456 -13.0730 -12.9665 -12.8018
   -12.5780 -12.4289 -12.3672 -12.2286 -12.1814 -12.1348 -11.9962 -11.9501
   -11.9389 -11.6358 -11.5925 -11.4081 -11.3120 -11.1981 -11.1188 -10.9432
   -10.8713 -10.7580 -10.7273 -10.5849 -10.4341 -10.4225 -10.2761 -10.2574
   -10.1702 -10.0054  -9.9872  -9.9116  -9.7220  -9.7101  -9.5545  -9.5417
    -9.4832  -9.4245  -9.4054  -9.3461  -9.2163  -9.2081  -9.1593  -9.1416
    -9.0917  -8.9859  -8.9581  -8.9324  -8.8355  -8.8231  -8.7396  -8.6819
    -8.6773  -8.6724  -8.6130  -8.5359  -8.5023  -8.4698  -8.4491  -8.3917
    -8.3489  -8.3176  -8.2864  -8.2580  -8.1795  -8.1036  -8.0892  -8.0875
    -8.0768  -7.9037  -7.8317  -7.7350  -7.6983  -7.6366  -7.5402  -7.5116
    -7.4789  -7.4097  -7.2587  -7.2562  -7.2302  -7.2247  -7.1246  -7.0439
    -7.0107  -6.9543  -6.8702  -6.7969  -6.7809  -6.7373  -6.7186  -6.6209
    -6.5009  -6.4527  -6.3685  -6.3114  -6.2702  -6.2032  -6.1403  -6.0358
    -5.9776  -5.9383  -5.8698  -5.7359  -5.6988  -5.4829  -5.3615  -5.3470
    -5.2687  -5.1611  -5.1117  -5.0732  -4.9357  -4.9012  -4.8050  -4.7355
    -4.7228  -4.5888  -4.5252  -4.4514  -4.2612  -4.1756  -4.1147  -3.9225
    -3.3980  -3.2244  -3.0315  -2.4938  -1.9449  -1.3730  -1.0903  -0.8751
    -0.5235  -0.4594  -0.3757  -0.2315  -0.1931   0.0662   0.1630   0.2148
     0.3373   0.4339   0.4996   0.6695   0.8002   0.8495   0.8954   0.9732
     1.1065   1.1103   1.1631   1.1977   1.2261   1.3604   1.4305   1.5203
     1.5222   1.5356   1.5461   1.6773   1.7928   1.8702   1.8715   1.8731
     1.9572   2.0127   2.0730   2.1374   2.1667   2.2298   2.2330   2.2980
     2.3991   2.4140   2.4209   2.4243   2.5477   2.5500   2.6862   2.6927
     2.7507   2.7632   2.7808   2.7829   2.8313   2.8447   2.8848   2.9028
     2.9532   2.9649   2.9977   3.0292   3.1130   3.1401   3.1427   3.1613
     3.1863   3.2246   3.2296   3.2304   3.2864   3.3232   3.3376   3.4197
     3.4233   3.4244   3.4523   3.4992   3.5294   3.5589   3.5797   3.6030
     3.6643   3.7183   3.7914   3.7932   3.8047   3.8249   3.8462   3.8840
     3.9318   3.9600   3.9670   4.0019   4.0120   4.0183   4.1133   4.1314
     4.1557   4.1727   4.2033   4.2143   4.2832   4.2854   4.2879   4.3021
     4.3356   4.3397   4.3462   4.4866   4.5147   4.5272   4.5340   4.5739
     4.5974   4.6036   4.6068   4.6334   4.6443   4.6809   4.7328   4.7796
     4.7972   4.8088   4.8128   4.8728   4.8855   4.8860   4.9270   4.9403
     4.9686   5.0049   5.0256   5.0725   5.0835   5.0965   5.1336   5.1523
     5.1995   5.2109   5.2404   5.2552   5.2687   5.3064   5.3223   5.3524
     5.3723   5.3773   5.4418   5.4457   5.4529   5.4791   5.4996   5.5357
     5.5467   5.5514   5.5578   5.6162   5.6393   5.6408   5.6494   5.6671
     5.6825   5.7000   5.7148   5.7548   5.7594   5.7828   5.7931   5.8026
     5.8942   5.8954   5.9411   5.9605   6.0044   6.0352   6.0488   6.0520
     6.0618   6.0983   6.1127   6.1278   6.1407   6.1464   6.1952   6.1997
     6.2012   6.2412   6.2457   6.2896   6.2974   6.2977   6.2982   6.3168
     6.3493   6.3646   6.3808   6.4256   6.4413   6.4524   6.4782   6.5144
     6.5196   6.5542   6.5658   6.5690   6.5961   6.5961   6.6049   6.6533
     6.6610   6.6983   6.7149   6.7268   6.7473   6.7717   6.7863   6.7868
     6.7949   6.8156   6.8234   6.8933   6.8964   6.8980   6.9020   6.9307
     6.9740   6.9778   7.0023   7.0110   7.0121   7.0268   7.0623   7.0830
     7.0910   7.0942   7.1155   7.1350   7.1941   7.1956   7.2139   7.2292
     7.2321   7.2553   7.3176   7.3254   7.3278   7.3435   7.3454   7.3671
     7.3739   7.3953   7.4190   7.4317   7.4484   7.4838   7.5071   7.5177
     7.5296   7.5354   7.5391   7.5396   7.5782   7.5954   7.6027   7.6334
     7.6490   7.6809   7.6849   7.7051   7.7055   7.7590   7.7744   7.7763
     7.7903   7.7930   7.8069   7.8380   7.8458   7.8645   7.8720   7.8984
     7.9079   7.9146   7.9496   7.9591   7.9733   7.9764   8.0073   8.0257
     8.0461   8.0483   8.0517   8.0834   8.1078   8.1219   8.1257   8.1628
     8.1800   8.1838   8.2427   8.2645   8.2812   8.2869   8.3081   8.3149
     8.3746   8.4126   8.4284   8.4388

          k = 0.0000 0.0000 0.0094 (147291 PWs)   bands (ev):

   -21.4326 -21.2035 -21.0805 -20.9438 -20.7289 -20.5693 -20.3756 -20.2673
   -20.2151 -20.0355 -19.9089 -19.6902 -19.5961 -19.3976 -19.1706 -19.0644
   -19.0070 -18.9005 -18.7380 -18.5096 -18.4379 -18.3404 -18.2891 -18.0786
   -17.7989 -17.7297 -17.6758 -17.4334 -17.3977 -17.2631 -17.1871 -17.0554
   -16.9831 -16.7548 -16.7411 -16.6423 -16.5888 -16.4275 -16.2785 -16.2574
   -15.9483 -15.7059 -15.5719 -15.2050 -14.9804 -14.9755 -14.8111 -14.7909
   -14.6585 -14.4843 -14.4036 -14.3692 -14.2089 -14.1558 -14.0046 -13.9626
   -13.9381 -13.6812 -13.4943 -13.1887 -13.1561 -13.1154 -12.9806 -12.8079
   -12.5900 -12.4151 -12.3573 -12.1912 -12.1542 -12.1369 -12.0035 -11.9516
   -11.9359 -11.6332 -11.5858 -11.3972 -11.3285 -11.2013 -11.1266 -10.9303
   -10.8736 -10.7729 -10.7153 -10.5921 -10.4354 -10.4172 -10.2867 -10.2644
   -10.1392 -10.0299  -9.9762  -9.9126  -9.7316  -9.7060  -9.5879  -9.5411
    -9.4808  -9.4157  -9.4050  -9.3591  -9.2186  -9.2152  -9.1554  -9.1404
    -9.0915  -8.9657  -8.9604  -8.9207  -8.8358  -8.8304  -8.7416  -8.6882
    -8.6788  -8.6753  -8.6178  -8.5222  -8.4963  -8.4702  -8.4535  -8.3830
    -8.3446  -8.3183  -8.2805  -8.2491  -8.1768  -8.1161  -8.0879  -8.0795
    -8.0629  -7.9083  -7.8458  -7.7278  -7.6957  -7.6384  -7.5478  -7.5137
    -7.4657  -7.3916  -7.2678  -7.2600  -7.2334  -7.2284  -7.1460  -7.0340
    -7.0067  -6.9558  -6.8754  -6.8066  -6.7740  -6.7513  -6.7091  -6.6206
    -6.5110  -6.4600  -6.3621  -6.3084  -6.2486  -6.2029  -6.1373  -6.0519
    -6.0038  -5.9357  -5.8687  -5.7317  -5.6881  -5.4661  -5.3621  -5.3347
    -5.2971  -5.1516  -5.1176  -5.0719  -4.9295  -4.8887  -4.8052  -4.7351
    -4.7291  -4.5906  -4.5227  -4.4565  -4.2411  -4.1914  -4.1272  -3.9040
    -3.4077  -3.2297  -3.0304  -2.5083  -1.9315  -1.3822  -1.0752  -0.8652
    -0.5264  -0.4486  -0.3734  -0.2344  -0.1967   0.0700   0.1548   0.2044
     0.3367   0.4390   0.5139   0.6473   0.8027   0.8517   0.8985   0.9548
     1.1007   1.1257   1.1279   1.1950   1.2139   1.3707   1.4422   1.5071
     1.5211   1.5276   1.5507   1.6811   1.8020   1.8575   1.8760   1.9184
     1.9746   2.0233   2.0816   2.1349   2.1601   2.2267   2.2323   2.3036
     2.4095   2.4135   2.4182   2.4268   2.5379   2.5403   2.6943   2.6957
     2.7347   2.7544   2.7709   2.7900   2.8266   2.8411   2.8757   2.8776
     2.9557   2.9664   2.9860   3.0373   3.1006   3.1284   3.1521   3.1527
     3.1820   3.2371   3.2380   3.2383   3.3027   3.3304   3.3313   3.4338
     3.4355   3.4418   3.4675   3.5065   3.5445   3.5633   3.5771   3.6084
     3.6625   3.7087   3.7734   3.8018   3.8123   3.8143   3.8524   3.8858
     3.9343   3.9536   3.9628   3.9902   4.0072   4.0473   4.1075   4.1274
     4.1506   4.1719   4.1805   4.2406   4.2513   4.2731   4.2826   4.2917
     4.3243   4.3388   4.3423   4.4560   4.4897   4.5266   4.5438   4.5871
     4.5913   4.6191   4.6222   4.6353   4.6560   4.6910   4.7346   4.7550
     4.7911   4.8072   4.8203   4.8584   4.8789   4.9147   4.9370   4.9435
     4.9705   5.0071   5.0333   5.0645   5.0886   5.0934   5.1615   5.1710
     5.1712   5.2174   5.2489   5.2625   5.2632   5.2845   5.3349   5.3462
     5.3683   5.3731   5.4343   5.4473   5.4556   5.4733   5.5207   5.5227
     5.5481   5.5564   5.5618   5.6130   5.6314   5.6348   5.6350   5.6625
     5.6838   5.6917   5.7207   5.7448   5.7483   5.7734   5.8030   5.8139
     5.8882   5.8976   5.9318   5.9678   6.0086   6.0329   6.0505   6.0512
     6.0636   6.0975   6.1081   6.1441   6.1506   6.1652   6.1883   6.2120
     6.2227   6.2439   6.2511   6.2899   6.2923   6.3029   6.3249   6.3302
     6.3616   6.3636   6.3740   6.4180   6.4319   6.4687   6.4751   6.5100
     6.5102   6.5511   6.5576   6.5685   6.5726   6.6014   6.6209   6.6394
     6.6544   6.7021   6.7025   6.7239   6.7311   6.7664   6.7840   6.7862
     6.7949   6.8113   6.8128   6.8685   6.8746   6.8959   6.9054   6.9277
     6.9796   6.9819   6.9853   7.0047   7.0118   7.0215   7.0587   7.0621
     7.0880   7.1015   7.1347   7.1476   7.1898   7.1901   7.2028   7.2283
     7.2346   7.2526   7.3146   7.3241   7.3364   7.3505   7.3532   7.3600
     7.3814   7.3837   7.4263   7.4432   7.4522   7.4899   7.5170   7.5188
     7.5348   7.5412   7.5505   7.5646   7.5709   7.5940   7.5989   7.6540
     7.6671   7.6719   7.7033   7.7142   7.7152   7.7732   7.7747   7.7758
     7.7964   7.7975   7.8156   7.8439   7.8640   7.8661   7.8844   7.8909
     7.8925   7.9287   7.9290   7.9590   7.9611   7.9704   8.0014   8.0326
     8.0527   8.0615   8.0628   8.0773   8.0967   8.1168   8.1545   8.1608
     8.1669   8.2041   8.2611   8.2673   8.2698   8.2754   8.3160   8.3321
     8.3720   8.4002   8.4187   8.4187

          k = 0.0000 0.0000 0.0106 (147327 PWs)   bands (ev):

   -21.4306 -21.2114 -21.0804 -20.9348 -20.7254 -20.5724 -20.3705 -20.2787
   -20.2166 -20.0474 -19.9064 -19.6734 -19.5847 -19.4151 -19.1743 -19.0445
   -18.9995 -18.8994 -18.7484 -18.5118 -18.4628 -18.3492 -18.2866 -18.0768
   -17.7681 -17.7576 -17.6611 -17.4316 -17.3955 -17.2455 -17.1868 -17.0525
   -16.9963 -16.7556 -16.7345 -16.6284 -16.5905 -16.4369 -16.3117 -16.2503
   -15.9412 -15.7292 -15.5719 -15.2200 -14.9701 -14.9456 -14.8080 -14.7806
   -14.6643 -14.4750 -14.4156 -14.3551 -14.2091 -14.1529 -14.0011 -13.9649
   -13.9344 -13.6712 -13.4891 -13.2263 -13.1685 -13.1409 -12.9942 -12.8144
   -12.6023 -12.4011 -12.3504 -12.1623 -12.1415 -12.1155 -12.0114 -11.9489
   -11.9318 -11.6299 -11.5795 -11.3883 -11.3447 -11.2035 -11.1382 -10.9161
   -10.8746 -10.7859 -10.7029 -10.6000 -10.4371 -10.4144 -10.2980 -10.2692
   -10.1073 -10.0522  -9.9717  -9.9106  -9.7387  -9.7043  -9.6206  -9.5440
    -9.4779  -9.4082  -9.4013  -9.3707  -9.2293  -9.2147  -9.1517  -9.1394
    -9.0914  -8.9601  -8.9544  -8.9087  -8.8491  -8.8212  -8.7434  -8.6970
    -8.6786  -8.6750  -8.6234  -8.5181  -8.4891  -8.4652  -8.4581  -8.3750
    -8.3365  -8.3169  -8.2743  -8.2393  -8.1738  -8.1305  -8.0884  -8.0708
    -8.0482  -7.9112  -7.8582  -7.7215  -7.6928  -7.6406  -7.5562  -7.5159
    -7.4580  -7.3675  -7.2763  -7.2639  -7.2374  -7.2323  -7.1669  -7.0284
    -7.0026  -6.9582  -6.8805  -6.8277  -6.7652  -6.7516  -6.6991  -6.6201
    -6.5209  -6.4684  -6.3580  -6.3075  -6.2268  -6.2025  -6.1319  -6.0776
    -6.0201  -5.9331  -5.8674  -5.7274  -5.6763  -5.4527  -5.3774  -5.3254
    -5.3045  -5.1426  -5.1242  -5.0701  -4.9256  -4.8755  -4.8052  -4.7358
    -4.7346  -4.5925  -4.5202  -4.4611  -4.2198  -4.2068  -4.1409  -3.8856
    -3.4187  -3.2356  -3.0293  -2.5231  -1.9178  -1.3914  -1.0592  -0.8539
    -0.5323  -0.4336  -0.3711  -0.2397  -0.1987   0.0741   0.1467   0.1937
     0.3356   0.4434   0.5290   0.6262   0.8054   0.8541   0.9011   0.9302
     1.0939   1.0947   1.1450   1.1936   1.2018   1.3809   1.4535   1.4921
     1.5064   1.5360   1.5561   1.6849   1.8063   1.8453   1.8852   1.9623
     1.9929   2.0335   2.0833   2.1387   2.1536   2.2226   2.2351   2.3093
     2.4029   2.4195   2.4228   2.4317   2.5282   2.5293   2.6981   2.7034
     2.7178   2.7448   2.7583   2.7985   2.8197   2.8358   2.8511   2.8671
     2.9612   2.9738   2.9766   3.0427   3.0912   3.1170   3.1422   3.1508
     3.1883   3.2423   3.2476   3.2502   3.3236   3.3246   3.3380   3.4402
     3.4470   3.4605   3.4817   3.5143   3.5473   3.5580   3.5946   3.6168
     3.6651   3.7066   3.7524   3.8015   3.8115   3.8249   3.8575   3.8807
     3.9373   3.9416   3.9661   3.9753   4.0127   4.0721   4.1025   4.1030
     4.1406   4.1693   4.1895   4.2130   4.2456   4.2668   4.2739   4.3013
     4.3088   4.3368   4.3498   4.4265   4.4529   4.5164   4.5708   4.5866
     4.5986   4.6222   4.6338   4.6375   4.6704   4.7006   4.7306   4.7313
     4.7888   4.8100   4.8328   4.8362   4.8725   4.9292   4.9399   4.9712
     4.9809   5.0071   5.0300   5.0638   5.0918   5.0935   5.1356   5.1758
     5.2091   5.2213   5.2497   5.2549   5.2746   5.2799   5.3412   5.3416
     5.3570   5.3665   5.4137   5.4518   5.4545   5.4671   5.5065   5.5447
     5.5573   5.5593   5.5781   5.6113   5.6122   5.6246   5.6313   5.6619
     5.6819   5.6834   5.7287   5.7378   5.7420   5.7659   5.8171   5.8320
     5.8797   5.9011   5.9153   5.9760   6.0034   6.0235   6.0466   6.0556
     6.0660   6.0947   6.1048   6.1528   6.1572   6.1662   6.2031   6.2292
     6.2440   6.2446   6.2600   6.2873   6.2905   6.3101   6.3296   6.3470
     6.3635   6.3744   6.3841   6.3967   6.4420   6.4757   6.4867   6.5011
     6.5119   6.5383   6.5489   6.5492   6.5747   6.6070   6.6198   6.6286
     6.6585   6.6748   6.7073   6.7103   6.7357   6.7493   6.7574   6.7913
     6.7953   6.8081   6.8287   6.8416   6.8613   6.8873   6.9007   6.9256
     6.9537   6.9758   6.9884   7.0092   7.0106   7.0301   7.0513   7.0590
     7.0846   7.1122   7.1315   7.1582   7.1777   7.1909   7.2141   7.2311
     7.2370   7.2435   7.3153   7.3171   7.3292   7.3459   7.3597   7.3606
     7.3824   7.4047   7.4328   7.4549   7.4628   7.4915   7.5159   7.5194
     7.5289   7.5453   7.5610   7.5750   7.5915   7.6004   7.6023   7.6636
     7.6742   7.6852   7.7067   7.7173   7.7268   7.7460   7.7605   7.7911
     7.7993   7.8258   7.8351   7.8444   7.8666   7.8767   7.8794   7.8958
     7.8984   7.9075   7.9513   7.9550   7.9650   7.9735   8.0011   8.0134
     8.0352   8.0746   8.0747   8.1000   8.1048   8.1139   8.1511   8.1533
     8.1892   8.2253   8.2337   8.2648   8.2695   8.2840   8.3418   8.3476
     8.3723   8.3795   8.3963   8.4085

          k = 0.0000 0.0000 0.0117 (147325 PWs)   bands (ev):

   -21.4284 -21.2195 -21.0802 -20.9257 -20.7213 -20.5755 -20.3651 -20.2914
   -20.2182 -20.0577 -19.9037 -19.6607 -19.5687 -19.4322 -19.1779 -19.0250
   -18.9917 -18.8979 -18.7600 -18.5144 -18.4902 -18.3544 -18.2837 -18.0749
   -17.7851 -17.7424 -17.6410 -17.4293 -17.3932 -17.2308 -17.1865 -17.0477
   -17.0099 -16.7560 -16.7282 -16.6146 -16.5911 -16.4463 -16.3466 -16.2433
   -15.9339 -15.7543 -15.5715 -15.2343 -14.9655 -14.9115 -14.8023 -14.7698
   -14.6707 -14.4694 -14.4267 -14.3364 -14.2090 -14.1504 -14.0017 -13.9669
   -13.9263 -13.6609 -13.4844 -13.2759 -13.1825 -13.1548 -13.0070 -12.8212
   -12.6145 -12.3873 -12.3455 -12.1485 -12.1382 -12.0721 -12.0187 -11.9430
   -11.9257 -11.6256 -11.5736 -11.3820 -11.3604 -11.2049 -11.1531 -10.9013
   -10.8737 -10.7969 -10.6903 -10.6082 -10.4393 -10.4175 -10.3066 -10.2717
   -10.0767 -10.0703  -9.9748  -9.9052  -9.7427  -9.7052  -9.6515  -9.5505
    -9.4748  -9.4067  -9.3901  -9.3805  -9.2402  -9.2146  -9.1484  -9.1387
    -9.0912  -8.9575  -8.9528  -8.8968  -8.8626  -8.8079  -8.7451  -8.7034
    -8.6824  -8.6705  -8.6299  -8.5216  -8.4809  -8.4626  -8.4575  -8.3678
    -8.3247  -8.3127  -8.2681  -8.2284  -8.1707  -8.1464  -8.0889  -8.0635
    -8.0328  -7.9120  -7.8690  -7.7164  -7.6895  -7.6431  -7.5652  -7.5181
    -7.4535  -7.3396  -7.2842  -7.2679  -7.2427  -7.2363  -7.1873  -7.0290
    -6.9985  -6.9614  -6.8854  -6.8417  -6.7784  -6.7298  -6.6886  -6.6195
    -6.5307  -6.4781  -6.3557  -6.3092  -6.2050  -6.2020  -6.1241  -6.1091
    -6.0301  -5.9303  -5.8660  -5.7231  -5.6637  -5.4413  -5.3929  -5.3535
    -5.2725  -5.1341  -5.1315  -5.0679  -4.9227  -4.8631  -4.8049  -4.7428
    -4.7338  -4.5945  -4.5178  -4.4653  -4.2220  -4.1973  -4.1556  -3.8675
    -3.4311  -3.2419  -3.0281  -2.5379  -1.9042  -1.4004  -1.0427  -0.8414
    -0.5402  -0.4154  -0.3689  -0.2477  -0.1990   0.0781   0.1387   0.1832
     0.3341   0.4464   0.5447   0.6066   0.8085   0.8568   0.8994   0.9033
     1.0703   1.0862   1.1614   1.1899   1.1935   1.3908   1.4642   1.4775
     1.4918   1.5453   1.5622   1.6885   1.8069   1.8335   1.8996   2.0010
     2.0127   2.0433   2.0785   2.1474   2.1486   2.2220   2.2379   2.3151
     2.3928   2.4277   2.4291   2.4346   2.5174   2.5193   2.6914   2.7091
     2.7132   2.7350   2.7449   2.7987   2.8111   2.8291   2.8328   2.8593
     2.9692   2.9697   2.9845   3.0423   3.0881   3.1062   3.1307   3.1406
     3.2034   3.2450   3.2572   3.2637   3.3148   3.3460   3.3488   3.4434
     3.4553   3.4780   3.4941   3.5224   3.5330   3.5646   3.6127   3.6282
     3.6722   3.7138   3.7316   3.7929   3.8199   3.8363   3.8608   3.8664
     3.9319   3.9405   3.9696   3.9705   4.0176   4.0603   4.0971   4.1103
     4.1167   4.1751   4.1859   4.1977   4.2370   4.2512   4.2703   4.2934
     4.3234   4.3406   4.3577   4.4004   4.4167   4.5039   4.5829   4.5951
     4.6083   4.6086   4.6464   4.6464   4.6754   4.7052   4.7109   4.7289
     4.7879   4.8167   4.8209   4.8482   4.8669   4.9173   4.9553   5.0012
     5.0050   5.0076   5.0172   5.0680   5.0806   5.0985   5.1115   5.1885
     5.2231   5.2339   5.2458   5.2572   5.2866   5.2880   5.3386   5.3392
     5.3457   5.3590   5.3890   5.4432   5.4571   5.4607   5.5001   5.5393
     5.5650   5.5876   5.5884   5.5941   5.6156   5.6174   5.6364   5.6649
     5.6654   5.6824   5.7322   5.7380   5.7445   5.7615   5.8339   5.8504
     5.8698   5.8995   5.9047   5.9736   6.0029   6.0119   6.0335   6.0584
     6.0688   6.0996   6.1031   6.1378   6.1538   6.1812   6.2169   6.2353
     6.2495   6.2611   6.2843   6.2875   6.2920   6.3004   6.3250   6.3507
     6.3722   6.3880   6.3975   6.3992   6.4565   6.4780   6.4864   6.5081
     6.5155   6.5199   6.5418   6.5490   6.5717   6.6023   6.6119   6.6284
     6.6440   6.6664   6.6824   6.7137   6.7339   6.7343   6.7510   6.7802
     6.7895   6.8160   6.8176   6.8527   6.8529   6.8675   6.8955   6.9153
     6.9232   6.9706   6.9921   7.0182   7.0240   7.0282   7.0534   7.0631
     7.0812   7.1110   7.1208   7.1381   7.1912   7.2048   7.2253   7.2380
     7.2416   7.2420   7.2954   7.3084   7.3239   7.3532   7.3677   7.3677
     7.3799   7.4253   7.4351   7.4595   7.4838   7.4895   7.5038   7.5213
     7.5364   7.5503   7.5687   7.5750   7.6014   7.6035   7.6358   7.6573
     7.6822   7.6852   7.7008   7.7176   7.7344   7.7403   7.7535   7.7975
     7.7988   7.8325   7.8403   7.8446   7.8680   7.8804   7.8942   7.9107
     7.9140   7.9143   7.9459   7.9685   7.9737   7.9833   7.9853   8.0056
     8.0297   8.0799   8.0899   8.0957   8.1225   8.1303   8.1435   8.1474
     8.2065   8.2169   8.2394   8.2628   8.2724   8.2946   8.3255   8.3644
     8.3743   8.3760   8.3823   8.4047

          k = 0.0000 0.0000 0.0129 (147299 PWs)   bands (ev):

   -21.4260 -21.2277 -21.0800 -20.9168 -20.7165 -20.5786 -20.3595 -20.3054
   -20.2200 -20.0666 -19.9007 -19.6520 -19.5483 -19.4488 -19.1814 -19.0064
   -18.9836 -18.8958 -18.7731 -18.5184 -18.5172 -18.3578 -18.2805 -18.0730
   -17.8122 -17.7224 -17.6152 -17.4262 -17.3908 -17.2195 -17.1861 -17.0406
   -17.0236 -16.7561 -16.7222 -16.6055 -16.5862 -16.4562 -16.3820 -16.2367
   -15.9265 -15.7812 -15.5708 -15.2477 -14.9615 -14.8815 -14.7912 -14.7584
   -14.6774 -14.4671 -14.4366 -14.3140 -14.2083 -14.1482 -14.0054 -13.9687
   -13.9150 -13.6505 -13.4804 -13.3300 -13.1979 -13.1645 -13.0190 -12.8281
   -12.6266 -12.3739 -12.3419 -12.1575 -12.1150 -12.0308 -12.0250 -11.9346
   -11.9158 -11.6199 -11.5678 -11.3786 -11.3755 -11.2059 -11.1707 -10.8868
   -10.8704 -10.8054 -10.6777 -10.6165 -10.4419 -10.4302 -10.3091 -10.2718
   -10.0891 -10.0430  -9.9838  -9.8983  -9.7441  -9.7110  -9.6775  -9.5600
    -9.4713  -9.4065  -9.3884  -9.3768  -9.2512  -9.2148  -9.1458  -9.1379
    -9.0910  -8.9592  -8.9534  -8.8851  -8.8759  -8.7922  -8.7467  -8.7074
    -8.6866  -8.6652  -8.6373  -8.5287  -8.4722  -8.4671  -8.4507  -8.3614
    -8.3101  -8.3051  -8.2618  -8.2156  -8.1672  -8.1638  -8.0895  -8.0581
    -8.0168  -7.9102  -7.8782  -7.7126  -7.6860  -7.6462  -7.5746  -7.5205
    -7.4507  -7.3096  -7.2919  -7.2719  -7.2494  -7.2400  -7.2071  -7.0366
    -6.9947  -6.9656  -6.8902  -6.8471  -6.7905  -6.7088  -6.6777  -6.6186
    -6.5405  -6.4891  -6.3548  -6.3134  -6.2015  -6.1833  -6.1422  -6.1145
    -6.0376  -5.9275  -5.8642  -5.7190  -5.6503  -5.4311  -5.4085  -5.3813
    -5.2399  -5.1394  -5.1260  -5.0648  -4.9202  -4.8524  -4.8039  -4.7500
    -4.7327  -4.5964  -4.5156  -4.4691  -4.2369  -4.1737  -4.1712  -3.8498
    -3.4449  -3.2486  -3.0269  -2.5526  -1.8908  -1.4092  -1.0256  -0.8277
    -0.5495  -0.3945  -0.3669  -0.2578  -0.1978   0.0821   0.1309   0.1731
     0.3319   0.4476   0.5607   0.5891   0.8118   0.8596   0.8638   0.9053
     1.0511   1.0779   1.1768   1.1783   1.1944   1.4004   1.4633   1.4743
     1.4773   1.5556   1.5689   1.6914   1.8061   1.8224   1.9174   2.0268
     2.0396   2.0526   2.0700   2.1418   2.1618   2.2264   2.2410   2.3209
     2.3835   2.4328   2.4342   2.4380   2.5047   2.5127   2.6730   2.7118
     2.7194   2.7293   2.7308   2.7785   2.8013   2.8212   2.8354   2.8525
     2.9652   2.9792   2.9970   3.0349   3.0925   3.0963   3.1190   3.1274
     3.2215   3.2471   3.2669   3.2772   3.3053   3.3547   3.3737   3.4440
     3.4612   3.4887   3.5041   3.5259   3.5307   3.5631   3.6309   3.6421
     3.6835   3.7075   3.7339   3.7878   3.8227   3.8486   3.8495   3.8607
     3.9258   3.9438   3.9730   3.9735   4.0200   4.0335   4.0832   4.0888
     4.1412   4.1468   4.1946   4.2052   4.2335   4.2355   4.2614   4.2780
     4.3304   4.3561   4.3658   4.3813   4.3873   4.4896   4.5790   4.5926
     4.6147   4.6163   4.6422   4.6558   4.6738   4.6976   4.7050   4.7359
     4.7858   4.8046   4.8390   4.8569   4.8692   4.9041   4.9645   4.9954
     5.0099   5.0317   5.0378   5.0544   5.0742   5.1037   5.1074   5.1898
     5.2234   5.2292   5.2552   5.2781   5.2946   5.3022   5.3175   5.3411
     5.3496   5.3543   5.3608   5.4319   5.4530   5.4542   5.5003   5.5283
     5.5697   5.5798   5.5900   5.6108   5.6124   5.6208   5.6453   5.6634
     5.6718   5.6849   5.7338   5.7346   5.7592   5.7611   5.8526   5.8556
     5.8584   5.8960   5.9085   5.9625   6.0002   6.0052   6.0192   6.0571
     6.0720   6.0984   6.1141   6.1183   6.1482   6.1968   6.2147   6.2322
     6.2525   6.2694   6.2760   6.2934   6.2964   6.3102   6.3265   6.3674
     6.3724   6.3930   6.4162   6.4181   6.4636   6.4803   6.4806   6.4946
     6.5331   6.5352   6.5379   6.5510   6.5673   6.5873   6.6096   6.6157
     6.6255   6.6515   6.6749   6.7150   6.7209   6.7209   6.7627   6.7680
     6.7724   6.8159   6.8281   6.8432   6.8480   6.8640   6.8735   6.8909
     6.9201   6.9724   6.9953   7.0201   7.0317   7.0372   7.0614   7.0722
     7.0724   7.0782   7.1219   7.1337   7.2003   7.2079   7.2285   7.2430
     7.2486   7.2667   7.2729   7.3034   7.3312   7.3585   7.3724   7.3742
     7.3769   7.4331   7.4421   7.4668   7.4720   7.4920   7.5206   7.5283
     7.5399   7.5558   7.5738   7.5750   7.6020   7.6158   7.6517   7.6552
     7.6654   7.6708   7.7125   7.7169   7.7178   7.7534   7.7812   7.7831
     7.7938   7.8352   7.8418   7.8475   7.8652   7.8991   7.9086   7.9238
     7.9252   7.9314   7.9319   7.9754   7.9819   7.9882   8.0010   8.0147
     8.0323   8.0648   8.0881   8.1099   8.1154   8.1470   8.1556   8.1576
     8.1862   8.2210   8.2413   8.2781   8.2845   8.2940   8.3021   8.3353
     8.3725   8.3774   8.3956   8.4085

          k = 0.0000 0.0000 0.0141 (147253 PWs)   bands (ev):

   -21.4234 -21.2358 -21.0798 -20.9081 -20.7109 -20.5817 -20.3538 -20.3206
   -20.2219 -20.0742 -19.8976 -19.6462 -19.5246 -19.4648 -19.1848 -18.9888
   -18.9754 -18.8929 -18.7875 -18.5463 -18.5203 -18.3599 -18.2769 -18.0712
   -17.8388 -17.7071 -17.5851 -17.4221 -17.3882 -17.2113 -17.1858 -17.0374
   -17.0313 -16.7558 -16.7169 -16.6046 -16.5721 -16.4676 -16.4164 -16.2306
   -15.9191 -15.8095 -15.5697 -15.2602 -14.9581 -14.8604 -14.7703 -14.7466
   -14.6841 -14.4676 -14.4454 -14.2897 -14.2067 -14.1462 -14.0109 -13.9701
   -13.9022 -13.6401 -13.4778 -13.3857 -13.2137 -13.1728 -13.0300 -12.8350
   -12.6382 -12.3613 -12.3392 -12.1673 -12.0919 -12.0305 -11.9969 -11.9244
   -11.8990 -11.6123 -11.5621 -11.3899 -11.3779 -11.2072 -11.1907 -10.8735
   -10.8644 -10.8110 -10.6654 -10.6249 -10.4527 -10.4447 -10.3046 -10.2699
   -10.1035 -10.0122  -9.9969  -9.8918  -9.7437  -9.7288  -9.6906  -9.5713
    -9.4676  -9.4065  -9.3943  -9.3629  -9.2622  -9.2151  -9.1440  -9.1371
    -9.0908  -8.9712  -8.9490  -8.8881  -8.8738  -8.7761  -8.7482  -8.7093
    -8.6909  -8.6589  -8.6454  -8.5376  -8.4714  -8.4637  -8.4457  -8.3563
    -8.2944  -8.2930  -8.2555  -8.2004  -8.1824  -8.1635  -8.0901  -8.0549
    -8.0003  -7.9057  -7.8860  -7.7106  -7.6821  -7.6500  -7.5841  -7.5227
    -7.4488  -7.2996  -7.2782  -7.2758  -7.2577  -7.2433  -7.2263  -7.0502
    -6.9923  -6.9701  -6.8947  -6.8446  -6.8010  -6.6890  -6.6665  -6.6171
    -6.5502  -6.5016  -6.3552  -6.3194  -6.2010  -6.1754  -6.1619  -6.1036
    -6.0438  -5.9247  -5.8623  -5.7150  -5.6363  -5.4241  -5.4216  -5.4086
    -5.2079  -5.1480  -5.1184  -5.0605  -4.9179  -4.8440  -4.8021  -4.7571
    -4.7313  -4.5984  -4.5137  -4.4725  -4.2517  -4.1873  -4.1491  -3.8324
    -3.4599  -3.2557  -3.0256  -2.5668  -1.8777  -1.4177  -1.0082  -0.8129
    -0.5599  -0.3714  -0.3649  -0.2698  -0.1957   0.0856   0.1235   0.1637
     0.3290   0.4463   0.5744   0.5766   0.8153   0.8259   0.8627   0.9071
     1.0355   1.0691   1.1671   1.1911   1.1964   1.4092   1.4499   1.4633
     1.4837   1.5668   1.5763   1.6933   1.8053   1.8120   1.9372   2.0457
     2.0596   2.0611   2.0655   2.1369   2.1766   2.2375   2.2440   2.3268
     2.3752   2.4294   2.4381   2.4463   2.4914   2.5096   2.6528   2.7108
     2.7157   2.7159   2.7389   2.7514   2.7908   2.8130   2.8464   2.8470
     2.9627   2.9907   3.0101   3.0237   3.0872   3.1015   3.1079   3.1132
     3.2406   3.2489   3.2764   3.2904   3.2956   3.3639   3.3977   3.4425
     3.4654   3.4832   3.5119   3.5350   3.5392   3.5575   3.6455   3.6578
     3.6885   3.6983   3.7546   3.7900   3.8063   3.8478   3.8563   3.8615
     3.9243   3.9473   3.9776   3.9777   4.0072   4.0144   4.0652   4.0730
     4.1176   4.1778   4.1893   4.2125   4.2195   4.2411   4.2529   4.2626
     4.3166   4.3471   4.3639   4.3739   4.4062   4.4741   4.5741   4.5743
     4.6227   4.6238   4.6250   4.6653   4.6702   4.6837   4.7137   4.7468
     4.7829   4.8026   4.8534   4.8535   4.8817   4.8985   4.9643   4.9724
     5.0135   5.0349   5.0621   5.0739   5.0810   5.1073   5.1092   5.1766
     5.2219   5.2370   5.2492   5.2940   5.2964   5.2990   5.3142   5.3335
     5.3519   5.3532   5.3623   5.4187   5.4454   5.4484   5.5039   5.5109
     5.5552   5.5895   5.5965   5.6030   5.6214   5.6236   5.6281   5.6843
     5.6932   5.7040   5.7284   5.7388   5.7634   5.7766   5.8413   5.8458
     5.8727   5.9081   5.9123   5.9514   5.9890   5.9915   6.0205   6.0483
     6.0754   6.0975   6.1033   6.1291   6.1369   6.2058   6.2137   6.2265
     6.2426   6.2500   6.2670   6.2902   6.3024   6.3156   6.3640   6.3707
     6.3954   6.3981   6.4250   6.4338   6.4586   6.4665   6.4824   6.5179
     6.5271   6.5408   6.5464   6.5577   6.5725   6.5760   6.5847   6.6184
     6.6221   6.6236   6.6820   6.6988   6.7087   6.7280   6.7443   6.7542
     6.7872   6.8129   6.8218   6.8302   6.8449   6.8450   6.8660   6.8870
     6.9156   6.9840   6.9979   7.0109   7.0314   7.0472   7.0474   7.0699
     7.0741   7.0896   7.1154   7.1312   7.1914   7.2103   7.2282   7.2310
     7.2618   7.2870   7.2997   7.2998   7.3359   7.3622   7.3654   7.3798
     7.3827   7.4300   7.4556   7.4601   7.4754   7.4844   7.5329   7.5365
     7.5531   7.5606   7.5746   7.5801   7.5999   7.6214   7.6285   7.6405
     7.6477   7.7029   7.7042   7.7160   7.7202   7.7484   7.7835   7.7894
     7.8146   7.8449   7.8483   7.8494   7.8595   7.8990   7.9125   7.9177
     7.9368   7.9398   7.9511   7.9881   7.9887   8.0053   8.0260   8.0267
     8.0410   8.0436   8.0839   8.0923   8.1343   8.1548   8.1594   8.1677
     8.1915   8.2139   8.2301   8.2731   8.2877   8.2891   8.3147   8.3270
     8.3600   8.3781   8.3810   8.4015

          k = 0.0000 0.0000 0.0153 (147267 PWs)   bands (ev):

   -21.4206 -21.2438 -21.0797 -20.8998 -20.7045 -20.5847 -20.3480 -20.3367
   -20.2240 -20.0806 -19.8942 -19.6423 -19.4988 -19.4801 -19.1881 -18.9728
   -18.9672 -18.8888 -18.8032 -18.5735 -18.5237 -18.3615 -18.2729 -18.0694
   -17.8648 -17.6950 -17.5531 -17.4163 -17.3855 -17.2060 -17.1858 -17.0511
   -17.0202 -16.7551 -16.7123 -16.6069 -16.5539 -16.4844 -16.4455 -16.2251
   -15.9117 -15.8391 -15.5684 -15.2718 -14.9552 -14.8496 -14.7394 -14.7345
   -14.6897 -14.4700 -14.4529 -14.2657 -14.2028 -14.1443 -14.0174 -13.9707
   -13.8887 -13.6297 -13.4774 -13.4420 -13.2292 -13.1806 -13.0404 -12.8418
   -12.6493 -12.3499 -12.3372 -12.1771 -12.0687 -12.0356 -11.9736 -11.9128
   -11.8736 -11.6019 -11.5562 -11.4034 -11.3794 -11.2123 -11.2096 -10.8629
   -10.8553 -10.8126 -10.6535 -10.6334 -10.4825 -10.4474 -10.2950 -10.2659
   -10.1157 -10.0126  -9.9829  -9.8865  -9.7552  -9.7435  -9.6933  -9.5821
    -9.4634  -9.4065  -9.3989  -9.3487  -9.2731  -9.2156  -9.1436  -9.1360
    -9.0906  -8.9864  -8.9468  -8.8970  -8.8631  -8.7610  -8.7496  -8.7096
    -8.6954  -8.6541  -8.6517  -8.5475  -8.4755  -8.4559  -8.4423  -8.3527
    -8.2794  -8.2759  -8.2494  -8.2020  -8.1822  -8.1594  -8.0907  -8.0538
    -7.9835  -7.8988  -7.8925  -7.7104  -7.6780  -7.6546  -7.5935  -7.5250
    -7.4475  -7.3084  -7.2798  -7.2676  -7.2460  -7.2459  -7.2448  -7.0669
    -6.9935  -6.9726  -6.8990  -6.8361  -6.8097  -6.6708  -6.6550  -6.6147
    -6.5598  -6.5157  -6.3576  -6.3260  -6.2080  -6.2003  -6.1407  -6.0922
    -6.0494  -5.9220  -5.8600  -5.7112  -5.6217  -5.4395  -5.4354  -5.4126
    -5.1778  -5.1571  -5.1114  -5.0543  -4.9157  -4.8381  -4.7991  -4.7639
    -4.7295  -4.6002  -4.5123  -4.4755  -4.2664  -4.2037  -4.1236  -3.8155
    -3.4763  -3.2631  -3.0244  -2.5804  -1.8653  -1.4257  -0.9905  -0.7969
    -0.5713  -0.3631  -0.3462  -0.2832  -0.1930   0.0882   0.1165   0.1557
     0.3251   0.4421   0.5631   0.5916   0.7878   0.8191   0.8659   0.9087
     1.0218   1.0600   1.1562   1.1991   1.2041   1.4158   1.4389   1.4499
     1.4925   1.5786   1.5840   1.6941   1.8024   1.8056   1.9582   2.0483
     2.0627   2.0687   2.0844   2.1329   2.1919   2.2471   2.2560   2.3328
     2.3682   2.4198   2.4433   2.4539   2.4775   2.5102   2.6325   2.6998
     2.7001   2.7130   2.7301   2.7513   2.7801   2.8051   2.8433   2.8593
     2.9613   3.0029   3.0111   3.0228   3.0793   3.0981   3.0988   3.1128
     3.2504   3.2587   3.2853   3.2877   3.3031   3.3740   3.4195   3.4400
     3.4677   3.4694   3.5177   3.5478   3.5523   3.5524   3.6468   3.6747
     3.6783   3.7153   3.7704   3.7797   3.8075   3.8475   3.8546   3.8749
[...]
    -6.9596  -6.9476  -6.9106  -6.8259  -6.7205  -6.6978  -6.6282  -6.6279
    -6.5391  -6.5283  -6.4617  -6.4339  -6.3406  -6.1938  -6.0791  -6.0167
    -5.9928  -5.9067  -5.8291  -5.6907  -5.6215  -5.5525  -5.4982  -5.3519
    -5.2439  -5.0843  -5.0728  -4.9202  -4.8987  -4.8380  -4.7745  -4.7267
    -4.7060  -4.6107  -4.5776  -4.4912  -4.3779  -4.3053  -3.8801  -3.7043
    -3.6663  -3.3226  -3.0162  -2.6598  -1.7931  -1.4724  -0.8342  -0.6929
    -0.6230  -0.4432  -0.3533  -0.1645  -0.0659   0.0543   0.0796   0.1684
     0.1876   0.3458   0.4977   0.5525   0.7805   0.8546   0.8936   0.9046
     0.9181   0.9909   1.0863   1.2443   1.2673   1.3301   1.3712   1.4845
     1.5457   1.6305   1.6643   1.6744   1.7708   1.8546   1.9510   2.0745
     2.0784   2.1589   2.1674   2.2124   2.2588   2.2739   2.3026   2.3369
     2.3871   2.4102   2.4423   2.4702   2.4814   2.4869   2.4996   2.5420
     2.5597   2.6233   2.7012   2.7712   2.8005   2.8121   2.8849   2.8969
     2.9582   3.0146   3.0172   3.0218   3.0531   3.1380   3.1417   3.1962
     3.2011   3.2691   3.2776   3.3095   3.3882   3.4187   3.4477   3.4711
     3.4765   3.4901   3.4920   3.5260   3.5383   3.6134   3.6482   3.6507
     3.6832   3.7284   3.7363   3.7619   3.8042   3.8382   3.8678   3.9419
     3.9898   3.9990   4.0017   4.0146   4.0355   4.0370   4.0459   4.0515
     4.1153   4.1226   4.1334   4.1453   4.1499   4.2025   4.2051   4.2413
     4.2598   4.2940   4.3032   4.3128   4.4268   4.4486   4.4846   4.4874
     4.4881   4.5732   4.5841   4.6338   4.7052   4.7190   4.7470   4.7496
     4.8077   4.8213   4.8594   4.8882   4.8915   4.9620   4.9689   4.9864
     5.0373   5.0636   5.0738   5.0812   5.1045   5.1136   5.1328   5.1758
     5.1855   5.2181   5.2213   5.2395   5.2439   5.2520   5.2758   5.3117
     5.3792   5.4019   5.4204   5.4272   5.4429   5.4815   5.4934   5.5607
     5.5744   5.6082   5.6121   5.6566   5.6695   5.6813   5.7018   5.7427
     5.7457   5.7516   5.7711   5.8001   5.8085   5.8206   5.8509   5.8667
     5.8678   5.8947   5.8975   5.9275   5.9516   6.0260   6.0267   6.0381
     6.0565   6.0701   6.0710   6.0990   6.1004   6.1365   6.1455   6.1698
     6.1994   6.2232   6.2245   6.2587   6.2811   6.2820   6.2852   6.3107
     6.3479   6.3656   6.3777   6.4056   6.4239   6.4251   6.4530   6.4626
     6.4918   6.5083   6.5182   6.5492   6.5916   6.6144   6.6259   6.6330
     6.6718   6.6910   6.6996   6.7137   6.7269   6.7415   6.7522   6.7710
     6.8069   6.8107   6.8446   6.8522   6.8632   6.8792   6.9140   6.9163
     6.9536   6.9761   6.9889   6.9916   7.0603   7.0646   7.0863   7.1009
     7.1164   7.1281   7.1593   7.1798   7.1936   7.2015   7.2043   7.2229
     7.2485   7.2648   7.2816   7.3016   7.3274   7.3338   7.3478   7.3532
     7.3613   7.4042   7.4589   7.4656   7.4747   7.4936   7.5163   7.5236
     7.5267   7.5390   7.5670   7.5776   7.5966   7.6392   7.6557   7.6601
     7.6628   7.7093   7.7108   7.7616   7.7714   7.7830   7.7905   7.8032
     7.8154   7.8449   7.8571   7.8611   7.9007   7.9075   7.9085   7.9274
     7.9304   7.9343   8.0050   8.0055   8.0089   8.0400   8.0457   8.0852
     8.0867   8.1003   8.1089   8.1293   8.1637   8.1997   8.2031   8.2460
     8.2725   8.2725   8.2761   8.2770   8.3039   8.3073   8.3306   8.3414
     8.3464   8.3635   8.3645   8.4008

          k = 0.0000 0.0000 0.0270 (147192 PWs)   bands (ev):

   -21.3918 -21.3039 -21.0783 -20.8533 -20.6036 -20.5931 -20.5111 -20.2993
   -20.2483 -20.1066 -19.8640 -19.6313 -19.5801 -19.2247 -19.1874 -19.0722
   -18.9212 -18.8498 -18.7943 -18.7606 -18.5625 -18.3658 -18.2188 -18.0578
   -18.0568 -17.6322 -17.4309 -17.3622 -17.2124 -17.1897 -17.1835 -17.0776
   -16.9209 -16.9161 -16.7352 -16.6423 -16.6410 -16.5144 -16.3001 -16.1963
   -16.1627 -15.8611 -15.5492 -15.3369 -14.9423 -14.8678 -14.7366 -14.6137
   -14.5412 -14.4926 -14.2602 -14.2239 -14.1250 -14.0707 -14.0597 -13.9926
   -13.8277 -13.7897 -13.6741 -13.5529 -13.2469 -13.2398 -13.1268 -12.8843
   -12.7174 -12.3409 -12.3307 -12.1601 -12.0933 -11.9517 -11.8174 -11.8069
   -11.7522 -11.4956 -11.4876 -11.4192 -11.4039 -11.3123 -11.2134 -10.9958
   -10.8597 -10.7080 -10.6983 -10.6545 -10.5917 -10.3963 -10.3078 -10.1745
   -10.1165 -10.0495 -10.0241  -9.9504  -9.8654  -9.8601  -9.5131  -9.4913
    -9.4372  -9.4158  -9.4056  -9.3708  -9.3496  -9.2347  -9.2027  -9.1159
    -9.0891  -9.0661  -9.0464  -8.8161  -8.8051  -8.7642  -8.7426  -8.7226
    -8.7042  -8.6631  -8.6495  -8.5255  -8.5009  -8.4348  -8.4194  -8.4049
    -8.3634  -8.2140  -8.2083  -8.1339  -8.0968  -8.0791  -7.9791  -7.9244
    -7.9191  -7.8251  -7.7963  -7.7818  -7.7577  -7.6674  -7.6377  -7.5609
    -7.5484  -7.4426  -7.3691  -7.3115  -7.3113  -7.2093  -7.1510  -7.1192
    -6.9462  -6.9446  -6.8969  -6.8251  -6.7474  -6.6876  -6.6315  -6.6277
    -6.5257  -6.5231  -6.4709  -6.4507  -6.3407  -6.1933  -6.0802  -6.0137
    -5.9852  -5.9065  -5.8262  -5.6900  -5.6312  -5.5584  -5.4908  -5.3490
    -5.2498  -5.0830  -5.0713  -4.9164  -4.8978  -4.8387  -4.7738  -4.7045
    -4.7043  -4.6110  -4.5983  -4.4917  -4.3818  -4.3093  -3.8578  -3.6991
    -3.6866  -3.3258  -3.0159  -2.6628  -1.7903  -1.4743  -0.8211  -0.7046
    -0.6059  -0.4597  -0.3530  -0.1628  -0.0367   0.0512   0.0803   0.1603
     0.1717   0.3394   0.4896   0.5532   0.7949   0.8569   0.8918   0.8952
     0.9185   0.9872   1.0832   1.2490   1.2693   1.3234   1.3681   1.4875
     1.5484   1.6310   1.6617   1.6792   1.7723   1.8589   1.9451   2.0725
     2.0772   2.1694   2.1882   2.2200   2.2418   2.2690   2.3073   2.3280
     2.3948   2.4227   2.4460   2.4674   2.4675   2.4896   2.4901   2.5294
     2.5632   2.6200   2.6971   2.7740   2.8062   2.8172   2.8772   2.8864
     2.9593   3.0179   3.0202   3.0459   3.0551   3.1371   3.1506   3.1823
     3.1915   3.2752   3.2860   3.3035   3.3891   3.4162   3.4342   3.4546
     3.4899   3.4979   3.5019   3.5420   3.5450   3.6169   3.6256   3.6465
     3.6543   3.7164   3.7582   3.7599   3.8303   3.8420   3.8577   3.9310
     3.9820   3.9954   4.0074   4.0236   4.0351   4.0382   4.0499   4.0772
     4.1137   4.1164   4.1273   4.1536   4.1673   4.2106   4.2244   4.2246
     4.2539   4.2847   4.2920   4.2966   4.4126   4.4236   4.4795   4.4880
     4.4883   4.5742   4.5933   4.6338   4.7038   4.7242   4.7475   4.7590
     4.8140   4.8311   4.8664   4.8741   4.9014   4.9505   4.9545   5.0062
     5.0329   5.0560   5.0717   5.0789   5.0867   5.1200   5.1344   5.1827
     5.1874   5.2086   5.2183   5.2309   5.2393   5.2641   5.2778   5.3150
     5.3722   5.3997   5.4429   5.4444   5.4463   5.4791   5.4901   5.5582
     5.5593   5.6166   5.6317   5.6450   5.6666   5.6829   5.7019   5.7464
     5.7645   5.7730   5.7751   5.7766   5.8142   5.8282   5.8481   5.8617
     5.8702   5.8855   5.9048   5.9291   5.9333   6.0209   6.0246   6.0304
     6.0346   6.0585   6.0964   6.1049   6.1184   6.1326   6.1399   6.1742
     6.2027   6.2279   6.2429   6.2523   6.2559   6.2798   6.2993   6.3037
     6.3595   6.3656   6.3762   6.3931   6.4032   6.4069   6.4494   6.4563
     6.4635   6.4906   6.5451   6.5467   6.5930   6.6132   6.6281   6.6303
     6.6754   6.7044   6.7090   6.7100   6.7243   6.7316   6.7516   6.7696
     6.8071   6.8330   6.8424   6.8477   6.8917   6.8980   6.9043   6.9180
     6.9658   6.9877   7.0013   7.0045   7.0263   7.0748   7.0847   7.0907
     7.1290   7.1501   7.1542   7.1682   7.1808   7.1979   7.2139   7.2307
     7.2322   7.2665   7.2941   7.3030   7.3196   7.3306   7.3462   7.3496
     7.3623   7.4002   7.4525   7.4555   7.4699   7.4748   7.5032   7.5289
     7.5397   7.5488   7.5657   7.5871   7.5901   7.6284   7.6460   7.6482
     7.6833   7.7162   7.7240   7.7357   7.7668   7.7831   7.7969   7.8003
     7.8090   7.8496   7.8702   7.8880   7.8998   7.9005   7.9145   7.9217
     7.9360   7.9390   8.0127   8.0256   8.0257   8.0375   8.0457   8.0663
     8.0754   8.0801   8.1035   8.1218   8.1758   8.1846   8.2335   8.2379
     8.2602   8.2822   8.2858   8.2878   8.3017   8.3230   8.3255   8.3343
     8.3521   8.3667   8.3749   8.3817

          k = 0.0000 0.0000 0.0282 (147224 PWs)   bands (ev):

   -21.3906 -21.3058 -21.0783 -20.8524 -20.6041 -20.5816 -20.5241 -20.2975
   -20.2495 -20.1070 -19.8631 -19.6312 -19.5826 -19.2188 -19.1659 -19.0990
   -18.9209 -18.8443 -18.7904 -18.7680 -18.5641 -18.3658 -18.2157 -18.0631
   -18.0576 -17.6306 -17.4297 -17.3614 -17.2132 -17.1897 -17.1813 -17.0433
   -16.9552 -16.9184 -16.7340 -16.6438 -16.6407 -16.5157 -16.2726 -16.1958
   -16.1918 -15.8598 -15.5484 -15.3383 -14.9421 -14.8693 -14.7372 -14.6066
   -14.5472 -14.4928 -14.2250 -14.2239 -14.1195 -14.0708 -14.0578 -14.0355
   -13.8016 -13.7875 -13.7006 -13.5508 -13.2437 -13.2416 -13.1307 -12.8852
   -12.7190 -12.3424 -12.3306 -12.1554 -12.0974 -11.9508 -11.8038 -11.8030
   -11.7592 -11.4935 -11.4889 -11.4263 -11.4018 -11.3197 -11.1631 -11.0455
   -10.8599 -10.7061 -10.6920 -10.6554 -10.5916 -10.3801 -10.3270 -10.1757
   -10.0960 -10.0462 -10.0301  -9.9737  -9.8659  -9.8599  -9.4889  -9.4812
    -9.4426  -9.4234  -9.3990  -9.3782  -9.3640  -9.2362  -9.2018  -9.1150
    -9.0890  -9.0663  -9.0500  -8.8117  -8.8040  -8.7649  -8.7451  -8.7227
    -8.7036  -8.6616  -8.6541  -8.5149  -8.5015  -8.4347  -8.4184  -8.4172
    -8.3646  -8.2128  -8.2072  -8.1330  -8.0970  -8.0801  -7.9650  -7.9196
    -7.9035  -7.8405  -7.7947  -7.7656  -7.7577  -7.6843  -7.6362  -7.5737
    -7.5496  -7.4425  -7.3725  -7.3122  -7.3120  -7.2039  -7.1520  -7.1271
    -6.9454  -6.9390  -6.8786  -6.8246  -6.7702  -6.6810  -6.6336  -6.6275
    -6.5198  -6.5137  -6.4769  -6.4646  -6.3407  -6.1931  -6.0809  -6.0119
    -5.9805  -5.9064  -5.8243  -5.6896  -5.6371  -5.5620  -5.4861  -5.3473
    -5.2535  -5.0823  -5.0705  -4.9145  -4.8972  -4.8391  -4.7735  -4.7037
    -4.6820  -4.6195  -4.6113  -4.4921  -4.3840  -4.3117  -3.8412  -3.7019
    -3.6960  -3.3277  -3.0157  -2.6647  -1.7887  -1.4754  -0.8118  -0.7132
    -0.5933  -0.4720  -0.3528  -0.1618  -0.0145   0.0493   0.0835   0.1363
     0.1738   0.3354   0.4849   0.5537   0.8060   0.8584   0.8818   0.8961
     0.9187   0.9849   1.0812   1.2522   1.2705   1.3189   1.3663   1.4893
     1.5500   1.6311   1.6601   1.6821   1.7734   1.8616   1.9414   2.0711
     2.0764   2.1795   2.2059   2.2247   2.2276   2.2602   2.3100   2.3234
     2.4019   2.4346   2.4474   2.4562   2.4621   2.4838   2.4926   2.5212
     2.5653   2.6180   2.6945   2.7758   2.8109   2.8213   2.8714   2.8788
     2.9593   3.0193   3.0209   3.0565   3.0718   3.1359   3.1564   3.1613
     3.1885   3.2815   3.2926   3.2994   3.3902   3.4144   3.4249   3.4421
     3.4900   3.5087   3.5129   3.5502   3.5655   3.6015   3.6199   3.6285
     3.6454   3.7081   3.7558   3.7803   3.8448   3.8449   3.8568   3.9091
     3.9832   3.9926   4.0108   4.0291   4.0322   4.0365   4.0589   4.0991
     4.1108   4.1126   4.1235   4.1617   4.1782   4.2043   4.2167   4.2318
     4.2545   4.2771   4.2921   4.2969   4.3854   4.4032   4.4765   4.4883
     4.5012   4.5636   4.6068   4.6342   4.7027   4.7268   4.7538   4.7636
     4.8178   4.8234   4.8621   4.8946   4.9107   4.9351   4.9396   5.0253
     5.0284   5.0450   5.0684   5.0758   5.0778   5.1322   5.1375   5.1856
     5.1892   5.1950   5.1994   5.2358   5.2422   5.2744   5.2778   5.3220
     5.3639   5.3976   5.4456   5.4590   5.4599   5.4776   5.4884   5.5471
     5.5552   5.6189   5.6336   5.6595   5.6674   5.6841   5.7013   5.7341
     5.7453   5.7786   5.7873   5.7888   5.8337   5.8345   5.8468   5.8614
     5.8688   5.8736   5.9094   5.9253   5.9356   5.9885   6.0077   6.0314
     6.0402   6.0502   6.0946   6.1304   6.1359   6.1386   6.1417   6.1780
     6.2046   6.2233   6.2262   6.2311   6.2488   6.3005   6.3169   6.3178
     6.3634   6.3662   6.3774   6.3818   6.3847   6.3966   6.4222   6.4475
     6.4482   6.4901   6.5429   6.5721   6.6031   6.6121   6.6287   6.6295
     6.6681   6.6817   6.7139   6.7148   6.7299   6.7362   6.7482   6.7724
     6.8110   6.8407   6.8411   6.8463   6.8947   6.9137   6.9163   6.9355
     6.9723   6.9864   6.9929   7.0097   7.0337   7.0458   7.0860   7.0978
     7.1280   7.1420   7.1634   7.1673   7.1809   7.1964   7.2225   7.2248
     7.2398   7.2732   7.2903   7.2995   7.3199   7.3286   7.3473   7.3513
     7.3730   7.3976   7.4204   7.4348   7.4667   7.4837   7.4937   7.5323
     7.5410   7.5661   7.5685   7.5804   7.6031   7.6167   7.6304   7.6532
     7.7033   7.7103   7.7214   7.7343   7.7490   7.7796   7.7975   7.7976
     7.8219   7.8562   7.8818   7.8909   7.8918   7.9027   7.9114   7.9199
     7.9538   7.9582   7.9994   8.0376   8.0397   8.0410   8.0494   8.0519
     8.0616   8.0725   8.0984   8.1162   8.1624   8.1916   8.2225   8.2570
     8.2642   8.2930   8.2931   8.2967   8.3010   8.3150   8.3190   8.3322
     8.3401   8.3674   8.3715   8.4050

          k = 0.0000 0.0000-0.0293 (147164 PWs)   bands (ev):

   -21.3902 -21.3065 -21.0783 -20.8521 -20.6042 -20.5764 -20.5298 -20.2969
   -20.2500 -20.1071 -19.8627 -19.6311 -19.5835 -19.2176 -19.1504 -19.1156
   -18.9208 -18.8423 -18.7891 -18.7708 -18.5647 -18.3659 -18.2147 -18.0653
   -18.0575 -17.6301 -17.4293 -17.3612 -17.2135 -17.1897 -17.1809 -17.0184
   -16.9814 -16.9175 -16.7335 -16.6443 -16.6406 -16.5161 -16.2570 -16.2080
   -16.1956 -15.8594 -15.5482 -15.3387 -14.9420 -14.8698 -14.7374 -14.6039
   -14.5496 -14.4929 -14.2239 -14.2105 -14.1145 -14.0647 -14.0619 -14.0572
   -13.7888 -13.7868 -13.7136 -13.5500 -13.2426 -13.2422 -13.1321 -12.8855
   -12.7195 -12.3429 -12.3306 -12.1536 -12.0989 -11.9505 -11.8027 -11.7965
   -11.7633 -11.4928 -11.4894 -11.4287 -11.4009 -11.3223 -11.1294 -11.0790
   -10.8600 -10.7054 -10.6898 -10.6557 -10.5916 -10.3704 -10.3377 -10.1762
   -10.0822 -10.0606 -10.0174  -9.9877  -9.8661  -9.8599  -9.4771  -9.4770
    -9.4453  -9.4292  -9.3953  -9.3822  -9.3691  -9.2368  -9.2014  -9.1146
    -9.0890  -9.0664  -9.0512  -8.8101  -8.8037  -8.7651  -8.7460  -8.7227
    -8.7034  -8.6611  -8.6556  -8.5107  -8.5017  -8.4347  -8.4219  -8.4180
    -8.3650  -8.2124  -8.2069  -8.1327  -8.0971  -8.0804  -7.9601  -7.9197
    -7.8931  -7.8492  -7.7939  -7.7675  -7.7460  -7.6947  -7.6357  -7.5778
    -7.5500  -7.4425  -7.3736  -7.3124  -7.3121  -7.2018  -7.1523  -7.1300
    -6.9452  -6.9377  -6.8693  -6.8244  -6.7804  -6.6787  -6.6343  -6.6275
    -6.5188  -6.5079  -6.4790  -6.4711  -6.3407  -6.1930  -6.0811  -6.0113
    -5.9789  -5.9063  -5.8236  -5.6894  -5.6392  -5.5632  -5.4844  -5.3467
    -5.2548  -5.0820  -5.0702  -4.9139  -4.8970  -4.8393  -4.7734  -4.7034
    -4.6689  -4.6321  -4.6113  -4.4922  -4.3847  -4.3125  -3.8347  -3.7080
    -3.6950  -3.3284  -3.0156  -2.6653  -1.7881  -1.4757  -0.8083  -0.7164
    -0.5885  -0.4767  -0.3527  -0.1614  -0.0058   0.0487   0.0866   0.1249
     0.1745   0.3340   0.4833   0.5539   0.8104   0.8589   0.8776   0.8965
     0.9188   0.9842   1.0806   1.2534   1.2709   1.3173   1.3657   1.4899
     1.5506   1.6311   1.6596   1.6831   1.7739   1.8626   1.9402   2.0706
     2.0762   2.1847   2.2144   2.2211   2.2263   2.2545   2.3109   2.3221
     2.4051   2.4411   2.4477   2.4515   2.4579   2.4820   2.4935   2.5183
     2.5661   2.6173   2.6936   2.7764   2.8127   2.8230   2.8691   2.8760
     2.9593   3.0190   3.0221   3.0570   3.0847   3.1354   3.1499   3.1585
     3.1875   3.2840   3.2952   3.2979   3.3907   3.4136   3.4217   3.4374
     3.4901   3.5112   3.5177   3.5586   3.5782   3.5883   3.6141   3.6206
     3.6450   3.7051   3.7550   3.7902   3.8375   3.8458   3.8811   3.8857
     3.9846   3.9917   4.0120   4.0298   4.0308   4.0374   4.0623   4.1084
     4.1090   4.1122   4.1221   4.1651   4.1828   4.1948   4.2189   4.2301
     4.2549   4.2714   4.2904   4.3149   4.3614   4.3999   4.4754   4.4883
     4.5077   4.5583   4.6116   4.6344   4.7023   4.7274   4.7589   4.7649
     4.8145   4.8191   4.8656   4.9127   4.9140   4.9235   4.9284   5.0265
     5.0385   5.0412   5.0555   5.0772   5.0774   5.1392   5.1408   5.1830
     5.1864   5.1900   5.1958   5.2346   5.2469   5.2772   5.2777   5.3267
     5.3592   5.3968   5.4460   5.4636   5.4665   5.4772   5.4881   5.5431
     5.5533   5.6195   5.6287   5.6686   5.6767   5.6846   5.7010   5.7271
     5.7291   5.7834   5.7925   5.7934   5.8375   5.8419   5.8461   5.8652
     5.8706   5.8732   5.8887   5.9391   5.9540   5.9545   6.0023   6.0316
     6.0422   6.0473   6.0941   6.1297   6.1344   6.1484   6.1648   6.1885
     6.1925   6.2058   6.2156   6.2323   6.2477   6.2994   6.3287   6.3557
     6.3587   6.3589   6.3675   6.3775   6.3794   6.3933   6.4027   6.4447
     6.4469   6.4899   6.5422   6.5787   6.6117   6.6282   6.6299   6.6315
     6.6344   6.6803   6.7167   6.7173   6.7319   6.7397   6.7448   6.7735
     6.8141   6.8365   6.8406   6.8506   6.8918   6.9146   6.9349   6.9514
     6.9705   6.9745   6.9867   7.0131   7.0300   7.0511   7.0784   7.1020
     7.1270   7.1383   7.1620   7.1628   7.1823   7.1988   7.2241   7.2378
     7.2431   7.2749   7.2786   7.2953   7.3261   7.3280   7.3504   7.3519
     7.3822   7.3967   7.4037   7.4237   7.4656   7.4867   7.4901   7.5334
     7.5415   7.5666   7.5780   7.5786   7.6083   7.6125   7.6217   7.6597
     7.6963   7.7162   7.7246   7.7353   7.7386   7.7774   7.7957   7.7966
     7.8311   7.8599   7.8846   7.8877   7.8899   7.9039   7.9056   7.9215
     7.9733   7.9754   7.9787   8.0285   8.0411   8.0467   8.0471   8.0558
     8.0643   8.0680   8.0959   8.1143   8.1541   8.1959   8.2152   8.2571
     8.2905   8.2911   8.2952   8.3016   8.3047   8.3078   8.3103   8.3181
     8.3429   8.3625   8.3741   8.4034

     the Fermi energy is    -2.3642 ev

     Writing output data file ls2.save/

     init_run     :     22.50s CPU     23.30s WALL (       1 calls)
     electrons    :  11505.15s CPU  11640.90s WALL (       1 calls)

     Called by init_run:
     wfcinit      :      0.00s CPU      0.00s WALL (       1 calls)
     potinit      :      1.34s CPU      1.54s WALL (       1 calls)
     hinit0       :     16.87s CPU     17.03s WALL (       1 calls)

     Called by electrons:
     c_bands      :  11505.13s CPU  11640.66s WALL (       1 calls)
     v_of_rho     :      1.05s CPU      1.18s WALL (       1 calls)
     newd         :      1.08s CPU      1.46s WALL (       1 calls)

     Called by c_bands:
     init_us_2    :      1.47s CPU      1.64s WALL (      26 calls)
     cegterg      :  11227.61s CPU  11350.20s WALL (      74 calls)

     Called by sum_band:

     Called by *egterg:
     h_psi        :   4094.71s CPU   4153.11s WALL (    1175 calls)
     s_psi        :    499.31s CPU    502.40s WALL (    1175 calls)
     g_psi        :     18.48s CPU     18.62s WALL (    1075 calls)
     cdiaghg      :   3226.03s CPU   3237.79s WALL (    1101 calls)

     Called by h_psi:
     h_psi:pot    :   4072.23s CPU   4122.74s WALL (    1175 calls)
     h_psi:calbec :    463.84s CPU    469.65s WALL (    1175 calls)
     vloc_psi     :   3116.16s CPU   3157.85s WALL (    1175 calls)
     add_vuspsi   :    492.20s CPU    494.85s WALL (    1175 calls)

     General routines
     calbec       :    463.84s CPU    469.56s WALL (    1175 calls)
     fft          :      1.06s CPU      1.18s WALL (      14 calls)
     ffts         :      0.01s CPU      0.01s WALL (       1 calls)
     fftw         :   2447.96s CPU   2479.55s WALL (  559080 calls)
     interpolate  :      0.05s CPU      0.06s WALL (       1 calls)
     davcio       :      0.00s CPU      8.67s WALL (      52 calls)

     Parallel routines
     fft_scatt_xy :    560.80s CPU    567.73s WALL (  559095 calls)
     fft_scatt_yz :    339.04s CPU    346.36s WALL (  559095 calls)

     PWSCF        :     3h12m CPU       12h 3m WALL

      20h

   This run was terminated on:  12:13:49  16Apr2021            

=------------------------------------------------------------------------------=
   JOB DONE.
=------------------------------------------------------------------------------=
