
     Program PWSCF v.6.3 starts on 23Apr2021 at  5:18:25 

     This program is part of the open-source Quantum ESPRESSO suite
     for quantum simulation of materials; please cite
         "P. Giannozzi et al., J. Phys.:Condens. Matter 21 395502 (2009);
         "P. Giannozzi et al., J. Phys.:Condens. Matter 29 465901 (2017);
          URL http://www.quantum-espresso.org", 
     in publications or presentations arising from this work. More details at
     http://www.quantum-espresso.org/quote

     Parallel version (MPI), running on    16 processors
     R & G space division:  proc/nbgrp/npool/nimage =      16
     Waiting for input...
     Reading input from standard input
     Message from routine read_cards :
     DEPRECATED: no units specified in CELL_PARAMETERS card

     Current dimensions of program PWSCF are:
     Max number of different atomic species (ntypx) = 10
     Max number of k-points (npk) =  40000
     Max angular momentum in pseudopotentials (lmaxx) =  3

     Atomic positions and unit cell read from directory:
     /home/zfwang/scratch/GNRDATASET/AGNR/LS7_2_11_2_a/LS7_2_11_2_a.save/


     Subspace diagonalization in iterative solution of the eigenvalue problem:
     a serial algorithm will be used


     Parallelization info
     --------------------
     sticks:   dense  smooth     PW     G-vecs:    dense   smooth      PW
     Min        2556     852    219               382876    73664    9645
     Max        2557     853    221               382881    73669    9648
     Sum       40909   13645   3521              6126037  1178677  154333



     bravais-lattice index     =            0
     lattice parameter (alat)  =       1.8897  a.u.
     unit-cell volume          =   34497.4860 (a.u.)^3
     number of atoms/cell      =           92
     number of atomic types    =            2
     number of electrons       =       308.00
     number of Kohn-Sham states=          500
     kinetic-energy cutoff     =      40.0000  Ry
     charge density cutoff     =     480.0000  Ry
     Exchange-correlation      = PBE ( 1  4  3  4 0 0)

     celldm(1)=  18.897261  celldm(2)=   3.000000  celldm(3)=   1.704000
     celldm(4)=   0.000000  celldm(5)=   0.000000  celldm(6)=   0.000000

     crystal axes: (cart. coord. in units of alat)
               a(1) = (  10.000000   0.000000   0.000000 )  
               a(2) = (   0.000000  30.000000   0.000000 )  
               a(3) = (   0.000000   0.000000  17.040000 )  

     reciprocal axes: (cart. coord. in units 2 pi/alat)
               b(1) = (  0.100000  0.000000  0.000000 )  
               b(2) = (  0.000000  0.033333  0.000000 )  
               b(3) = (  0.000000  0.000000  0.058685 )  


     PseudoPot. # 1 for C  read from file:
     /home/zfwang/hp_home/MySoftware/qe-6.3/pseudo/C.pbe-n-rrkjus_psl.0.1.UPF
     MD5 check sum: fff530ed632a789b3b184014e67dd7f1
     Pseudo is Ultrasoft + core correction, Zval =  4.0
     Generated using "atomic" code by A. Dal Corso v.5.0.2 svn rev. 9415
     Using radial grid of 1073 points,  4 beta functions with: 
                l(1) =   0
                l(2) =   0
                l(3) =   1
                l(4) =   1
     Q(r) pseudized with 0 coefficients 


     PseudoPot. # 2 for H  read from file:
     /home/zfwang/hp_home/MySoftware/qe-6.3/pseudo/H.pbe-rrkjus_psl.0.1.UPF
     MD5 check sum: e164a6907b691c6980f16942be34de84
     Pseudo is Ultrasoft, Zval =  1.0
     Generated using "atomic" code by A. Dal Corso v.5.0.2 svn rev. 9415
     Using radial grid of  929 points,  2 beta functions with: 
                l(1) =   0
                l(2) =   0
     Q(r) pseudized with 0 coefficients 


     atomic species   valence    mass     pseudopotential
        C              4.00    12.01070     C ( 1.00)
        H              1.00     1.00794     H ( 1.00)

     No symmetry found



   Cartesian axes

     site n.     atom                  positions (alat units)
         1           C   tau(   1) = (   4.9999994   8.7879678   7.1704634  )
         2           C   tau(   2) = (   5.0000008   8.7387323  11.2294329  )
         3           C   tau(   3) = (   4.9999998  10.0292329   7.8059166  )
         4           C   tau(   4) = (   5.0000002   9.9173716  11.9305249  )
         5           C   tau(   5) = (   4.9999991   8.7387299   5.8105816  )
         6           C   tau(   6) = (   5.0000010   8.7879604   9.8695234  )
         7           C   tau(   7) = (   4.9999982  11.3883120   2.7160055  )
         8           C   tau(   8) = (   4.9999994  11.2601377   7.0955304  )
         9           C   tau(   9) = (   5.0000005  11.2206461  11.3662784  )
        10           C   tau(  10) = (   5.0000011  11.3927711  15.6659899  )
        11           C   tau(  11) = (   4.9999990  12.5389274   3.5313441  )
        12           C   tau(  12) = (   4.9999997  12.5123221   7.8070136  )
        13           C   tau(  13) = (   5.0000006  12.4933379  12.0824073  )
        14           C   tau(  14) = (   5.0000010  12.6025885  16.3410145  )
        15           C   tau(  15) = (   4.9999993   9.9173804   5.1094735  )
        16           C   tau(  16) = (   5.0000005  10.0292397   9.2340850  )
        17           C   tau(  17) = (   5.0000000  11.3927749   1.3738795  )
        18           C   tau(  18) = (   4.9999991  11.2206446   5.6737255  )
        19           C   tau(  19) = (   5.0000004  11.2601335   9.9444623  )
        20           C   tau(  20) = (   5.0000012  11.3883439  14.3241279  )
        21           C   tau(  21) = (   4.9999998  13.7779854   2.8511918  )
        22           C   tau(  22) = (   4.9999996  13.7468596   7.1041243  )
        23           C   tau(  23) = (   5.0000006  13.7336265  11.3693603  )
        24           C   tau(  24) = (   5.0000009  13.7918224  15.6089189  )
        25           C   tau(  25) = (   4.9999999  15.0000009   3.5686217  )
        26           C   tau(  26) = (   4.9999999  15.0000002   7.8077455  )
        27           C   tau(  27) = (   5.0000008  14.9999990  12.0624620  )
        28           C   tau(  28) = (   5.0000008  14.9999993  16.3324304  )
        29           C   tau(  29) = (   5.0000009  12.6025908   0.6990205  )
        30           C   tau(  30) = (   4.9999990  12.4933313   4.9575916  )
        31           C   tau(  31) = (   5.0000001  12.5123227   9.2329863  )
        32           C   tau(  32) = (   5.0000009  12.5389142  13.5086301  )
        33           C   tau(  33) = (   5.0000005  13.7918119   1.4310434  )
        34           C   tau(  34) = (   4.9999993  13.7336330   5.6706432  )
        35           C   tau(  35) = (   5.0000002  13.7468609   9.9358729  )
        36           C   tau(  36) = (   5.0000008  13.7779939  14.1888483  )
        37           C   tau(  37) = (   5.0000002  16.2220120   2.8511888  )
        38           C   tau(  38) = (   4.9999998  16.2531399   7.1041244  )
        39           C   tau(  39) = (   5.0000006  16.2663757  11.3693608  )
        40           C   tau(  40) = (   5.0000007  16.2081788  15.6089157  )
        41           C   tau(  41) = (   4.9999994  17.4610755   3.5313456  )
        42           C   tau(  42) = (   4.9999997  17.4876782   7.8070128  )
        43           C   tau(  43) = (   5.0000005  17.5066604  12.0824059  )
        44           C   tau(  44) = (   5.0000005  17.3974097  16.3410174  )
        45           C   tau(  45) = (   5.0000007  14.9999989   0.7075836  )
        46           C   tau(  46) = (   4.9999996  14.9999991   4.9775423  )
        47           C   tau(  47) = (   5.0000000  15.0000001   9.2322562  )
        48           C   tau(  48) = (   5.0000007  15.0000008  13.4713645  )
        49           C   tau(  49) = (   5.0000006  16.2081901   1.4310461  )
        50           C   tau(  50) = (   4.9999997  16.2663692   5.6706427  )
        51           C   tau(  51) = (   5.0000002  16.2531387   9.9358726  )
        52           C   tau(  52) = (   5.0000007  16.2220035  14.1888516  )
        53           C   tau(  53) = (   4.9999978  18.6116816   2.7159893  )
        54           C   tau(  54) = (   4.9999996  18.7398622   7.0955311  )
        55           C   tau(  55) = (   5.0000000  18.7793533  11.3662792  )
        56           C   tau(  56) = (   5.0000005  18.6072287  15.6659712  )
        57           C   tau(  57) = (   4.9999994  19.9707670   7.8059163  )
        58           C   tau(  58) = (   4.9999994  20.0826295  11.9305252  )
        59           C   tau(  59) = (   5.0000006  17.3974068   0.6990178  )
        60           C   tau(  60) = (   4.9999999  17.5066672   4.9575930  )
        61           C   tau(  61) = (   5.0000000  17.4876775   9.2329869  )
        62           C   tau(  62) = (   5.0000009  17.4610886  13.5086282  )
        63           C   tau(  63) = (   4.9999996  18.6072252   1.3738966  )
        64           C   tau(  64) = (   5.0000004  18.7793548   5.6737248  )
        65           C   tau(  65) = (   4.9999999  18.7398662   9.9444613  )
        66           C   tau(  66) = (   5.0000012  18.6116496  14.3241459  )
        67           C   tau(  67) = (   4.9999992  21.2120327   7.1704637  )
        68           C   tau(  68) = (   4.9999992  21.2612668  11.2294339  )
        69           C   tau(  69) = (   5.0000017  20.0826208   5.1094731  )
        70           C   tau(  70) = (   4.9999995  19.9707602   9.2340853  )
        71           C   tau(  71) = (   5.0000003  21.2612694   5.8105810  )
        72           C   tau(  72) = (   4.9999991  21.2120403   9.8695227  )
        73           H   tau(  73) = (   4.9999996   7.8547426   7.7138908  )
        74           H   tau(  74) = (   5.0000008   7.7918597  11.7696296  )
        75           H   tau(  75) = (   4.9999991   7.7918621   5.2703704  )
        76           H   tau(  76) = (   5.0000012   7.8547446   9.3261132  )
        77           H   tau(  77) = (   4.9999994  22.1452574   7.7138908  )
        78           H   tau(  78) = (   4.9999989  22.2081404  11.7696296  )
        79           H   tau(  79) = (   5.0000005  22.2081381   5.2703704  )
        80           H   tau(  80) = (   4.9999985  22.1452554   9.3261133  )
        81           H   tau(  81) = (   4.9999995   9.6808687  12.9612037  )
        82           H   tau(  82) = (   4.9999957  10.4065048   3.0868915  )
        83           H   tau(  83) = (   5.0000011  10.4357206  16.1730729  )
        84           H   tau(  84) = (   5.0000002   9.6808708   4.0787943  )
        85           H   tau(  85) = (   4.9999997  10.4357371   0.8669433  )
        86           H   tau(  86) = (   5.0000015  10.4064757  13.9530976  )
        87           H   tau(  87) = (   4.9999940  19.5934994   3.0868937  )
        88           H   tau(  88) = (   5.0000005  19.5642813  16.1730746  )
        89           H   tau(  89) = (   4.9999985  20.3191313  12.9612032  )
        90           H   tau(  90) = (   4.9999988  19.5642645   0.8669418  )
        91           H   tau(  91) = (   5.0000030  19.5935287  13.9530954  )
        92           H   tau(  92) = (   5.0000052  20.3191294   4.0787948  )

     number of k points=    26  Marzari-Vanderbilt smearing, width (Ry)=  0.0100
                       cart. coord. in units 2pi/alat
        k(    1) = (   0.0000000   0.0000000   0.0000000), wk =   0.0400000
        k(    2) = (   0.0000000   0.0000000   0.0011737), wk =   0.0800000
        k(    3) = (   0.0000000   0.0000000   0.0023474), wk =   0.0800000
        k(    4) = (   0.0000000   0.0000000   0.0035211), wk =   0.0800000
        k(    5) = (   0.0000000   0.0000000   0.0046948), wk =   0.0800000
        k(    6) = (   0.0000000   0.0000000   0.0058685), wk =   0.0800000
        k(    7) = (   0.0000000   0.0000000   0.0070423), wk =   0.0800000
        k(    8) = (   0.0000000   0.0000000   0.0082160), wk =   0.0800000
        k(    9) = (   0.0000000   0.0000000   0.0093897), wk =   0.0800000
        k(   10) = (   0.0000000   0.0000000   0.0105634), wk =   0.0800000
        k(   11) = (   0.0000000   0.0000000   0.0117371), wk =   0.0800000
        k(   12) = (   0.0000000   0.0000000   0.0129108), wk =   0.0800000
        k(   13) = (   0.0000000   0.0000000   0.0140845), wk =   0.0800000
        k(   14) = (   0.0000000   0.0000000   0.0152582), wk =   0.0800000
        k(   15) = (   0.0000000   0.0000000   0.0164319), wk =   0.0800000
        k(   16) = (   0.0000000   0.0000000   0.0176056), wk =   0.0800000
        k(   17) = (   0.0000000   0.0000000   0.0187793), wk =   0.0800000
        k(   18) = (   0.0000000   0.0000000   0.0199531), wk =   0.0800000
        k(   19) = (   0.0000000   0.0000000   0.0211268), wk =   0.0800000
        k(   20) = (   0.0000000   0.0000000   0.0223005), wk =   0.0800000
        k(   21) = (   0.0000000   0.0000000   0.0234742), wk =   0.0800000
        k(   22) = (   0.0000000   0.0000000   0.0246479), wk =   0.0800000
        k(   23) = (   0.0000000   0.0000000   0.0258216), wk =   0.0800000
        k(   24) = (   0.0000000   0.0000000   0.0269953), wk =   0.0800000
        k(   25) = (   0.0000000   0.0000000   0.0281690), wk =   0.0800000
        k(   26) = (   0.0000000   0.0000000  -0.0293427), wk =   0.0400000

     Dense  grid:  6126037 G-vectors     FFT dimensions: ( 135, 400, 225)

     Smooth grid:  1178677 G-vectors     FFT dimensions: (  80, 240, 135)

     Estimated max dynamical RAM per process >       1.28 GB

     Estimated total dynamical RAM >      20.42 GB

     The potential is recalculated from file :
     /home/zfwang/scratch/GNRDATASET/AGNR/LS7_2_11_2_a/LS7_2_11_2_a.save/charge-density.dat


     negative rho (up, down):  3.939E-04 0.000E+00
     Starting wfcs are  308 randomized atomic wfcs +  192 random wfcs

     Band Structure Calculation
     Davidson diagonalization with overlap

     ethr =  3.25E-09,  avg # of iterations = 44.0

     total cpu time spent up to now is    10803.7 secs

     End of band structure calculation

          k = 0.0000 0.0000 0.0000 (147325 PWs)   bands (ev):

   -21.6670 -21.3507 -21.2217 -21.1273 -20.7327 -20.5736 -20.5303 -20.2808
   -20.1232 -19.8654 -19.8079 -19.7808 -19.3803 -19.3278 -19.0043 -18.7887
   -18.6862 -18.5846 -18.3589 -18.2093 -18.1712 -17.9261 -17.7145 -17.6671
   -17.5406 -17.3357 -17.2887 -17.1638 -16.9231 -16.8090 -16.5334 -16.3931
   -16.2775 -16.1850 -16.1491 -15.4685 -15.3885 -15.1519 -15.0614 -15.0265
   -14.8062 -14.6724 -14.5117 -14.3893 -14.2251 -14.1690 -14.1604 -13.7427
   -13.5651 -13.3252 -13.0257 -12.9752 -12.9593 -12.7594 -12.6569 -12.6462
   -12.4564 -12.3057 -12.2406 -12.2025 -12.0626 -11.8078 -11.6528 -11.5106
   -11.1505 -11.0709 -10.8426 -10.8323 -10.8118 -10.7893 -10.7603 -10.5763
   -10.4298 -10.3664 -10.3253  -9.9892  -9.9547  -9.7545  -9.7260  -9.7186
    -9.6911  -9.5807  -9.4864  -9.3933  -9.3490  -9.2359  -9.2180  -9.2166
    -9.1401  -9.1203  -9.1067  -9.0118  -8.9476  -8.9470  -8.8485  -8.6859
    -8.6743  -8.6504  -8.6038  -8.5876  -8.4542  -8.4475  -8.4445  -8.3728
    -8.2779  -8.0894  -8.0730  -8.0684  -7.9372  -7.8491  -7.7519  -7.6959
    -7.6371  -7.5943  -7.5682  -7.5559  -7.5437  -7.5067  -7.0991  -7.0872
    -7.0553  -6.9620  -6.8111  -6.7503  -6.7069  -6.6387  -6.6210  -6.6155
    -6.4551  -6.3596  -6.2831  -6.2191  -5.9900  -5.9461  -5.8121  -5.8049
    -5.7234  -5.5614  -5.4626  -5.4606  -5.2599  -5.2013  -5.1042  -5.1016
    -4.9974  -4.8407  -4.7641  -4.6155  -4.2807  -4.2473  -4.0700  -3.7835
    -3.4205  -2.9410  -1.9626  -1.3830  -1.2255  -0.7967  -0.7117  -0.6829
    -0.4821  -0.1582  -0.1522  -0.0068   0.2054   0.2114   0.3819   0.5816
     0.6044   0.6189   0.6235   0.9456   1.0375   1.0665   1.0720   1.0787
     1.1083   1.2866   1.3194   1.4013   1.4150   1.4543   1.4641   1.7364
     1.7714   1.7807   1.7992   1.8091   1.8693   1.8906   1.9173   1.9722
     1.9825   2.0985   2.1452   2.1502   2.2898   2.3439   2.3498   2.4662
     2.4982   2.5131   2.5358   2.5438   2.5463   2.5593   2.6724   2.7163
     2.7201   2.7257   2.7302   2.8521   2.8689   2.9218   2.9845   2.9932
     3.0109   3.0390   3.0584   3.0606   3.0831   3.0924   3.1555   3.1969
     3.2101   3.2362   3.3096   3.3443   3.4007   3.4068   3.4179   3.4238
     3.4388   3.4597   3.4834   3.4963   3.5100   3.5577   3.6141   3.6235
     3.6521   3.7146   3.7732   3.7878   3.8324   3.8549   3.8675   3.8886
     3.9382   3.9763   4.0035   4.0304   4.0339   4.0575   4.0821   4.1695
     4.2111   4.2427   4.2452   4.2487   4.2510   4.2823   4.3153   4.3319
     4.3523   4.3598   4.4586   4.4930   4.5192   4.5315   4.5381   4.5464
     4.6137   4.6422   4.6432   4.6493   4.6839   4.6897   4.6947   4.7074
     4.7690   4.7783   4.7902   4.8466   4.9122   4.9331   4.9337   4.9475
     4.9475   4.9888   5.0043   5.0311   5.0382   5.1001   5.1614   5.2057
     5.2165   5.2587   5.2744   5.3474   5.3517   5.3573   5.3747   5.3922
     5.3988   5.4044   5.4156   5.4374   5.4380   5.4459   5.4916   5.4975
     5.5071   5.5425   5.5516   5.5924   5.6371   5.6696   5.6957   5.7167
     5.7178   5.7299   5.7552   5.7588   5.7684   5.7743   5.7796   5.7803
     5.7888   5.8293   5.9286   5.9291   5.9313   5.9773   5.9988   5.9990
     6.0111   6.0178   6.0427   6.1179   6.1186   6.1292   6.1492   6.1994
     6.2414   6.2629   6.2664   6.2676   6.3001   6.3704   6.3841   6.3940
     6.4053   6.4530   6.4833   6.5337   6.5396   6.5459   6.5612   6.5826
     6.6013   6.6099   6.6254   6.6555   6.6814   6.6869   6.7169   6.7402
     6.7442   6.7638   6.8425   6.8524   6.8585   6.8741   6.8902   6.8993
     6.9015   6.9031   6.9207   6.9663   6.9778   6.9806   7.0046   7.0092
     7.0123   7.0425   7.0532   7.0783   7.0978   7.1071   7.1257   7.1262
     7.1316   7.1384   7.1437   7.1464   7.1822   7.2160   7.2192   7.2493
     7.2512   7.2891   7.2938   7.3004   7.3097   7.3130   7.3588   7.3617
     7.3826   7.4003   7.4323   7.4669   7.4907   7.5138   7.5223   7.5244
     7.5284   7.5631   7.5767   7.5842   7.6182   7.6379   7.6508   7.6769
     7.6947   7.7263   7.7398   7.7430   7.7769   7.7906   7.8061   7.8603
     7.8699   7.9146   7.9202   7.9362   7.9543   7.9586   7.9831   7.9928
     7.9966   8.0034   8.0351   8.0452   8.0501   8.0621   8.0920   8.0928
     8.1354   8.1413   8.1515   8.1730   8.1825   8.2437   8.2677   8.2739
     8.2797   8.2968   8.2991   8.3269   8.3447   8.3547   8.3805   8.3808
     8.3843   8.3948   8.4425   8.4758   8.5142   8.5492   8.5646   8.5670
     8.5963   8.6357   8.6369   8.6485   8.6592   8.6889   8.6898   8.7073
     8.7179   8.7262   8.7353   8.7588   8.7936   8.7973   8.8316   8.8363
     8.8554   8.8847   8.8929   8.9139   8.9155   8.9221   8.9360   8.9381
     8.9595   9.0029   9.0117   9.0138

          k = 0.0000 0.0000 0.0012 (147355 PWs)   bands (ev):

   -21.6669 -21.3521 -21.2201 -21.1272 -20.7332 -20.5738 -20.5295 -20.2840
   -20.1202 -19.8673 -19.8073 -19.7795 -19.3801 -19.3276 -19.0038 -18.7898
   -18.6860 -18.5870 -18.3617 -18.2029 -18.1719 -17.9264 -17.7196 -17.6633
   -17.5397 -17.3357 -17.2885 -17.1625 -16.9231 -16.8099 -16.5331 -16.3947
   -16.2780 -16.1845 -16.1502 -15.4726 -15.3854 -15.1503 -15.0586 -15.0263
   -14.8065 -14.6721 -14.5128 -14.3904 -14.2268 -14.1665 -14.1595 -13.7418
   -13.5648 -13.3257 -13.0269 -13.0165 -12.9228 -12.7613 -12.6544 -12.6457
   -12.4547 -12.3043 -12.2400 -12.2012 -12.0648 -11.8049 -11.6570 -11.5061
   -11.1502 -11.0716 -10.8585 -10.8353 -10.8132 -10.7758 -10.7579 -10.5752
   -10.4293 -10.3654 -10.3228  -9.9896  -9.9547  -9.7819  -9.7286  -9.7185
    -9.6644  -9.5833  -9.4841  -9.3918  -9.3510  -9.2363  -9.2192  -9.2157
    -9.1402  -9.1203  -9.1068  -9.0104  -8.9616  -8.9319  -8.8514  -8.6870
    -8.6736  -8.6483  -8.6045  -8.5887  -8.4533  -8.4477  -8.4431  -8.3708
    -8.2779  -8.0941  -8.0734  -8.0673  -7.9327  -7.8493  -7.7538  -7.7009
    -7.6328  -7.5927  -7.5776  -7.5474  -7.5431  -7.5065  -7.0984  -7.0869
    -7.0566  -6.9655  -6.8112  -6.7514  -6.7092  -6.6336  -6.6197  -6.6152
    -6.4575  -6.3582  -6.2840  -6.2189  -5.9949  -5.9458  -5.8056  -5.8053
    -5.7236  -5.5617  -5.4631  -5.4605  -5.2617  -5.2009  -5.1039  -5.1010
    -4.9970  -4.8409  -4.7630  -4.6159  -4.2882  -4.2402  -4.0697  -3.7838
    -3.4206  -2.9426  -1.9611  -1.3842  -1.2240  -0.7962  -0.7110  -0.6832
    -0.4820  -0.1585  -0.1521  -0.0080   0.2021   0.2126   0.3856   0.5818
     0.5986   0.6237   0.6243   0.9456   1.0311   1.0569   1.0708   1.0786
     1.1165   1.2942   1.3198   1.4015   1.4144   1.4392   1.4796   1.7332
     1.7568   1.7956   1.8006   1.8084   1.8704   1.8939   1.9141   1.9723
     1.9869   2.0991   2.1455   2.1483   2.2831   2.3484   2.3518   2.4656
     2.4977   2.5147   2.5330   2.5421   2.5430   2.5604   2.6728   2.7184
     2.7208   2.7275   2.7346   2.8523   2.8685   2.9103   2.9813   2.9948
     3.0212   3.0230   3.0591   3.0680   3.0807   3.1079   3.1554   3.1838
     3.2099   3.2489   3.3078   3.3402   3.3933   3.4027   3.4228   3.4264
     3.4363   3.4521   3.4818   3.4946   3.5298   3.5530   3.6151   3.6291
     3.6548   3.7148   3.7756   3.7872   3.8313   3.8484   3.8583   3.8978
     3.9444   3.9726   3.9928   4.0183   4.0336   4.0677   4.0962   4.1737
     4.2051   4.2282   4.2374   4.2474   4.2662   4.2893   4.3063   4.3418
     4.3481   4.3574   4.4705   4.4826   4.5184   4.5211   4.5372   4.5464
     4.6138   4.6161   4.6573   4.6599   4.6894   4.6941   4.6986   4.7115
     4.7722   4.7807   4.7932   4.8473   4.9026   4.9073   4.9353   4.9464
     4.9602   4.9907   5.0076   5.0320   5.0522   5.1001   5.1623   5.2074
     5.2181   5.2568   5.2746   5.3419   5.3448   5.3550   5.3741   5.3759
     5.3986   5.4048   5.4117   5.4252   5.4271   5.4716   5.4873   5.5002
     5.5175   5.5485   5.5656   5.5945   5.6380   5.6652   5.6885   5.6970
     5.7008   5.7208   5.7463   5.7591   5.7684   5.7842   5.7883   5.7913
     5.8225   5.8307   5.9189   5.9224   5.9379   5.9662   5.9947   5.9969
     6.0185   6.0271   6.0556   6.1182   6.1187   6.1310   6.1522   6.1965
     6.2342   6.2513   6.2626   6.2757   6.3085   6.3693   6.3867   6.3891
     6.4153   6.4528   6.4792   6.5255   6.5300   6.5355   6.5454   6.6081
     6.6111   6.6132   6.6217   6.6530   6.6816   6.6922   6.7223   6.7387
     6.7467   6.7476   6.8508   6.8550   6.8559   6.8639   6.8755   6.8797
     6.9202   6.9260   6.9293   6.9536   6.9766   6.9816   6.9965   7.0094
     7.0222   7.0375   7.0515   7.0791   7.0807   7.0983   7.1115   7.1137
     7.1247   7.1436   7.1655   7.1740   7.1872   7.2114   7.2148   7.2505
     7.2573   7.2901   7.2996   7.3054   7.3130   7.3136   7.3576   7.3626
     7.3859   7.4035   7.4339   7.4490   7.4626   7.4964   7.5259   7.5557
     7.5577   7.5587   7.5795   7.5802   7.6184   7.6519   7.6519   7.6786
     7.6893   7.7267   7.7413   7.7452   7.7680   7.7984   7.7986   7.8621
     7.8686   7.9127   7.9130   7.9445   7.9527   7.9558   7.9625   7.9890
     7.9955   7.9959   8.0320   8.0339   8.0654   8.0753   8.0970   8.1045
     8.1334   8.1394   8.1411   8.1663   8.1805   8.2498   8.2646   8.2742
     8.2761   8.3006   8.3128   8.3311   8.3337   8.3646   8.3773   8.3849
     8.3954   8.4053   8.4439   8.4737   8.5171   8.5403   8.5496   8.5888
     8.5916   8.6236   8.6258   8.6503   8.6717   8.6880   8.6936   8.7075
     8.7110   8.7154   8.7568   8.7593   8.7691   8.7856   8.8268   8.8336
     8.8628   8.8807   8.8946   8.9027   8.9119   8.9227   8.9333   8.9608
     8.9792   8.9982   9.0085   9.0135

          k = 0.0000 0.0000 0.0023 (147377 PWs)   bands (ev):

   -21.6665 -21.3559 -21.2154 -21.1271 -20.7348 -20.5743 -20.5270 -20.2929
   -20.1117 -19.8728 -19.8056 -19.7760 -19.3794 -19.3267 -19.0023 -18.7932
   -18.6854 -18.5942 -18.3682 -18.1854 -18.1739 -17.9271 -17.7316 -17.6552
   -17.5370 -17.3356 -17.2878 -17.1587 -16.9231 -16.8125 -16.5325 -16.3993
   -16.2796 -16.1828 -16.1533 -15.4843 -15.3763 -15.1458 -15.0503 -15.0259
   -14.8074 -14.6710 -14.5161 -14.3938 -14.2314 -14.1596 -14.1568 -13.7392
   -13.5639 -13.3271 -13.0678 -13.0304 -12.8865 -12.7669 -12.6497 -12.6408
   -12.4497 -12.3000 -12.2384 -12.1973 -12.0711 -11.7965 -11.6684 -11.4939
   -11.1495 -11.0738 -10.8885 -10.8440 -10.8165 -10.7536 -10.7516 -10.5712
   -10.4279 -10.3622 -10.3153  -9.9906  -9.9547  -9.8285  -9.7348  -9.7179
    -9.6212  -9.5905  -9.4781  -9.3874  -9.3566  -9.2372  -9.2264  -9.2091
    -9.1406  -9.1202  -9.1071  -9.0064  -8.9743  -8.9160  -8.8595  -8.6911
    -8.6701  -8.6425  -8.6066  -8.5918  -8.4506  -8.4483  -8.4388  -8.3651
    -8.2778  -8.1067  -8.0741  -8.0646  -7.9206  -7.8497  -7.7592  -7.7130
    -7.6226  -7.5921  -7.5884  -7.5414  -7.5357  -7.5055  -7.0963  -7.0860
    -7.0608  -6.9757  -6.8116  -6.7545  -6.7140  -6.6202  -6.6159  -6.6143
    -6.4639  -6.3546  -6.2867  -6.2182  -6.0075  -5.9448  -5.8077  -5.7872
    -5.7242  -5.5625  -5.4643  -5.4602  -5.2666  -5.2000  -5.1032  -5.0995
    -4.9955  -4.8415  -4.7599  -4.6170  -4.3030  -4.2264  -4.0689  -3.7847
    -3.4209  -2.9474  -1.9567  -1.3877  -1.2195  -0.7948  -0.7087  -0.6843
    -0.4817  -0.1593  -0.1519  -0.0116   0.1929   0.2163   0.3960   0.5823
     0.5885   0.6243   0.6332   0.9456   1.0186   1.0314   1.0562   1.0920
     1.1318   1.3133   1.3208   1.4020   1.4126   1.4206   1.4995   1.7242
     1.7388   1.8052   1.8064   1.8145   1.8737   1.9029   1.9064   1.9727
     1.9979   2.1009   2.1428   2.1463   2.2672   2.3575   2.3577   2.4636
     2.4959   2.5197   2.5259   2.5347   2.5370   2.5629   2.6739   2.7228
     2.7244   2.7324   2.7466   2.8529   2.8675   2.8868   2.9638   2.9942
     3.0189   3.0411   3.0493   3.0611   3.1102   3.1273   3.1552   3.1611
     3.2092   3.2695   3.3044   3.3295   3.3733   3.3989   3.4199   3.4326
     3.4418   3.4418   3.4636   3.5155   3.5405   3.5601   3.6185   3.6442
     3.6611   3.7152   3.7824   3.7851   3.8277   3.8328   3.8430   3.9128
     3.9584   3.9626   3.9705   3.9985   4.0328   4.0884   4.1226   4.1849
     4.1917   4.2099   4.2239   4.2371   4.2856   4.2953   4.3061   4.3225
     4.3531   4.3698   4.4659   4.4929   4.4967   4.5155   4.5220   4.5571
     4.5827   4.6157   4.6616   4.6894   4.6900   4.6925   4.7228   4.7240
     4.7792   4.7893   4.8014   4.8495   4.8703   4.8949   4.9118   4.9434
     4.9752   5.0010   5.0153   5.0346   5.0819   5.1011   5.1646   5.2118
     5.2231   5.2507   5.2749   5.3300   5.3306   5.3349   5.3514   5.3658
     5.3729   5.4147   5.4179   5.4212   5.4278   5.4629   5.4876   5.5186
     5.5440   5.5576   5.5972   5.6004   5.6404   5.6509   5.6634   5.6716
     5.6780   5.7093   5.7110   5.7567   5.7930   5.7942   5.8123   5.8226
     5.8378   5.8605   5.9049   5.9111   5.9426   5.9466   5.9837   5.9978
     6.0321   6.0447   6.0837   6.1189   6.1190   6.1369   6.1606   6.1839
     6.2263   6.2310   6.2618   6.2766   6.3246   6.3661   6.3793   6.4013
     6.4316   6.4458   6.4708   6.4888   6.5146   6.5241   6.5434   6.6026
     6.6137   6.6394   6.6435   6.6497   6.6786   6.7020   6.7165   6.7343
     6.7367   6.7544   6.8334   6.8407   6.8449   6.8647   6.8700   6.9015
     6.9184   6.9312   6.9476   6.9542   6.9695   6.9730   6.9845   7.0049
     7.0339   7.0449   7.0465   7.0534   7.0739   7.0908   7.1006   7.1010
     7.1095   7.1409   7.1822   7.2003   7.2090   7.2163   7.2173   7.2504
     7.2731   7.2927   7.2978   7.3138   7.3238   7.3259   7.3470   7.3680
     7.3977   7.3981   7.4141   7.4387   7.4517   7.4802   7.5273   7.5438
     7.5849   7.5851   7.5873   7.6071   7.6197   7.6540   7.6770   7.6778
     7.6864   7.7276   7.7433   7.7513   7.7551   7.7831   7.8080   7.8582
     7.8646   7.8973   7.9054   7.9320   7.9392   7.9442   7.9705   7.9811
     7.9922   7.9954   8.0054   8.0343   8.0710   8.0976   8.1003   8.1205
     8.1245   8.1294   8.1414   8.1576   8.1809   8.2444   8.2586   8.2806
     8.2867   8.3092   8.3168   8.3346   8.3511   8.3767   8.3867   8.3885
     8.4184   8.4261   8.4498   8.4685   8.5155   8.5249   8.5505   8.5712
     8.6032   8.6044   8.6174   8.6512   8.6840   8.6896   8.6903   8.6979
     8.7082   8.7098   8.7219   8.7614   8.7693   8.7850   8.8193   8.8283
     8.8605   8.8722   8.8865   8.8938   8.9036   8.9226   8.9408   8.9667
     9.0070   9.0093   9.0127   9.0211

          k = 0.0000 0.0000 0.0035 (147387 PWs)   bands (ev):

   -21.6659 -21.3618 -21.2081 -21.1269 -20.7372 -20.5753 -20.5230 -20.3060
   -20.0995 -19.8811 -19.8026 -19.7710 -19.3783 -19.3253 -18.9998 -18.7986
   -18.6848 -18.6059 -18.3750 -18.1774 -18.1605 -17.9283 -17.7464 -17.6466
   -17.5329 -17.3355 -17.2862 -17.1526 -16.9232 -16.8166 -16.5320 -16.4063
   -16.2823 -16.1803 -16.1581 -15.5023 -15.3615 -15.1393 -15.0371 -15.0252
   -14.8087 -14.6691 -14.5213 -14.3993 -14.2380 -14.1527 -14.1495 -13.7348
   -13.5624 -13.3296 -13.1213 -13.0360 -12.8597 -12.7759 -12.6491 -12.6234
   -12.4416 -12.2930 -12.2355 -12.1913 -12.0802 -11.7837 -11.6843 -11.4767
   -11.1482 -11.0773 -10.9218 -10.8575 -10.8204 -10.7432 -10.7346 -10.5630
   -10.4257 -10.3572 -10.3032  -9.9922  -9.9549  -9.8783  -9.7442  -9.7171
    -9.6010  -9.5774  -9.4698  -9.3809  -9.3650  -9.2381  -9.2371  -9.1992
    -9.1418  -9.1200  -9.1078  -9.0000  -8.9853  -8.9004  -8.8714  -8.6983
    -8.6633  -8.6341  -8.6096  -8.5967  -8.4493  -8.4462  -8.4320  -8.3563
    -8.2776  -8.1244  -8.0748  -8.0605  -7.9037  -7.8506  -7.7674  -7.7283
    -7.6103  -7.6079  -7.5827  -7.5384  -7.5246  -7.5033  -7.0928  -7.0846
    -7.0675  -6.9920  -6.8122  -6.7595  -6.7186  -6.6128  -6.6099  -6.6022
    -6.4736  -6.3501  -6.2914  -6.2171  -6.0234  -5.9432  -5.8111  -5.7620
    -5.7252  -5.5637  -5.4664  -5.4597  -5.2740  -5.1987  -5.1020  -5.0974
    -4.9931  -4.8424  -4.7547  -4.6188  -4.3200  -4.2112  -4.0675  -3.7862
    -3.4214  -2.9552  -1.9494  -1.3932  -1.2124  -0.7925  -0.7050  -0.6861
    -0.4813  -0.1606  -0.1515  -0.0174   0.1794   0.2222   0.4114   0.5775
     0.5833   0.6252   0.6422   0.9454   0.9960   1.0049   1.0403   1.1074
     1.1489   1.3225   1.3378   1.4023   1.4030   1.4097   1.5200   1.7109
     1.7209   1.8028   1.8134   1.8340   1.8792   1.8974   1.9158   1.9733
     2.0127   2.1039   2.1344   2.1476   2.2471   2.3664   2.3668   2.4603
     2.4908   2.5162   2.5253   2.5279   2.5294   2.5658   2.6751   2.7260
     2.7338   2.7397   2.7642   2.8538   2.8605   2.8661   2.9460   2.9717
     3.0309   3.0410   3.0597   3.0643   3.1370   3.1423   3.1461   3.1557
     3.2079   3.2794   3.3104   3.3153   3.3467   3.3968   3.4154   3.4270
     3.4343   3.4470   3.4597   3.5227   3.5397   3.5938   3.6245   3.6653
     3.6683   3.7159   3.7810   3.7930   3.8136   3.8214   3.8270   3.9281
     3.9440   3.9489   3.9653   3.9910   4.0315   4.1121   4.1483   4.1792
     4.1921   4.2001   4.2068   4.2215   4.2873   4.2920   4.3062   4.3276
     4.3541   4.3828   4.4574   4.4597   4.5053   4.5078   4.5271   4.5521
     4.5605   4.6189   4.6611   4.6900   4.6961   4.7262   4.7392   4.7422
     4.7836   4.8070   4.8135   4.8390   4.8523   4.8791   4.8929   4.9387
     4.9784   5.0173   5.0236   5.0385   5.1053   5.1162   5.1660   5.2170
     5.2320   5.2401   5.2694   5.2984   5.3130   5.3205   5.3326   5.3394
     5.3709   5.4007   5.4176   5.4331   5.4445   5.4471   5.4903   5.5312
     5.5493   5.5913   5.6082   5.6146   5.6278   5.6380   5.6440   5.6517
     5.6726   5.6735   5.7149   5.7496   5.8002   5.8126   5.8295   5.8510
     5.8592   5.8924   5.8985   5.9056   5.9263   5.9445   5.9700   6.0048
     6.0454   6.0636   6.1147   6.1195   6.1203   6.1458   6.1646   6.1727
     6.2094   6.2269   6.2601   6.2730   6.3407   6.3609   6.3735   6.4187
     6.4256   6.4468   6.4491   6.4584   6.5086   6.5154   6.5384   6.5932
     6.6096   6.6490   6.6637   6.6685   6.6761   6.6855   6.7086   6.7266
     6.7505   6.7712   6.8063   6.8172   6.8326   6.8688   6.8805   6.9076
     6.9139   6.9241   6.9326   6.9400   6.9764   6.9810   6.9889   7.0075
     7.0281   7.0367   7.0417   7.0639   7.0660   7.0684   7.0754   7.1111
     7.1153   7.1366   7.1900   7.1905   7.2116   7.2496   7.2501   7.2525
     7.2885   7.2924   7.3008   7.3157   7.3317   7.3383   7.3476   7.3483
     7.3689   7.4092   7.4373   7.4418   7.4464   7.4845   7.5144   7.5445
     7.5869   7.6007   7.6034   7.6204   7.6509   7.6584   7.6708   7.7005
     7.7054   7.7293   7.7426   7.7459   7.7604   7.7674   7.8120   7.8423
     7.8460   7.8749   7.8988   7.9222   7.9223   7.9349   7.9656   7.9745
     7.9912   7.9940   8.0062   8.0405   8.0739   8.0743   8.0956   8.1159
     8.1173   8.1265   8.1396   8.1818   8.2003   8.2308   8.2477   8.2850
     8.2986   8.3182   8.3283   8.3608   8.3730   8.3815   8.3896   8.4180
     8.4394   8.4424   8.4620   8.4700   8.4917   8.5361   8.5484   8.5505
     8.5829   8.5830   8.6406   8.6412   8.6487   8.6760   8.6888   8.7000
     8.7026   8.7056   8.7117   8.7629   8.7661   8.8038   8.8094   8.8241
     8.8409   8.8686   8.8778   8.8838   8.9033   8.9107   8.9307   8.9643
     9.0111   9.0130   9.0218   9.0320

          k = 0.0000 0.0000 0.0047 (147403 PWs)   bands (ev):

   -21.6651 -21.3692 -21.1987 -21.1266 -20.7405 -20.5767 -20.5176 -20.3217
   -20.0851 -19.8915 -19.7984 -19.7651 -19.3767 -19.3234 -18.9964 -18.8056
   -18.6849 -18.6215 -18.3796 -18.1822 -18.1309 -17.9300 -17.7621 -17.6391
   -17.5279 -17.3353 -17.2833 -17.1446 -16.9232 -16.8222 -16.5327 -16.4149
   -16.2859 -16.1774 -16.1636 -15.5253 -15.3415 -15.1318 -15.0243 -15.0195
   -14.8106 -14.6665 -14.5281 -14.4064 -14.2458 -14.1472 -14.1371 -13.7289
   -13.5603 -13.3331 -13.1762 -13.0434 -12.8438 -12.7878 -12.6501 -12.5958
   -12.4308 -12.2835 -12.2314 -12.1844 -12.0902 -11.7676 -11.7025 -11.4567
   -11.1467 -11.0824 -10.9560 -10.8746 -10.8243 -10.7336 -10.7221 -10.5492
   -10.4232 -10.3507 -10.2869  -9.9944  -9.9556  -9.9289  -9.7563  -9.7159
    -9.6138  -9.5357  -9.4609  -9.3752  -9.3732  -9.2497  -9.2379  -9.1867
    -9.1442  -9.1197  -9.1088  -8.9946  -8.9922  -8.8865  -8.8851  -8.7069
    -8.6539  -8.6242  -8.6132  -8.6029  -8.4508  -8.4404  -8.4232  -8.3454
    -8.2772  -8.1450  -8.0755  -8.0552  -7.8844  -7.8521  -7.7772  -7.7451
    -7.6246  -7.5975  -7.5772  -7.5341  -7.5144  -7.4991  -7.0882  -7.0826
    -7.0767  -7.0134  -6.8132  -6.7661  -6.7215  -6.6107  -6.6021  -6.5819
    -6.4853  -6.3464  -6.2979  -6.2156  -6.0389  -5.9409  -5.8158  -5.7328
    -5.7266  -5.5651  -5.4693  -5.4591  -5.2831  -5.1974  -5.1003  -5.0953
    -4.9897  -4.8433  -4.7479  -4.6214  -4.3380  -4.1957  -4.0656  -3.7882
    -3.4221  -2.9660  -1.9395  -1.4001  -1.2033  -0.7893  -0.6997  -0.6886
    -0.4806  -0.1626  -0.1511  -0.0249   0.1634   0.2299   0.4302   0.5663
     0.5846   0.6265   0.6508   0.9445   0.9549   0.9919   1.0243   1.1233
     1.1666   1.3247   1.3632   1.3846   1.4043   1.4059   1.5410   1.6950
     1.7033   1.7976   1.8254   1.8537   1.8866   1.8889   1.9311   1.9742
     2.0295   2.1083   2.1239   2.1495   2.2249   2.3735   2.3782   2.4560
     2.4801   2.5047   2.5193   2.5197   2.5392   2.5686   2.6759   2.7296
     2.7458   2.7483   2.7854   2.8350   2.8551   2.8648   2.9287   2.9501
     3.0128   3.0599   3.0687   3.0782   3.1177   3.1523   3.1688   3.1736
     3.2055   3.2732   3.2993   3.3185   3.3317   3.3955   3.4095   3.4117
     3.4297   3.4399   3.4790   3.5020   3.5658   3.6291   3.6327   3.6752
     3.6901   3.7168   3.7736   3.7944   3.8063   3.8111   3.8117   3.9170
     3.9341   3.9426   3.9514   4.0079   4.0295   4.1350   4.1516   4.1746
     4.1862   4.1911   4.2037   4.2183   4.2620   4.2812   4.3261   4.3405
     4.3516   4.3862   4.4302   4.4620   4.4880   4.4934   4.5327   4.5569
     4.5588   4.6185   4.6601   4.6876   4.7108   4.7482   4.7593   4.7607
     4.7799   4.8056   4.8284   4.8393   4.8525   4.8632   4.8914   4.9330
     4.9785   5.0286   5.0304   5.0432   5.1146   5.1507   5.1619   5.2188
     5.2249   5.2403   5.2453   5.2885   5.2961   5.2999   5.3173   5.3239
     5.3692   5.3849   5.4146   5.4330   5.4483   5.4678   5.4911   5.5069
     5.5742   5.5916   5.5920   5.6046   5.6110   5.6343   5.6426   5.6535
     5.6593   5.6922   5.7336   5.7375   5.8026   5.8185   5.8505   5.8556
     5.8914   5.8964   5.9040   5.9099   5.9362   5.9429   5.9589   6.0178
     6.0556   6.0820   6.1202   6.1225   6.1304   6.1388   6.1746   6.1823
     6.1964   6.2328   6.2569   6.2692   6.3540   6.3549   6.3695   6.4001
     6.4054   6.4361   6.4380   6.4662   6.4934   6.5266   6.5268   6.5804
     6.6090   6.6505   6.6615   6.6645   6.6803   6.6963   6.7094   6.7135
     6.7607   6.7880   6.7903   6.7953   6.8187   6.8781   6.8789   6.8840
     6.8981   6.9044   6.9110   6.9616   6.9821   6.9917   6.9935   7.0110
     7.0176   7.0194   7.0328   7.0521   7.0521   7.0732   7.0907   7.1228
     7.1320   7.1341   7.1806   7.1979   7.2156   7.2480   7.2719   7.2762
     7.2882   7.2937   7.2983   7.3122   7.3170   7.3183   7.3549   7.3781
     7.3817   7.4168   7.4230   7.4568   7.4801   7.5000   7.5044   7.5553
     7.5819   7.6054   7.6086   7.6246   7.6509   7.6758   7.7042   7.7081
     7.7318   7.7322   7.7385   7.7521   7.7543   7.7729   7.7900   7.8185
     7.8251   7.8742   7.8925   7.8940   7.9143   7.9277   7.9355   7.9743
     7.9895   8.0093   8.0196   8.0479   8.0522   8.0744   8.0846   8.1010
     8.1025   8.1260   8.1316   8.2203   8.2226   8.2254   8.2282   8.2890
     8.3064   8.3329   8.3571   8.3897   8.3899   8.3900   8.3975   8.4477
     8.4533   8.4553   8.4558   8.4708   8.4921   8.5296   8.5403   8.5457
     8.5689   8.5781   8.5799   8.6404   8.6468   8.6761   8.6791   8.6839
     8.7049   8.7054   8.7217   8.7643   8.7750   8.7844   8.7946   8.8220
     8.8482   8.8588   8.8640   8.8778   8.8998   8.9009   8.9068   8.9888
     9.0018   9.0083   9.0194   9.0325

          k = 0.0000 0.0000 0.0059 (147375 PWs)   bands (ev):

   -21.6640 -21.3776 -21.1878 -21.1263 -20.7444 -20.5785 -20.5108 -20.3389
   -20.0697 -19.9033 -19.7926 -19.7590 -19.3747 -19.3211 -18.9919 -18.8139
   -18.6876 -18.6388 -18.3809 -18.1885 -18.0986 -17.9318 -17.7778 -17.6331
   -17.5229 -17.3351 -17.2784 -17.1349 -16.9233 -16.8289 -16.5362 -16.4234
   -16.2906 -16.1768 -16.1670 -15.5517 -15.3169 -15.1235 -15.0231 -14.9989
   -14.8130 -14.6630 -14.5361 -14.4148 -14.2545 -14.1409 -14.1230 -13.7216
   -13.5577 -13.3378 -13.2320 -13.0522 -12.8376 -12.8023 -12.6519 -12.5601
   -12.4179 -12.2716 -12.2257 -12.1783 -12.0984 -11.7491 -11.7220 -11.4351
   -11.1453 -11.0890 -10.9898 -10.8943 -10.8277 -10.7235 -10.7170 -10.5295
   -10.4202 -10.3430 -10.2673  -9.9971  -9.9823  -9.9541  -9.7701  -9.7144
    -9.6281  -9.4974  -9.4524  -9.3866  -9.3652  -9.2628  -9.2355  -9.1725
    -9.1481  -9.1193  -9.1105  -9.0023  -8.9846  -8.8978  -8.8762  -8.7146
    -8.6433  -8.6162  -8.6138  -8.6099  -8.4528  -8.4333  -8.4128  -8.3330
    -8.2761  -8.1670  -8.0763  -8.0487  -7.8642  -7.8546  -7.7879  -7.7621
    -7.6419  -7.5850  -7.5734  -7.5283  -7.5051  -7.4922  -7.0882  -7.0824
    -7.0800  -7.0390  -6.8143  -6.7739  -6.7226  -6.6081  -6.5930  -6.5604
    -6.4986  -6.3463  -6.3045  -6.2137  -6.0517  -5.9379  -5.8219  -5.7284
    -5.7021  -5.5660  -5.4730  -5.4583  -5.2932  -5.1962  -5.0982  -5.0936
    -4.9852  -4.8443  -4.7396  -4.6245  -4.3567  -4.1803  -4.0631  -3.7907
    -3.4230  -2.9793  -1.9272  -1.4081  -1.1927  -0.7854  -0.6928  -0.6918
    -0.4796  -0.1651  -0.1505  -0.0338   0.1461   0.2389   0.4511   0.5551
     0.5863   0.6282   0.6586   0.9107   0.9419   0.9808   1.0084   1.1394
     1.1846   1.3271   1.3681   1.3865   1.4013   1.4060   1.5623   1.6778
     1.6861   1.7905   1.8413   1.8736   1.8816   1.8957   1.9477   1.9753
     2.0473   2.1119   2.1140   2.1521   2.2015   2.3780   2.3908   2.4511
     2.4648   2.4921   2.5088   2.5174   2.5526   2.5716   2.6758   2.7317
     2.7569   2.7597   2.8084   2.8133   2.8568   2.8643   2.9123   2.9302
     2.9952   3.0622   3.0743   3.0956   3.1139   3.1518   3.1884   3.2016
     3.2030   3.2663   3.2828   3.2916   3.3566   3.3900   3.3944   3.4027
     3.4279   3.4390   3.4796   3.4993   3.5928   3.6425   3.6650   3.6816
     3.7172   3.7173   3.7597   3.7790   3.7954   3.7983   3.8210   3.8911
     3.9203   3.9354   3.9555   4.0269   4.0301   4.1307   4.1570   4.1659
     4.1662   4.1860   4.2197   4.2333   4.2333   4.2754   4.3174   4.3465
     4.3709   4.3774   4.4080   4.4567   4.4744   4.4957   4.5242   4.5569
     4.5817   4.6132   4.6590   4.6876   4.7321   4.7381   4.7524   4.7818
     4.7883   4.8042   4.8449   4.8493   4.8543   4.8704   4.9055   4.9270
     4.9785   5.0331   5.0348   5.0484   5.1256   5.1456   5.1833   5.2056
     5.2127   5.2132   5.2602   5.2683   5.2841   5.2867   5.3098   5.3250
     5.3679   5.3693   5.4124   5.4260   5.4620   5.4734   5.4890   5.4916
     5.5565   5.5632   5.5669   5.6018   5.6071   5.6188   5.6584   5.6596
     5.6868   5.7141   5.7217   5.7671   5.8022   5.8240   5.8455   5.8710
     5.8861   5.9022   5.9057   5.9335   5.9384   5.9616   5.9730   6.0341
     6.0636   6.0985   6.1062   6.1210   6.1258   6.1399   6.1792   6.2024
     6.2129   6.2421   6.2511   6.2703   6.3456   6.3652   6.3667   6.3681
     6.3761   6.4137   6.4437   6.4808   6.4887   6.5048   6.5401   6.5663
     6.6076   6.6472   6.6516   6.6665   6.6752   6.6937   6.7076   6.7173
     6.7587   6.7703   6.7770   6.8048   6.8201   6.8500   6.8572   6.8738
     6.8891   6.9013   6.9108   6.9683   6.9847   6.9898   6.9970   6.9991
     7.0109   7.0120   7.0148   7.0439   7.0782   7.0783   7.1087   7.1287
     7.1365   7.1659   7.1701   7.2052   7.2180   7.2452   7.2515   7.2792
     7.2839   7.2871   7.2906   7.3021   7.3232   7.3270   7.3776   7.4034
     7.4070   7.4227   7.4305   7.4698   7.4886   7.5205   7.5293   7.5655
     7.5729   7.5907   7.6069   7.6485   7.6592   7.6825   7.6903   7.7306
     7.7323   7.7467   7.7476   7.7507   7.7582   7.7663   7.7902   7.7916
     7.8235   7.8725   7.8754   7.8863   7.8890   7.9055   7.9385   7.9760
     7.9840   8.0228   8.0233   8.0426   8.0561   8.0684   8.0723   8.0841
     8.1060   8.1205   8.1273   8.1947   8.2343   8.2382   8.2574   8.2953
     8.3038   8.3650   8.3880   8.3945   8.3974   8.4141   8.4190   8.4454
     8.4513   8.4599   8.4652   8.4817   8.4844   8.5002   8.5212   8.5386
     8.5677   8.5770   8.5922   8.6259   8.6306   8.6510   8.6826   8.6944
     8.7041   8.7144   8.7298   8.7521   8.7535   8.7814   8.7885   8.8215
     8.8333   8.8350   8.8540   8.8819   8.8910   8.9111   8.9126   8.9746
     9.0030   9.0085   9.0108   9.0199

          k = 0.0000 0.0000 0.0070 (147319 PWs)   bands (ev):

   -21.6626 -21.3866 -21.1757 -21.1259 -20.7489 -20.5810 -20.5029 -20.3567
   -20.0542 -19.9163 -19.7853 -19.7528 -19.3722 -19.3184 -18.9864 -18.8233
   -18.6970 -18.6528 -18.3791 -18.1962 -18.0648 -17.9334 -17.7930 -17.6284
   -17.5185 -17.3348 -17.2713 -17.1238 -16.9234 -16.8366 -16.5444 -16.4299
   -16.2962 -16.1822 -16.1641 -15.5806 -15.2884 -15.1146 -15.0216 -14.9764
   -14.8159 -14.6587 -14.5450 -14.4240 -14.2639 -14.1339 -14.1075 -13.7130
   -13.5544 -13.3438 -13.2884 -13.0620 -12.8386 -12.8187 -12.6544 -12.5193
   -12.4035 -12.2578 -12.2181 -12.1757 -12.1015 -11.7418 -11.7293 -11.4131
   -11.1449 -11.0973 -11.0220 -10.9156 -10.8302 -10.7181 -10.7133 -10.5054
   -10.4169 -10.3344 -10.2451 -10.0334  -9.9999  -9.9552  -9.7847  -9.7125
    -9.6437  -9.4644  -9.4457  -9.3987  -9.3574  -9.2748  -9.2299  -9.1569
    -9.1536  -9.1188  -9.1129  -9.0083  -8.9802  -8.9053  -8.8716  -8.7188
    -8.6365  -8.6176  -8.6139  -8.6035  -8.4555  -8.4254  -8.4010  -8.3201
    -8.2743  -8.1896  -8.0772  -8.0409  -7.8589  -7.8440  -7.7986  -7.7784
    -7.6600  -7.5730  -7.5722  -7.5207  -7.4967  -7.4822  -7.1017  -7.0769
    -7.0756  -7.0679  -6.8156  -6.7829  -6.7220  -6.6047  -6.5828  -6.5387
    -6.5129  -6.3536  -6.3082  -6.2114  -6.0605  -5.9340  -5.8293  -5.7305
    -5.6723  -5.5650  -5.4775  -5.4574  -5.3038  -5.1950  -5.0957  -5.0928
    -4.9798  -4.8451  -4.7300  -4.6283  -4.3761  -4.1650  -4.0599  -3.7937
    -3.4241  -2.9951  -1.9127  -1.4166  -1.1809  -0.7807  -0.6958  -0.6843
    -0.4784  -0.1684  -0.1498  -0.0437   0.1282   0.2489   0.4734   0.5440
     0.5883   0.6303   0.6657   0.8646   0.9361   0.9735   0.9927   1.1555
     1.2029   1.3277   1.3547   1.3961   1.4061   1.4081   1.5840   1.6605
     1.6693   1.7818   1.8610   1.8759   1.8936   1.9062   1.9648   1.9767
     2.0651   2.1000   2.1213   2.1553   2.1773   2.3799   2.4022   2.4463
     2.4494   2.4788   2.4970   2.5180   2.5669   2.5747   2.6743   2.7281
     2.7640   2.7751   2.8004   2.8311   2.8586   2.8656   2.8982   2.9123
     2.9781   3.0451   3.0809   3.1106   3.1283   3.1508   3.1955   3.2078
     3.2198   3.2666   3.2686   3.2727   3.3672   3.3813   3.3934   3.3951
     3.4291   3.4399   3.4564   3.5201   3.6199   3.6532   3.6881   3.7006
     3.7159   3.7420   3.7460   3.7665   3.7805   3.7813   3.8356   3.8678
     3.9083   3.9210   3.9653   4.0238   4.0535   4.1140   4.1388   4.1452
     4.1703   4.1922   4.2080   4.2397   4.2499   4.2680   4.2919   4.3514
     4.3671   4.3858   4.4046   4.4218   4.4868   4.5116   4.5191   4.5590
     4.5957   4.6052   4.6580   4.6944   4.7114   4.7254   4.7565   4.7842
     4.8058   4.8320   4.8392   4.8615   4.8659   4.9008   4.9219   4.9265
     4.9809   5.0328   5.0368   5.0533   5.1015   5.1492   5.1831   5.1958
     5.2004   5.2123   5.2386   5.2556   5.2774   5.2998   5.3075   5.3431
     5.3541   5.3669   5.4113   5.4212   5.4362   5.4723   5.4921   5.5072
     5.5248   5.5349   5.5367   5.5715   5.6109   5.6337   5.6684   5.6864
     5.7006   5.7046   5.7436   5.7939   5.8007   5.8400   5.8413   5.8675
     5.8812   5.8937   5.9163   5.9321   5.9697   5.9797   6.0078   6.0474
     6.0720   6.0888   6.1071   6.1222   6.1250   6.1313   6.1841   6.2313
     6.2352   6.2400   6.2550   6.2787   6.3340   6.3360   6.3489   6.3718
     6.3725   6.3948   6.4346   6.4730   6.4915   6.5016   6.5519   6.5531
     6.6014   6.6412   6.6477   6.6531   6.6727   6.6790   6.7074   6.7254
     6.7317   6.7557   6.7763   6.7918   6.8346   6.8352   6.8368   6.8510
     6.8781   6.9144   6.9269   6.9425   6.9630   6.9846   6.9980   7.0031
     7.0130   7.0157   7.0162   7.0389   7.0850   7.1088   7.1172   7.1285
     7.1601   7.1615   7.1928   7.2103   7.2166   7.2179   7.2404   7.2743
     7.2825   7.2896   7.2938   7.2943   7.3305   7.3399   7.3946   7.3979
     7.4297   7.4471   7.4755   7.4850   7.4880   7.5368   7.5453   7.5485
     7.5790   7.6026   7.6145   7.6591   7.6658   7.6790   7.6858   7.7125
     7.7226   7.7352   7.7492   7.7494   7.7644   7.7729   7.7934   7.8039
     7.8206   7.8595   7.8713   7.8776   7.8785   7.9058   7.9444   7.9765
     7.9780   8.0170   8.0275   8.0486   8.0526   8.0571   8.0695   8.0732
     8.1113   8.1282   8.1313   8.1686   8.2404   8.2444   8.2756   8.2935
     8.3184   8.3899   8.3976   8.4084   8.4124   8.4211   8.4248   8.4293
     8.4542   8.4559   8.4670   8.4711   8.4791   8.4922   8.5123   8.5309
     8.5936   8.6063   8.6065   8.6116   8.6131   8.6327   8.6813   8.6993
     8.7030   8.7215   8.7248   8.7353   8.7379   8.7732   8.7873   8.8046
     8.8215   8.8217   8.8519   8.8851   8.8986   8.9161   8.9219   8.9499
     8.9827   8.9922   9.0103   9.0150

          k = 0.0000 0.0000 0.0082 (147293 PWs)   bands (ev):

   -21.6611 -21.3961 -21.1627 -21.1254 -20.7538 -20.5842 -20.4940 -20.3746
   -20.0393 -19.9301 -19.7761 -19.7469 -19.3694 -19.3154 -18.9800 -18.8334
   -18.7166 -18.6596 -18.3744 -18.2055 -18.0313 -17.9339 -17.8073 -17.6249
   -17.5152 -17.3345 -17.2617 -17.1116 -16.9234 -16.8449 -16.5587 -16.4329
   -16.3026 -16.1896 -16.1587 -15.6112 -15.2566 -15.1050 -15.0199 -14.9531
   -14.8190 -14.6535 -14.5543 -14.4335 -14.2739 -14.1266 -14.0910 -13.7033
   -13.5506 -13.3513 -13.3452 -13.0724 -12.8446 -12.8367 -12.6577 -12.4763
   -12.3884 -12.2419 -12.2082 -12.1786 -12.0971 -11.7616 -11.7088 -11.3911
   -11.1475 -11.1073 -11.0501 -10.9379 -10.8317 -10.7239 -10.7031 -10.4788
   -10.4132 -10.3251 -10.2212 -10.0846 -10.0026  -9.9562  -9.7993  -9.7103
    -9.6605  -9.4417  -9.4390  -9.4111  -9.3489  -9.2839  -9.2207  -9.1607
    -9.1403  -9.1183  -9.1164  -9.0129  -8.9821  -8.9032  -8.8742  -8.7177
    -8.6386  -8.6255  -8.6016  -8.5938  -8.4589  -8.4174  -8.3882  -8.3072
    -8.2711  -8.2122  -8.0783  -8.0320  -7.8660  -7.8246  -7.8086  -7.7927
    -7.6785  -7.5738  -7.5616  -7.5113  -7.4892  -7.4695  -7.1170  -7.0993
    -7.0733  -7.0680  -6.8171  -6.7929  -6.7200  -6.6008  -6.5719  -6.5278
    -6.5172  -6.3694  -6.3080  -6.2089  -6.0649  -5.9294  -5.8380  -5.7329
    -5.6472  -5.5590  -5.4829  -5.4563  -5.3145  -5.1939  -5.0929  -5.0928
    -4.9737  -4.8457  -4.7194  -4.6327  -4.3962  -4.1500  -4.0562  -3.7972
    -3.4254  -3.0129  -1.8964  -1.4256  -1.1683  -0.7753  -0.7005  -0.6742
    -0.4769  -0.1723  -0.1491  -0.0544   0.1104   0.2595   0.4963   0.5333
     0.5907   0.6327   0.6720   0.8176   0.9265   0.9705   0.9773   1.1713
     1.2214   1.3213   1.3498   1.3904   1.4105   1.4208   1.6060   1.6438
     1.6529   1.7717   1.8716   1.8840   1.9136   1.9178   1.9785   1.9822
     2.0751   2.0958   2.1303   2.1528   2.1593   2.3792   2.4043   2.4419
     2.4434   2.4652   2.4849   2.5199   2.5780   2.5804   2.6715   2.7169
     2.7681   2.7913   2.7991   2.8470   2.8607   2.8699   2.8923   2.8967
     2.9617   3.0223   3.0884   3.1192   3.1450   3.1498   3.1890   3.2202
     3.2242   3.2517   3.2533   3.2993   3.3449   3.3872   3.3922   3.4023
     3.4328   3.4357   3.4415   3.5414   3.6454   3.6636   3.6956   3.7052
     3.7317   3.7337   3.7532   3.7612   3.7665   3.7778   3.8484   3.8486
     3.8980   3.9091   3.9702   4.0209   4.0773   4.0969   4.1192   4.1244
     4.1582   4.1879   4.2192   4.2300   4.2506   4.2751   4.2799   4.3374
     4.3685   4.3858   4.3875   4.4333   4.4941   4.5148   4.5333   4.5683
     4.5958   4.5963   4.6573   4.6784   4.6964   4.7095   4.7814   4.7848
     4.8300   4.8350   4.8446   4.8759   4.8922   4.9209   4.9223   4.9514
     4.9910   5.0282   5.0366   5.0571   5.0612   5.1590   5.1638   5.1780
     5.1836   5.2114   5.2295   5.2505   5.2672   5.3114   5.3321   5.3399
     5.3657   5.3680   5.3955   5.4102   5.4214   5.4740   5.4832   5.4924
     5.5027   5.5087   5.5362   5.5497   5.6163   5.6466   5.6787   5.6833
     5.7053   5.7213   5.7730   5.7980   5.7982   5.8477   5.8500   5.8714
     5.8811   5.8829   5.9245   5.9353   6.0034   6.0035   6.0385   6.0463
     6.0732   6.0908   6.1000   6.1241   6.1251   6.1408   6.1912   6.2210
     6.2450   6.2580   6.2817   6.2890   6.3111   6.3252   6.3287   6.3543
     6.3835   6.3986   6.4211   6.4357   6.4990   6.5179   6.5401   6.5594
     6.5930   6.6214   6.6375   6.6402   6.6490   6.6815   6.6993   6.7227
     6.7227   6.7397   6.7669   6.7809   6.8127   6.8309   6.8352   6.8382
     6.8903   6.9128   6.9253   6.9334   6.9442   6.9775   6.9993   7.0118
     7.0149   7.0162   7.0251   7.0374   7.0926   7.1106   7.1323   7.1400
     7.1617   7.1682   7.1926   7.2109   7.2114   7.2342   7.2470   7.2688
     7.2690   7.2971   7.3014   7.3025   7.3393   7.3484   7.3888   7.4070
     7.4432   7.4902   7.4949   7.5019   7.5035   7.5195   7.5545   7.5554
     7.5735   7.6249   7.6322   7.6399   7.6609   7.6847   7.6884   7.7119
     7.7216   7.7310   7.7348   7.7368   7.7576   7.7721   7.7855   7.8040
     7.8131   7.8685   7.8727   7.8754   7.9089   7.9141   7.9529   7.9660
     7.9790   8.0162   8.0245   8.0295   8.0416   8.0677   8.0686   8.0891
     8.1053   8.1205   8.1532   8.1622   8.2378   8.2555   8.2764   8.2775
     8.3471   8.3525   8.3994   8.4036   8.4096   8.4131   8.4230   8.4480
     8.4532   8.4536   8.4619   8.4803   8.4832   8.5093   8.5293   8.5348
     8.5856   8.6055   8.6080   8.6127   8.6311   8.6507   8.6690   8.6899
     8.7014   8.7028   8.7113   8.7394   8.7395   8.7618   8.7652   8.8145
     8.8208   8.8210   8.8545   8.8826   8.8826   8.9052   8.9316   8.9557
     8.9616   8.9725   8.9756   8.9859

          k = 0.0000 0.0000 0.0094 (147291 PWs)   bands (ev):

   -21.6593 -21.4057 -21.1489 -21.1248 -20.7589 -20.5882 -20.4841 -20.3923
   -20.0253 -19.9447 -19.7650 -19.7413 -19.3663 -19.3122 -18.9726 -18.8441
   -18.7431 -18.6616 -18.3673 -18.2162 -18.0014 -17.9303 -17.8205 -17.6222
   -17.5135 -17.3341 -17.2497 -17.0984 -16.9235 -16.8538 -16.5791 -16.4321
   -16.3099 -16.1973 -16.1525 -15.6427 -15.2223 -15.0947 -15.0178 -14.9300
   -14.8224 -14.6477 -14.5638 -14.4426 -14.2844 -14.1192 -14.0739 -13.6927
   -13.5462 -13.4022 -13.3601 -13.0832 -12.8557 -12.8538 -12.6617 -12.4335
   -12.3736 -12.2237 -12.1956 -12.1849 -12.0862 -11.7811 -11.6881 -11.3699
   -11.1568 -11.1192 -11.0701 -10.9604 -10.8320 -10.7329 -10.6932 -10.4520
   -10.4090 -10.3150 -10.1967 -10.1352 -10.0046  -9.9577  -9.8130  -9.7078
    -9.6786  -9.4413  -9.4238  -9.4235  -9.3378  -9.2892  -9.2091  -9.1694
    -9.1230  -9.1212  -9.1178  -9.0161  -8.9884  -8.8917  -8.8839  -8.7110
    -8.6447  -8.6335  -8.5849  -8.5844  -8.4633  -8.4097  -8.3745  -8.2947
    -8.2662  -8.2342  -8.0798  -8.0222  -7.8770  -7.8173  -7.8063  -7.8038
    -7.6976  -7.5777  -7.5511  -7.4998  -7.4825  -7.4546  -7.1340  -7.1327
    -7.0693  -7.0598  -6.8185  -6.8038  -6.7170  -6.5962  -6.5605  -6.5433
    -6.4965  -6.3914  -6.3059  -6.2062  -6.0651  -5.9238  -5.8479  -5.7356
    -5.6316  -5.5434  -5.4890  -5.4552  -5.3251  -5.1928  -5.0938  -5.0896
    -4.9672  -4.8462  -4.7079  -4.6376  -4.4168  -4.1353  -4.0518  -3.8010
    -3.4268  -3.0325  -1.8786  -1.4347  -1.1552  -0.7691  -0.7060  -0.6626
    -0.4751  -0.1770  -0.1482  -0.0656   0.0931   0.2704   0.5191   0.5232
     0.5935   0.6355   0.6773   0.7707   0.9146   0.9621   0.9704   1.1867
     1.2399   1.3082   1.3530   1.3845   1.4134   1.4299   1.6280   1.6287
     1.6372   1.7605   1.8682   1.9093   1.9301   1.9332   1.9808   2.0000
     2.0659   2.1111   2.1282   2.1412   2.1641   2.3760   2.3913   2.4383
     2.4515   2.4527   2.4727   2.5228   2.5816   2.5900   2.6681   2.7027
     2.7685   2.8057   2.8080   2.8448   2.8627   2.8776   2.8839   2.9056
     2.9462   2.9986   3.0969   3.1147   3.1489   3.1551   3.1874   3.2214
     3.2242   3.2414   3.2561   3.3242   3.3336   3.3790   3.3909   3.4092
     3.4146   3.4437   3.4524   3.5631   3.6659   3.6727   3.6847   3.7051
     3.7303   3.7391   3.7402   3.7444   3.7756   3.8097   3.8343   3.8586
     3.8891   3.9000   3.9679   4.0194   4.0785   4.0980   4.1030   4.1037
     4.1504   4.1746   4.2061   4.2235   4.2464   4.2687   4.3088   4.3149
     4.3505   4.3721   4.4074   4.4628   4.4955   4.5107   4.5544   4.5801
     4.5858   4.5918   4.6435   4.6569   4.6705   4.7269   4.7857   4.8056
     4.8393   4.8501   4.8511   4.8862   4.9209   4.9274   4.9288   4.9807
     5.0001   5.0194   5.0345   5.0382   5.0575   5.1355   5.1548   5.1648
     5.1762   5.1884   5.2181   5.2599   5.2732   5.3107   5.3284   5.3635
     5.3638   5.3699   5.3967   5.4048   5.4197   5.4488   5.4606   5.4711
     5.4866   5.4941   5.5433   5.5588   5.6228   5.6573   5.6641   5.6903
     5.7048   5.7486   5.7817   5.7966   5.8087   5.8355   5.8660   5.8692
     5.8727   5.9028   5.9176   5.9656   6.0256   6.0304   6.0324   6.0618
     6.0689   6.0805   6.1254   6.1256   6.1286   6.1568   6.1963   6.2026
     6.2544   6.2661   6.2949   6.2983   6.3091   6.3136   6.3172   6.3426
     6.3932   6.3963   6.4085   6.4199   6.5019   6.5267   6.5299   6.5567
     6.5859   6.5912   6.6188   6.6205   6.6417   6.6533   6.6889   6.7220
     6.7283   6.7348   6.7468   6.7750   6.7919   6.8188   6.8360   6.8415
     6.8833   6.9066   6.9085   6.9313   6.9614   6.9775   6.9902   7.0064
     7.0144   7.0182   7.0430   7.0449   7.0884   7.0988   7.1385   7.1557
     7.1700   7.1743   7.2052   7.2055   7.2261   7.2278   7.2570   7.2650
     7.2878   7.3057   7.3106   7.3189   7.3498   7.3521   7.3880   7.4087
     7.4569   7.4711   7.5088   7.5202   7.5283   7.5373   7.5428   7.5595
     7.5907   7.5995   7.6415   7.6472   7.6556   7.6922   7.6923   7.7131
     7.7191   7.7200   7.7257   7.7333   7.7620   7.7666   7.7681   7.7919
     7.8243   7.8579   7.8862   7.9044   7.9251   7.9466   7.9502   7.9631
     7.9789   8.0147   8.0196   8.0250   8.0337   8.0687   8.0843   8.1000
     8.1022   8.1115   8.1540   8.1921   8.2329   8.2566   8.2655   8.2737
     8.2855   8.3717   8.3871   8.3882   8.4013   8.4136   8.4246   8.4332
     8.4380   8.4498   8.4874   8.4982   8.5115   8.5246   8.5407   8.5531
     8.5635   8.6068   8.6167   8.6184   8.6385   8.6399   8.6520   8.6915
     8.7030   8.7036   8.7046   8.7182   8.7441   8.7458   8.7918   8.8111
     8.8195   8.8335   8.8387   8.8673   8.8840   8.8994   8.9288   8.9351
     8.9364   8.9396   8.9525   8.9584

          k = 0.0000 0.0000 0.0106 (147327 PWs)   bands (ev):

   -21.6573 -21.4154 -21.1344 -21.1242 -20.7641 -20.5933 -20.4735 -20.4092
   -20.0125 -19.9597 -19.7518 -19.7361 -19.3628 -19.3089 -18.9642 -18.8551
   -18.7729 -18.6618 -18.3584 -18.2283 -17.9821 -17.9157 -17.8325 -17.6202
   -17.5134 -17.3337 -17.2355 -17.0844 -16.9234 -16.8629 -16.6048 -16.4284
   -16.3180 -16.2049 -16.1458 -15.6747 -15.1862 -15.0837 -15.0150 -14.9080
   -14.8260 -14.6415 -14.5733 -14.4506 -14.2953 -14.1120 -14.0564 -13.6814
   -13.5414 -13.4594 -13.3705 -13.0939 -12.8753 -12.8651 -12.6662 -12.3934
   -12.3603 -12.2022 -12.1913 -12.1802 -12.0713 -11.8000 -11.6678 -11.3502
   -11.1756 -11.1330 -11.0788 -10.9825 -10.8310 -10.7439 -10.6837 -10.4272
   -10.4043 -10.3038 -10.1844 -10.1728 -10.0052  -9.9597  -9.8250  -9.7049
    -9.6979  -9.4443  -9.4364  -9.4181  -9.3236  -9.2903  -9.1982  -9.1794
    -9.1267  -9.1171  -9.1049  -9.0180  -8.9938  -8.8989  -8.8740  -8.7002
    -8.6523  -8.6415  -8.5769  -8.5654  -8.4689  -8.4031  -8.3601  -8.2829
    -8.2592  -8.2554  -8.0817  -8.0118  -7.8921  -7.8240  -7.8113  -7.7896
    -7.7170  -7.5836  -7.5414  -7.4860  -7.4766  -7.4383  -7.1676  -7.1522
    -7.0648  -7.0511  -6.8200  -6.8155  -6.7131  -6.5910  -6.5593  -6.5489
    -6.4767  -6.4173  -6.3032  -6.2033  -6.0617  -5.9173  -5.8589  -5.7385
    -5.6265  -5.5176  -5.4960  -5.4539  -5.3352  -5.1917  -5.0955  -5.0861
    -4.9605  -4.8463  -4.6958  -4.6429  -4.4382  -4.1209  -4.0468  -3.8052
    -3.4283  -3.0535  -1.8596  -1.4438  -1.1419  -0.7623  -0.7121  -0.6494
    -0.4730  -0.1825  -0.1473  -0.0770   0.0765   0.2812   0.5137   0.5408
     0.5966   0.6386   0.6817   0.7250   0.9016   0.9472   0.9720   1.2016
     1.2585   1.2932   1.3599   1.3786   1.4167   1.4329   1.6159   1.6211
     1.6513   1.7486   1.8655   1.9358   1.9429   1.9517   1.9839   2.0183
     2.0527   2.1040   2.1310   2.1542   2.1699   2.3708   2.3729   2.4353
     2.4380   2.4608   2.4680   2.5268   2.5855   2.5912   2.6670   2.6906
     2.7652   2.8153   2.8248   2.8325   2.8644   2.8750   2.8885   2.9299
     2.9320   2.9754   3.0970   3.1063   3.1481   3.1540   3.1901   3.2107
     3.2324   3.2382   3.2716   3.3062   3.3699   3.3707   3.3859   3.3898
     3.4210   3.4463   3.4764   3.5849   3.6613   3.6738   3.6797   3.7160
     3.7171   3.7280   3.7326   3.7366   3.8051   3.8269   3.8439   3.8643
     3.8805   3.8942   3.9584   4.0196   4.0616   4.0762   4.0829   4.1277
     4.1453   4.1682   4.1759   4.1970   4.2653   4.2735   4.2861   4.3111
     4.3416   4.3888   4.4260   4.4922   4.4934   4.5075   4.5656   4.5709
     4.5746   4.6083   4.6093   4.6563   4.6569   4.7397   4.7853   4.8284
     4.8546   4.8564   4.8566   4.9020   4.9157   4.9447   4.9449   4.9691
     5.0151   5.0298   5.0307   5.0508   5.0514   5.1156   5.1280   5.1453
     5.1722   5.1842   5.2020   5.2508   5.2979   5.3019   5.3131   5.3547
     5.3591   5.3867   5.4105   5.4143   5.4160   5.4210   5.4423   5.4557
     5.4718   5.4950   5.5489   5.5821   5.6298   5.6427   5.6672   5.7006
     5.7029   5.7518   5.7749   5.8106   5.8261   5.8271   5.8499   5.8703
     5.8973   5.9064   5.9231   6.0021   6.0208   6.0282   6.0413   6.0634
     6.0756   6.0928   6.1236   6.1408   6.1544   6.1743   6.1804   6.2181
     6.2586   6.2633   6.2880   6.2915   6.2977   6.3010   6.3323   6.3578
     6.3689   6.3854   6.4199   6.4435   6.4978   6.5130   6.5316   6.5430
     6.5477   6.5831   6.5980   6.5986   6.6439   6.6439   6.6576   6.6988
     6.7246   6.7390   6.7509   6.7697   6.7729   6.8247   6.8284   6.8409
     6.8599   6.8885   6.9181   6.9339   6.9634   6.9831   6.9856   6.9868
     7.0162   7.0235   7.0536   7.0712   7.0713   7.0947   7.1430   7.1663
     7.1876   7.1907   7.2019   7.2031   7.2224   7.2498   7.2607   7.2629
     7.3170   7.3170   7.3300   7.3391   7.3539   7.3627   7.3899   7.4088
     7.4418   7.4608   7.5056   7.5318   7.5341   7.5384   7.5394   7.5882
     7.5888   7.6059   7.6212   7.6472   7.6527   7.6795   7.6816   7.7068
     7.7163   7.7334   7.7338   7.7392   7.7538   7.7657   7.7773   7.8106
     7.8378   7.8509   7.8957   7.9208   7.9314   7.9370   7.9653   7.9734
     7.9916   8.0070   8.0288   8.0330   8.0390   8.0694   8.0841   8.1008
     8.1014   8.1326   8.1616   8.2055   8.2150   8.2348   8.2444   8.2718
     8.2725   8.3578   8.3774   8.3815   8.3884   8.3948   8.4192   8.4221
     8.4451   8.4673   8.4935   8.5062   8.5088   8.5382   8.5417   8.5777
     8.5794   8.5878   8.6101   8.6204   8.6316   8.6417   8.6520   8.6645
     8.7001   8.7076   8.7121   8.7292   8.7433   8.7519   8.8022   8.8107
     8.8115   8.8301   8.8380   8.8675   8.8698   8.8898   8.8993   8.9046
     8.9263   8.9273   8.9432   8.9462

          k = 0.0000 0.0000 0.0117 (147325 PWs)   bands (ev):

   -21.6550 -21.4250 -21.1236 -21.1195 -20.7694 -20.5995 -20.4623 -20.4250
   -20.0012 -19.9753 -19.7365 -19.7313 -19.3591 -19.3055 -18.9550 -18.8663
   -18.8045 -18.6614 -18.3480 -18.2418 -17.9766 -17.8873 -17.8431 -17.6187
   -17.5147 -17.3333 -17.2196 -17.0697 -16.9232 -16.8722 -16.6345 -16.4228
   -16.3268 -16.2124 -16.1387 -15.7068 -15.1496 -15.0719 -15.0108 -14.8876
   -14.8295 -14.6358 -14.5824 -14.4563 -14.3063 -14.1051 -14.0386 -13.6697
   -13.5363 -13.5164 -13.3821 -13.1045 -12.8951 -12.8779 -12.6713 -12.3582
   -12.3504 -12.1947 -12.1760 -12.1622 -12.0542 -11.8181 -11.6483 -11.3335
   -11.2004 -11.1488 -11.0785 -11.0036 -10.8286 -10.7562 -10.6749 -10.4076
   -10.3989 -10.2909 -10.2305 -10.1510 -10.0029  -9.9622  -9.8347  -9.7186
    -9.7017  -9.4501  -9.4490  -9.4203  -9.3078  -9.2878  -9.1935  -9.1906
    -9.1309  -9.1165  -9.0864  -9.0189  -8.9939  -8.9173  -8.8523  -8.6875
    -8.6599  -8.6493  -8.5699  -8.5455  -8.4759  -8.3980  -8.3451  -8.2752
    -8.2721  -8.2497  -8.0842  -8.0012  -7.9106  -7.8281  -7.8160  -7.7746
    -7.7368  -7.5911  -7.5326  -7.4713  -7.4698  -7.4211  -7.2036  -7.1716
    -7.0599  -7.0421  -6.8279  -6.8213  -6.7086  -6.5852  -6.5756  -6.5373
    -6.4581  -6.4457  -6.3007  -6.2003  -6.0554  -5.9098  -5.8709  -5.7415
    -5.6281  -5.5037  -5.4854  -5.4526  -5.3447  -5.1906  -5.0979  -5.0823
    -4.9539  -4.8462  -4.6834  -4.6486  -4.4602  -4.1068  -4.0411  -3.8096
    -3.4300  -3.0757  -1.8397  -1.4527  -1.1285  -0.7547  -0.7189  -0.6349
    -0.4705  -0.1888  -0.1465  -0.0886   0.0609   0.2916   0.5053   0.5584
     0.6001   0.6421   0.6837   0.6851   0.8882   0.9327   0.9747   1.2158
     1.2771   1.2778   1.3687   1.3726   1.4204   1.4300   1.6059   1.6060
     1.6742   1.7364   1.8629   1.9558   1.9616   1.9669   1.9891   2.0378
     2.0392   2.0812   2.1517   2.1697   2.1767   2.3535   2.3639   2.4248
     2.4322   2.4493   2.4844   2.5321   2.5821   2.5898   2.6672   2.6854
     2.7587   2.8176   2.8238   2.8409   2.8653   2.8718   2.9018   2.9199
     2.9533   2.9572   3.0721   3.1166   3.1456   3.1471   3.1874   3.1959
     3.2440   3.2505   3.2868   3.2922   3.3609   3.3646   3.3897   3.4051
     3.4278   3.4494   3.5025   3.6068   3.6375   3.6643   3.6846   3.6930
     3.7192   3.7267   3.7312   3.7410   3.8274   3.8336   3.8650   3.8717
     3.8790   3.8926   3.9443   4.0205   4.0450   4.0550   4.0622   4.1352
     4.1445   4.1529   4.1684   4.1799   4.2558   4.2636   4.2751   4.3023
     4.3688   4.4091   4.4414   4.4897   4.4997   4.5262   4.5556   4.5572
     4.5659   4.5740   4.6322   4.6572   4.6638   4.7459   4.7820   4.8481
     4.8515   4.8622   4.8801   4.8867   4.9254   4.9474   4.9634   4.9639
     5.0253   5.0270   5.0341   5.0536   5.0839   5.1011   5.1013   5.1261
     5.1659   5.1849   5.1856   5.2358   5.2765   5.3023   5.3331   5.3381
     5.3624   5.3698   5.3803   5.4002   5.4075   5.4526   5.4558   5.4663
     5.4675   5.4960   5.5595   5.6060   5.6210   5.6360   5.6742   5.6949
     5.7164   5.7346   5.7658   5.8170   5.8287   5.8390   5.8396   5.8783
     5.9012   5.9292   5.9369   5.9984   6.0088   6.0294   6.0472   6.0723
     6.0812   6.1141   6.1256   6.1541   6.1713   6.1829   6.2072   6.2341
     6.2478   6.2593   6.2760   6.2875   6.2882   6.2990   6.3238   6.3457
     6.3772   6.4006   6.4370   6.4682   6.4801   6.4989   6.5063   6.5244
     6.5273   6.5456   6.5852   6.6103   6.6270   6.6450   6.6460   6.6615
     6.7165   6.7356   6.7564   6.7602   6.7682   6.8065   6.8299   6.8481
     6.8485   6.8808   6.9201   6.9350   6.9356   6.9589   6.9858   6.9990
     7.0293   7.0330   7.0578   7.0667   7.0994   7.0994   7.1445   7.1718
     7.1855   7.1969   7.2080   7.2199   7.2259   7.2518   7.2604   7.2955
     7.3193   7.3300   7.3560   7.3576   7.3726   7.3802   7.3931   7.4078
     7.4195   7.4404   7.4874   7.5228   7.5354   7.5545   7.5588   7.5747
     7.5853   7.5896   7.6310   7.6373   7.6397   7.6535   7.6902   7.7066
     7.7087   7.7345   7.7468   7.7701   7.7718   7.7719   7.7824   7.8445
     7.8537   7.8539   7.8981   7.9015   7.9314   7.9486   7.9578   7.9831
     8.0025   8.0155   8.0478   8.0497   8.0540   8.0556   8.0980   8.1038
     8.1168   8.1422   8.1510   8.1737   8.2073   8.2240   8.2469   8.2681
     8.2747   8.3466   8.3677   8.3716   8.3731   8.3782   8.4086   8.4226
     8.4369   8.4838   8.4923   8.5019   8.5155   8.5223   8.5345   8.5629
     8.5845   8.5961   8.5966   8.6284   8.6288   8.6520   8.6612   8.6755
     8.6920   8.6991   8.7171   8.7277   8.7544   8.7633   8.7916   8.7991
     8.8115   8.8344   8.8345   8.8353   8.8572   8.8692   8.8997   8.9205
     8.9256   8.9345   8.9372   8.9411

          k = 0.0000 0.0000 0.0129 (147299 PWs)   bands (ev):

   -21.6526 -21.4345 -21.1229 -21.1042 -20.7747 -20.6072 -20.4504 -20.4395
   -19.9914 -19.9911 -19.7269 -19.7192 -19.3551 -19.3021 -18.9448 -18.8777
   -18.8371 -18.6607 -18.3364 -18.2565 -17.9783 -17.8525 -17.8515 -17.6176
   -17.5171 -17.3329 -17.2025 -17.0547 -16.9228 -16.8814 -16.6672 -16.4159
   -16.3362 -16.2195 -16.1313 -15.7386 -15.1146 -15.0593 -15.0034 -14.8692
   -14.8328 -14.6314 -14.5911 -14.4584 -14.3175 -14.0988 -14.0210 -13.6582
   -13.5729 -13.5311 -13.3948 -13.1151 -12.9146 -12.8915 -12.6768 -12.3453
   -12.3295 -12.1929 -12.1447 -12.1409 -12.0358 -11.8354 -11.6298 -11.3225
   -11.2249 -11.1666 -11.0729 -11.0233 -10.8248 -10.7693 -10.6667 -10.3976
   -10.3927 -10.2835 -10.2630 -10.1335  -9.9960  -9.9650  -9.8416  -9.7405
    -9.6982  -9.4614  -9.4574  -9.4271  -9.2924  -9.2829  -9.2026  -9.1997
    -9.1312  -9.1157  -9.0673  -9.0192  -8.9864  -8.9371  -8.8278  -8.6795
    -8.6618  -8.6569  -8.5641  -8.5255  -8.4845  -8.3944  -8.3296  -8.2934
    -8.2624  -8.2377  -8.0874  -7.9906  -7.9313  -7.8289  -7.8188  -7.7616
    -7.7568  -7.5999  -7.5249  -7.4667  -7.4512  -7.4034  -7.2402  -7.1918
    -7.0547  -7.0330  -6.8410  -6.8226  -6.7037  -6.5925  -6.5787  -6.5257
    -6.4755  -6.4409  -6.2984  -6.1972  -6.0467  -5.9013  -5.8839  -5.7448
    -5.6331  -5.5121  -5.4513  -5.4503  -5.3535  -5.1895  -5.1009  -5.0782
    -4.9475  -4.8458  -4.6707  -4.6546  -4.4829  -4.0931  -4.0347  -3.8143
    -3.4317  -3.0987  -1.8192  -1.4614  -1.1154  -0.7463  -0.7263  -0.6192
    -0.4677  -0.1957  -0.1456  -0.1000   0.0464   0.3013   0.4982   0.5624
     0.6040   0.6459   0.6563   0.6875   0.8748   0.9185   0.9781   1.2292
     1.2626   1.2955   1.3669   1.3790   1.4215   1.4247   1.5915   1.5987
     1.6974   1.7240   1.8601   1.9685   1.9758   1.9849   1.9968   2.0263
     2.0589   2.0627   2.1727   2.1846   2.1882   2.3345   2.3558   2.4121
     2.4282   2.4383   2.5003   2.5395   2.5666   2.5945   2.6604   2.6922
     2.7498   2.8022   2.8277   2.8532   2.8671   2.8764   2.9112   2.9166
     2.9334   2.9855   3.0444   3.1279   3.1345   3.1449   3.1761   3.1829
     3.2578   3.2711   3.2827   3.2981   3.3401   3.3552   3.3923   3.4241
     3.4511   3.4530   3.5279   3.6148   3.6281   3.6464   3.6713   3.6879
     3.7060   3.7248   3.7459   3.7464   3.8347   3.8572   3.8606   3.8617
     3.8973   3.9105   3.9335   4.0223   4.0286   4.0353   4.0415   4.1131
     4.1143   4.1747   4.1782   4.1786   4.2256   4.2402   4.2640   4.3287
     4.3964   4.4289   4.4497   4.4854   4.4931   4.5371   4.5416   4.5453
     4.5577   4.5580   4.6555   4.6578   4.6863   4.7475   4.7724   4.8398
     4.8520   4.8678   4.8683   4.9124   4.9330   4.9491   4.9793   4.9819
     5.0114   5.0184   5.0241   5.0689   5.0911   5.0947   5.1078   5.1218
     5.1695   5.1705   5.1720   5.2192   5.2591   5.2985   5.2986   5.3461
     5.3653   5.3672   5.3689   5.3709   5.3987   5.4628   5.4713   5.4953
     5.4967   5.4996   5.5724   5.5986   5.6302   5.6386   5.6782   5.6913
     5.7121   5.7306   5.7543   5.8077   5.8147   5.8466   5.8490   5.9013
     5.9042   5.9408   5.9638   5.9887   5.9938   6.0010   6.0683   6.0717
     6.0801   6.1372   6.1499   6.1517   6.1985   6.2013   6.2229   6.2324
     6.2385   6.2676   6.2793   6.2803   6.2849   6.2982   6.3020   6.3618
     6.3723   6.4156   6.4424   6.4620   6.4630   6.4847   6.4877   6.5068
     6.5090   6.5291   6.5860   6.5954   6.6246   6.6281   6.6429   6.6484
     6.7125   6.7239   6.7438   6.7517   6.7789   6.7829   6.8158   6.8409
     6.8755   6.8785   6.9003   6.9182   6.9279   6.9357   6.9905   7.0058
     7.0367   7.0557   7.0574   7.0833   7.1092   7.1239   7.1470   7.1525
     7.1890   7.2070   7.2171   7.2251   7.2463   7.2545   7.2647   7.3175
     7.3293   7.3445   7.3564   7.3710   7.3870   7.3953   7.4031   7.4119
     7.4147   7.4207   7.4829   7.5149   7.5278   7.5455   7.5556   7.5686
     7.5763   7.5791   7.5926   7.6305   7.6362   7.6718   7.6896   7.7079
     7.7191   7.7397   7.7549   7.7806   7.7903   7.7979   7.8049   7.8688
     7.8692   7.8729   7.8801   7.9045   7.9282   7.9450   7.9578   7.9914
     8.0054   8.0211   8.0478   8.0617   8.0676   8.0823   8.0826   8.1157
     8.1233   8.1307   8.1549   8.1844   8.1925   8.2229   8.2519   8.2593
     8.2721   8.3402   8.3521   8.3524   8.3754   8.3760   8.3978   8.4265
     8.4270   8.4608   8.4811   8.4974   8.5016   8.5195   8.5205   8.5581
     8.5811   8.5852   8.5939   8.6051   8.6360   8.6673   8.6794   8.6901
     8.6906   8.7076   8.7090   8.7351   8.7584   8.7758   8.7787   8.7858
     8.7881   8.8026   8.8288   8.8355   8.8580   8.8858   8.9110   8.9210
     8.9231   8.9322   8.9426   8.9525

          k = 0.0000 0.0000 0.0141 (147253 PWs)   bands (ev):

   -21.6500 -21.4438 -21.1222 -21.0884 -20.7799 -20.6163 -20.4525 -20.4380
   -20.0073 -19.9831 -19.7229 -19.6999 -19.3510 -19.2988 -18.9339 -18.8891
   -18.8700 -18.6600 -18.3238 -18.2722 -17.9832 -17.8605 -17.8128 -17.6168
   -17.5205 -17.3324 -17.1846 -17.0393 -16.9220 -16.8906 -16.7023 -16.4082
   -16.3461 -16.2264 -16.1237 -15.7700 -15.0853 -15.0461 -14.9894 -14.8532
   -14.8358 -14.6297 -14.5993 -14.4558 -14.3287 -14.0932 -14.0036 -13.6522
   -13.6237 -13.5263 -13.4078 -13.1256 -12.9334 -12.9057 -12.6826 -12.3456
   -12.3072 -12.1848 -12.1204 -12.1050 -12.0168 -11.8514 -11.6128 -11.3233
   -11.2411 -11.1863 -11.0644 -11.0411 -10.8197 -10.7826 -10.6595 -10.4033
   -10.3857 -10.3084 -10.2495 -10.1219  -9.9831  -9.9673  -9.8457  -9.7636
    -9.6943  -9.4737  -9.4652  -9.4368  -9.2783  -9.2776  -9.2155  -9.2146
    -9.1291  -9.1150  -9.0479  -9.0198  -8.9715  -8.9565  -8.8011  -8.6855
    -8.6642  -8.6496  -8.5594  -8.5057  -8.4951  -8.3924  -8.3137  -8.3096
    -8.2539  -8.2236  -8.0913  -7.9805  -7.9533  -7.8259  -7.8204  -7.7769
    -7.7504  -7.6099  -7.5182  -7.4627  -7.4303  -7.3857  -7.2772  -7.2125
    -7.0492  -7.0239  -6.8547  -6.8239  -6.6984  -6.6101  -6.5716  -6.5144
    -6.5059  -6.4252  -6.2964  -6.1942  -6.0362  -5.8976  -5.8917  -5.7480
    -5.6402  -5.5214  -5.4500  -5.4138  -5.3617  -5.1883  -5.1043  -5.0739
    -4.9415  -4.8451  -4.6610  -4.6581  -4.5063  -4.0798  -4.0277  -3.8191
    -3.4335  -3.1223  -1.7984  -1.4697  -1.1027  -0.7372  -0.7342  -0.6025
    -0.4646  -0.2032  -0.1451  -0.1111   0.0332   0.3099   0.4926   0.5400
     0.6082   0.6501   0.6555   0.6890   0.8615   0.9046   0.9821   1.2417
     1.2479   1.3137   1.3614   1.3907   1.4086   1.4295   1.5775   1.5939
     1.7116   1.7209   1.8567   1.9790   1.9807   1.9984   2.0048   2.0145
     2.0562   2.0813   2.1933   2.1936   2.2099   2.3166   2.3469   2.4004
     2.4223   2.4282   2.5137   2.5496   2.5502   2.5996   2.6497   2.7038
     2.7389   2.7866   2.8270   2.8524   2.8776   2.8867   2.9071   2.9179
     2.9323   3.0128   3.0169   3.1231   3.1391   3.1400   3.1591   3.1747
     3.2752   3.2777   3.2915   3.3024   3.3186   3.3475   3.3996   3.4306
     3.4571   3.4870   3.5468   3.5976   3.6277   3.6416   3.6585   3.6897
     3.6933   3.7201   3.7500   3.7615   3.8429   3.8500   3.8529   3.8661
     3.9111   3.9184   3.9546   4.0127   4.0176   4.0211   4.0264   4.0856
     4.0862   4.1851   4.1860   4.1961   4.2016   4.2073   4.2669   4.3549
     4.4228   4.4416   4.4459   4.4790   4.4809   4.5196   4.5198   4.5459
     4.5502   4.5882   4.6585   4.6768   4.7141   4.7464   4.7509   4.8258
     4.8286   4.8751   4.8829   4.9192   4.9479   4.9625   4.9864   4.9923
     5.0076   5.0103   5.0200   5.0411   5.0848   5.0911   5.1372   5.1425
     5.1537   5.1570   5.1839   5.2046   5.2498   5.2545   5.2987   5.3133
     5.3368   5.3636   5.3689   5.4021   5.4026   5.4726   5.4791   5.4967
     5.5321   5.5380   5.5758   5.5881   5.6337   5.6547   5.6747   5.6929
     5.6941   5.7391   5.7452   5.7898   5.8140   5.8454   5.8484   5.9096
     5.9401   5.9461   5.9649   5.9671   5.9730   6.0210   6.0637   6.0724
     6.0774   6.1475   6.1539   6.1831   6.2009   6.2117   6.2309   6.2357
     6.2366   6.2724   6.2785   6.2826   6.2995   6.3009   6.3136   6.3676
     6.3768   6.4032   6.4157   6.4207   6.4583   6.4705   6.4741   6.4946
     6.5199   6.5329   6.5619   6.6003   6.6005   6.6356   6.6418   6.6430
     6.7074   6.7173   6.7364   6.7478   6.7502   6.7912   6.8044   6.8317
     6.8628   6.8687   6.8981   6.9082   6.9155   6.9382   7.0010   7.0020
     7.0469   7.0702   7.0710   7.1074   7.1176   7.1217   7.1546   7.1567
     7.1824   7.2127   7.2293   7.2415   7.2423   7.2639   7.2816   7.3150
     7.3435   7.3518   7.3590   7.3615   7.3795   7.3921   7.4225   7.4249
     7.4284   7.4556   7.4768   7.5025   7.5093   7.5148   7.5429   7.5482
     7.5520   7.5948   7.5974   7.6090   7.6350   7.6780   7.7044   7.7108
     7.7279   7.7459   7.7621   7.7903   7.8037   7.8293   7.8328   7.8400
     7.8901   7.8957   7.9018   7.9183   7.9230   7.9366   7.9614   7.9968
     8.0028   8.0118   8.0379   8.0544   8.0758   8.0902   8.0922   8.1391
     8.1398   8.1458   8.1472   8.1814   8.2199   8.2207   8.2305   8.2668
     8.2745   8.3127   8.3335   8.3427   8.3819   8.3890   8.3910   8.4193
     8.4247   8.4392   8.4482   8.4862   8.4903   8.5056   8.5230   8.5241
     8.5660   8.5843   8.6021   8.6050   8.6197   8.6605   8.6644   8.6853
     8.7005   8.7087   8.7299   8.7457   8.7468   8.7680   8.7810   8.7869
     8.7870   8.8054   8.8260   8.8268   8.8739   8.8900   8.9125   8.9159
     8.9311   8.9312   8.9324   8.9489

          k = 0.0000 0.0000 0.0153 (147267 PWs)   bands (ev):

   -21.6472 -21.4528 -21.1215 -21.0724 -20.7849 -20.6271 -20.4638 -20.4252
   -20.0236 -19.9760 -19.7193 -19.6789 -19.3468 -19.2957 -18.9223 -18.9058
   -18.8979 -18.6593 -18.3106 -18.2887 -17.9896 -17.8673 -17.7726 -17.6163
   -17.5244 -17.3319 -17.1665 -17.0241 -16.9206 -16.8995 -16.7392 -16.4003
   -16.3565 -16.2330 -16.1160 -15.8006 -15.0662 -15.0323 -14.9643 -14.8395
   -14.8383 -14.6317 -14.6070 -14.4475 -14.3397 -14.0885 -13.9867 -13.6925
   -13.6279 -13.5226 -13.4203 -13.1363 -12.9511 -12.9201 -12.6887 -12.3505
   -12.2902 -12.1714 -12.0968 -12.0627 -11.9976 -11.8656 -11.5975 -11.3405
   -11.2442 -11.2075 -11.0571 -11.0542 -10.8132 -10.7957 -10.6532 -10.4275
   -10.3779 -10.3263 -10.2271 -10.1164  -9.9682  -9.9642  -9.8470  -9.7874
    -9.6901  -9.4858  -9.4727  -9.4481  -9.2745  -9.2676  -9.2354  -9.2249
    -9.1273  -9.1143  -9.0280  -9.0226  -8.9726  -8.9509  -8.7725  -8.6958
    -8.6711  -8.6332  -8.5561  -8.5077  -8.4868  -8.3916  -8.3236  -8.2974
    -8.2466  -8.2080  -8.0959  -7.9758  -7.9710  -7.8214  -7.8190  -7.7972
    -7.7409  -7.6210  -7.5128  -7.4592  -7.4073  -7.3685  -7.3142  -7.2332
    -7.0435  -7.0151  -6.8689  -6.8250  -6.6931  -6.6289  -6.5640  -6.5357
    -6.5034  -6.4110  -6.2948  -6.1911  -6.0244  -5.9119  -5.8811  -5.7514
    -5.6484  -5.5313  -5.4486  -5.3767  -5.3690  -5.1871  -5.1080  -5.0694
    -4.9360  -4.8442  -4.6676  -4.6457  -4.5303  -4.0670  -4.0200  -3.8241
    -3.4354  -3.1462  -1.7775  -1.4777  -1.0905  -0.7425  -0.7271  -0.5852
    -0.4612  -0.2110  -0.1451  -0.1213   0.0213   0.3172   0.4888   0.5011
     0.6127   0.6547   0.6717   0.6894   0.8484   0.8911   0.9866   1.2329
     1.2540   1.3314   1.3563   1.3922   1.4037   1.4349   1.5642   1.5908
     1.6993   1.7446   1.8521   1.9737   1.9921   1.9929   2.0042   2.0214
     2.0658   2.1035   2.2037   2.2124   2.2349   2.3013   2.3372   2.3903
     2.4134   2.4190   2.5239   2.5342   2.5651   2.6050   2.6375   2.7155
     2.7265   2.7711   2.8234   2.8439   2.8913   2.8917   2.9074   2.9158
     2.9483   2.9864   3.0427   3.1124   3.1278   3.1387   3.1531   3.1733
     3.2752   3.2947   3.2980   3.2988   3.3101   3.3403   3.4125   3.4368
     3.4617   3.5203   3.5469   3.5927   3.6196   3.6274   3.6747   3.6810
     3.6893   3.7137   3.7543   3.7744   3.8363   3.8451   3.8480   3.8530
     3.9299   3.9342   3.9835   3.9973   4.0016   4.0017   4.0361   4.0589
     4.0607   4.1680   4.1701   4.1934   4.2014   4.2295   4.2733   4.3795
     4.4309   4.4360   4.4391   4.4629   4.4764   4.5108   4.5199   4.5437
     4.5569   4.6163   4.6584   4.6932   4.7187   4.7433   4.7436   4.8119
     4.8198   4.8827   4.8940   4.9039   4.9428   4.9812   4.9945   5.0040
     5.0048   5.0053   5.0230   5.0301   5.0765   5.0832   5.1135   5.1380
     5.1753   5.1811   5.1952   5.1995   5.2135   5.2476   5.2810   5.3022
     5.3048   5.3606   5.3629   5.4154   5.4400   5.4834   5.4882   5.4954
     5.5534   5.5595   5.5797   5.6096   5.6211   5.6562   5.6794   5.6859
     5.7023   5.7211   5.7601   5.7754   5.8149   5.8392   5.8411   5.9230
     5.9265   5.9446   5.9639   5.9695   5.9789   6.0530   6.0567   6.0582
     6.0805   6.1465   6.1612   6.1708   6.1916   6.2201   6.2377   6.2554
     6.2598   6.2712   6.2744   6.2811   6.3162   6.3326   6.3425   6.3469
     6.3691   6.3843   6.3859   6.4169   6.4362   6.4415   6.4564   6.4983
     6.5264   6.5342   6.5511   6.5796   6.6223   6.6230   6.6313   6.6531
     6.6972   6.7207   6.7273   6.7343   6.7516   6.7919   6.7957   6.8192
     6.8260   6.8633   6.8730   6.9145   6.9241   6.9516   6.9936   7.0144
     7.0610   7.0753   7.0913   7.0926   7.1352   7.1355   7.1633   7.1677
     7.1860   7.2076   7.2329   7.2516   7.2566   7.2755   7.2840   7.3137
     7.3140   7.3438   7.3706   7.3795   7.3895   7.3900   7.4275   7.4471
     7.4537   7.4592   7.4791   7.4849   7.4924   7.5056   7.5059   7.5314
     7.5654   7.5903   7.6009   7.6138   7.6351   7.6737   7.6984   7.7189
     7.7463   7.7531   7.7811   7.7908   7.8055   7.8225   7.8540   7.8594
     7.8869   7.9063   7.9179   7.9336   7.9412   7.9469   7.9508   7.9824
[...]
    -4.9098  -4.8329  -4.8076  -4.6895  -4.5685  -3.9817  -3.9453  -3.8651
    -3.4489  -3.3207  -1.6335  -1.5238  -1.0219  -0.8111  -0.6061  -0.5054
    -0.4286  -0.2027  -0.1827  -0.1318  -0.0600   0.1413   0.3240   0.5248
     0.6623   0.6629   0.7051   0.7507   0.7920   0.8662   1.0414   1.1239
     1.2141   1.3296   1.3317   1.4317   1.4475   1.5318   1.5817   1.5849
     1.6047   1.7635   1.7669   1.9465   1.9860   2.0321   2.0487   2.1046
     2.1590   2.1708   2.2017   2.2460   2.2828   2.2953   2.3267   2.4241
     2.4347   2.4437   2.5507   2.5748   2.5807   2.6035   2.6433   2.6758
     2.6779   2.7370   2.7523   2.7837   2.8198   2.8905   2.9217   2.9283
     2.9601   2.9977   3.0737   3.0992   3.1133   3.1255   3.1443   3.2170
     3.2705   3.2746   3.2840   3.3124   3.3619   3.3636   3.4380   3.4678
     3.5209   3.5356   3.5399   3.5754   3.5858   3.5990   3.6586   3.6602
     3.6781   3.7730   3.7806   3.7873   3.8173   3.8191   3.8284   3.8642
     3.8842   3.8851   3.9173   3.9490   3.9697   3.9801   4.0181   4.0587
     4.1413   4.1560   4.1745   4.1806   4.2383   4.2784   4.2822   4.3132
     4.4260   4.4347   4.4384   4.4766   4.5070   4.5139   4.5513   4.5658
     4.6017   4.6616   4.6715   4.6836   4.6990   4.7265   4.7335   4.7620
     4.7687   4.7913   4.8838   4.8979   4.9021   4.9034   4.9071   4.9403
     4.9745   4.9786   4.9993   5.0404   5.0495   5.0757   5.0760   5.1185
     5.1879   5.1894   5.2237   5.2482   5.2524   5.2838   5.3277   5.3582
     5.3686   5.3749   5.3913   5.4743   5.4887   5.4941   5.5372   5.5484
     5.5949   5.5971   5.5989   5.6094   5.6459   5.6514   5.7026   5.7079
     5.7338   5.7705   5.8157   5.8447   5.8766   5.8784   5.8927   5.8929
     5.9016   5.9314   5.9487   5.9612   5.9734   6.0089   6.0127   6.0286
     6.0562   6.1036   6.1057   6.1099   6.1132   6.1449   6.1522   6.1919
     6.1982   6.2078   6.2530   6.2649   6.2908   6.2933   6.3226   6.3317
     6.3696   6.3795   6.3868   6.4031   6.4031   6.4124   6.4337   6.4528
     6.5117   6.5881   6.6077   6.6362   6.6598   6.6682   6.6820   6.6980
     6.7190   6.7332   6.7361   6.7611   6.7789   6.8169   6.8260   6.8314
     6.8432   6.8455   6.8819   6.8987   6.9069   6.9752   6.9777   7.0014
     7.0026   7.0044   7.0522   7.0608   7.0695   7.0888   7.1172   7.1500
     7.1818   7.2142   7.2506   7.2578   7.2675   7.2806   7.3102   7.3293
     7.3309   7.3686   7.4066   7.4122   7.4312   7.4444   7.4539   7.4843
     7.4973   7.5002   7.5090   7.5270   7.5314   7.5563   7.5597   7.5662
     7.5709   7.5895   7.6282   7.6377   7.6612   7.6772   7.7303   7.7344
     7.7346   7.7705   7.7886   7.7925   7.8023   7.8136   7.8247   7.8603
     7.8932   7.9042   7.9225   7.9487   7.9738   7.9767   7.9806   7.9865
     8.0173   8.0208   8.0638   8.0698   8.0938   8.1036   8.1066   8.1419
     8.1753   8.1832   8.1873   8.1924   8.2141   8.2258   8.2323   8.2860
     8.2947   8.3075   8.3330   8.3363   8.3660   8.3744   8.3778   8.3801
     8.3923   8.4078   8.4109   8.4347   8.4415   8.4474   8.4749   8.4801
     8.5034   8.5126   8.5386   8.5790   8.6023   8.6112   8.6287   8.6290
     8.6291   8.6382   8.7180   8.7445   8.7492   8.7684   8.7834   8.7900
     8.8009   8.8294   8.8334   8.8606   8.8829   8.9138   8.9190   8.9357
     8.9534   8.9625   8.9754   8.9810

          k = 0.0000 0.0000 0.0270 (147192 PWs)   bands (ev):

   -21.6191 -21.5172 -21.1162 -20.9146 -20.8163 -20.7758 -20.5071 -20.2913
   -20.1779 -19.9497 -19.7014 -19.4172 -19.3380 -19.2769 -19.2007 -18.9750
   -18.8100 -18.6559 -18.4371 -18.1748 -18.0851 -17.8926 -17.6165 -17.5588
   -17.3665 -17.3092 -17.1602 -17.0331 -16.9728 -16.9500 -16.8285 -16.4560
   -16.3308 -16.2880 -16.0582 -16.0071 -15.0697 -14.8815 -14.8380 -14.7846
   -14.7591 -14.6518 -14.4871 -14.4123 -14.2547 -14.2120 -14.1257 -13.8712
   -13.6188 -13.5343 -13.3602 -13.2851 -13.0317 -13.0281 -12.7358 -12.4309
   -12.2229 -11.9902 -11.9862 -11.8526 -11.8110 -11.6779 -11.5576 -11.5561
   -11.3884 -11.3167 -11.1293 -11.0087 -10.7837 -10.7307 -10.7049 -10.6603
   -10.4526 -10.2630 -10.1555 -10.1010 -10.0400  -9.8349  -9.7498  -9.6388
    -9.6337  -9.5919  -9.5871  -9.5155  -9.5068  -9.4816  -9.1866  -9.1728
    -9.1486  -9.1483  -9.1087  -8.9125  -8.8224  -8.8222  -8.7127  -8.7095
    -8.6998  -8.6135  -8.4649  -8.4569  -8.4200  -8.3831  -8.3763  -8.2826
    -8.2262  -8.1373  -8.1352  -7.9810  -7.9324  -7.8562  -7.8407  -7.7701
    -7.7051  -7.6817  -7.6219  -7.4932  -7.4562  -7.4431  -7.1802  -7.1121
    -7.0185  -7.0143  -6.9589  -6.8988  -6.8311  -6.6911  -6.6524  -6.4884
    -6.4329  -6.3442  -6.2881  -6.1712  -6.0342  -5.9003  -5.7759  -5.7463
    -5.7347  -5.6643  -5.4395  -5.4053  -5.1716  -5.1430  -5.0866  -4.9594
    -4.9091  -4.8376  -4.8322  -4.6929  -4.5654  -3.9775  -3.9407  -3.8676
    -3.4496  -3.3294  -1.6268  -1.5256  -1.0194  -0.8147  -0.5932  -0.5119
    -0.4266  -0.2063  -0.1609  -0.1314  -0.0748   0.1199   0.3229   0.5294
     0.6592   0.6674   0.7098   0.7443   0.7855   0.8788   1.0470   1.1163
     1.2019   1.3287   1.3363   1.4349   1.4427   1.5448   1.5848   1.5957
     1.5966   1.7495   1.7559   1.9572   1.9876   2.0458   2.0504   2.1089
     2.1476   2.1532   2.2026   2.2565   2.2844   2.2939   2.3334   2.4053
     2.4479   2.4664   2.5409   2.5582   2.5840   2.6302   2.6369   2.6695
     2.6877   2.7277   2.7606   2.7856   2.8235   2.8885   2.9002   2.9175
     2.9512   3.0100   3.0783   3.0853   3.1311   3.1320   3.1448   3.2211
     3.2531   3.2637   3.2712   3.3366   3.3790   3.3838   3.4438   3.4499
     3.4939   3.5397   3.5447   3.5557   3.5825   3.6060   3.6651   3.6819
     3.6887   3.7486   3.7764   3.7903   3.7956   3.8206   3.8230   3.8700
     3.8805   3.8868   3.9143   3.9494   3.9682   4.0204   4.0420   4.0668
     4.1186   4.1481   4.1563   4.1616   4.2065   4.2991   4.3015   4.3244
     4.4182   4.4568   4.4580   4.4799   4.4936   4.5194   4.5454   4.5830
     4.5845   4.6400   4.6659   4.6907   4.6997   4.7303   4.7360   4.7526
     4.7538   4.8116   4.8624   4.8913   4.8949   4.8956   4.9049   4.9394
     4.9622   4.9868   4.9987   5.0426   5.0571   5.0668   5.0911   5.1266
     5.1822   5.2019   5.2209   5.2534   5.2602   5.2955   5.3083   5.3578
     5.3772   5.3806   5.4166   5.4335   5.4784   5.4929   5.5417   5.5505
     5.5733   5.6077   5.6172   5.6456   5.6458   5.6470   5.7106   5.7200
     5.7357   5.7780   5.8329   5.8497   5.8606   5.8621   5.8764   5.8815
     5.8995   5.9412   5.9429   5.9483   5.9940   6.0030   6.0278   6.0306
     6.0585   6.0878   6.1007   6.1011   6.1182   6.1390   6.1606   6.1821
     6.1896   6.2115   6.2568   6.2693   6.2720   6.2931   6.3129   6.3319
     6.3465   6.3661   6.3695   6.3943   6.4015   6.4085   6.4296   6.4721
     6.5507   6.5906   6.6060   6.6549   6.6581   6.6678   6.6846   6.7056
     6.7145   6.7174   6.7585   6.7768   6.7850   6.8089   6.8393   6.8409
     6.8514   6.8533   6.8990   6.9021   6.9322   6.9433   6.9638   6.9853
     7.0023   7.0095   7.0161   7.0491   7.0668   7.0721   7.1222   7.1484
     7.1969   7.1976   7.2343   7.2561   7.2699   7.2803   7.3032   7.3193
     7.3583   7.3647   7.4085   7.4107   7.4330   7.4634   7.4728   7.4788
     7.4982   7.5081   7.5248   7.5489   7.5498   7.5566   7.5567   7.5602
     7.5649   7.5870   7.6158   7.6400   7.6746   7.6757   7.7243   7.7249
     7.7313   7.7520   7.7738   7.8145   7.8185   7.8257   7.8304   7.8424
     7.8874   7.9116   7.9154   7.9476   7.9736   7.9785   7.9928   7.9946
     8.0189   8.0274   8.0350   8.0558   8.0937   8.1034   8.1075   8.1182
     8.1485   8.1511   8.1714   8.2001   8.2153   8.2488   8.2604   8.2743
     8.3161   8.3246   8.3452   8.3453   8.3498   8.3752   8.3829   8.3857
     8.3978   8.4191   8.4242   8.4392   8.4450   8.4525   8.4564   8.4711
     8.4883   8.5217   8.5299   8.5706   8.5990   8.6163   8.6285   8.6424
     8.6548   8.6675   8.6916   8.7067   8.7515   8.7665   8.7843   8.7926
     8.8014   8.8206   8.8457   8.8670   8.8688   8.9028   8.9108   8.9415
     8.9482   8.9726   8.9728   8.9829

          k = 0.0000 0.0000 0.0282 (147224 PWs)   bands (ev):

   -21.6180 -21.5191 -21.1160 -20.9061 -20.8171 -20.7845 -20.5076 -20.2835
   -20.1861 -19.9494 -19.7010 -19.3921 -19.3511 -19.2765 -19.2128 -18.9770
   -18.8059 -18.6558 -18.4421 -18.1671 -18.0918 -17.8929 -17.6166 -17.5597
   -17.3507 -17.2831 -17.2018 -17.0288 -16.9740 -16.9514 -16.8230 -16.4598
   -16.3276 -16.2909 -16.0566 -16.0124 -15.0708 -14.8725 -14.8374 -14.7826
   -14.7693 -14.6528 -14.4442 -14.4074 -14.3056 -14.1916 -14.1393 -13.8685
   -13.6237 -13.5316 -13.3466 -13.2999 -13.0327 -13.0311 -12.7371 -12.4333
   -12.2215 -11.9885 -11.9837 -11.8484 -11.7821 -11.7066 -11.5594 -11.5285
   -11.3934 -11.3367 -11.1304 -11.0089 -10.7732 -10.7435 -10.6954 -10.6668
   -10.4591 -10.2561 -10.1573 -10.0995 -10.0502  -9.8291  -9.7326  -9.6290
    -9.6122  -9.6079  -9.5928  -9.5248  -9.5178  -9.4957  -9.1844  -9.1684
    -9.1525  -9.1518  -9.1086  -8.9050  -8.8306  -8.8073  -8.7149  -8.7137
    -8.6955  -8.6236  -8.4513  -8.4388  -8.4285  -8.3769  -8.3767  -8.3046
    -8.2263  -8.1359  -8.1290  -7.9898  -7.9130  -7.8486  -7.8446  -7.7823
    -7.7046  -7.6963  -7.6037  -7.5119  -7.4560  -7.4428  -7.1725  -7.0833
    -7.0325  -7.0215  -6.9576  -6.9126  -6.8312  -6.6941  -6.6513  -6.4857
    -6.4312  -6.3431  -6.2880  -6.1707  -6.0380  -5.8950  -5.7766  -5.7510
    -5.7199  -5.6785  -5.4393  -5.4060  -5.1707  -5.1445  -5.0813  -4.9308
    -4.9086  -4.8682  -4.8318  -4.6948  -4.5635  -3.9748  -3.9378  -3.8692
    -3.4500  -3.3347  -1.6228  -1.5266  -1.0179  -0.8169  -0.5834  -0.5181
    -0.4254  -0.2084  -0.1376  -0.1312  -0.0931   0.1065   0.3222   0.5324
     0.6571   0.6706   0.7130   0.7401   0.7812   0.8869   1.0511   1.1110
     1.1941   1.3282   1.3393   1.4368   1.4395   1.5558   1.5847   1.5873
     1.6077   1.7369   1.7510   1.9633   1.9887   2.0515   2.0608   2.1115
     2.1271   2.1496   2.2029   2.2625   2.2852   2.2931   2.3442   2.3877
     2.4590   2.4879   2.5268   2.5453   2.5866   2.6336   2.6470   2.6638
     2.6990   2.7206   2.7582   2.7986   2.8260   2.8826   2.8870   2.9049
     2.9485   3.0233   3.0599   3.0968   3.1201   3.1409   3.1695   3.2234
     3.2267   3.2529   3.2713   3.3606   3.3891   3.4062   3.4196   3.4622
     3.4687   3.5328   3.5431   3.5519   3.5788   3.6089   3.6754   3.7030
     3.7073   3.7276   3.7586   3.7749   3.7924   3.8200   3.8258   3.8735
     3.8773   3.8853   3.9185   3.9500   3.9673   4.0605   4.0663   4.0771
     4.1031   4.1224   4.1363   4.1647   4.1655   4.3172   4.3260   4.3300
     4.4067   4.4685   4.4745   4.4801   4.4843   4.5084   4.5696   4.5711
     4.5979   4.6327   4.6336   4.6941   4.6994   4.7170   4.7420   4.7495
     4.7661   4.8289   4.8451   4.8805   4.8873   4.8933   4.9038   4.9400
     4.9533   4.9784   5.0117   5.0386   5.0618   5.0630   5.1143   5.1360
     5.1742   5.1910   5.2151   5.2566   5.2903   5.2963   5.3000   5.3599
     5.3717   5.3938   5.3948   5.4559   5.4576   5.4957   5.5365   5.5433
     5.5647   5.6190   5.6237   5.6383   5.6397   5.6919   5.7129   5.7303
     5.7534   5.7911   5.7960   5.8270   5.8543   5.8640   5.8845   5.8917
     5.9038   5.9054   5.9393   5.9590   6.0025   6.0188   6.0315   6.0324
     6.0594   6.0650   6.0951   6.0986   6.1308   6.1433   6.1726   6.1729
     6.1782   6.2146   6.2561   6.2577   6.2786   6.2938   6.2972   6.3218
     6.3375   6.3483   6.3742   6.3892   6.3970   6.4031   6.4254   6.4985
     6.5918   6.5926   6.6045   6.6230   6.6711   6.6711   6.6776   6.6958
     6.7174   6.7179   6.7724   6.7903   6.7920   6.8159   6.8428   6.8429
     6.8602   6.8750   6.9028   6.9067   6.9215   6.9260   6.9732   6.9735
     6.9855   7.0063   7.0174   7.0470   7.0538   7.0750   7.1166   7.1319
     7.1783   7.2031   7.2316   7.2639   7.2814   7.2842   7.2963   7.3080
     7.3612   7.3875   7.3879   7.4136   7.4481   7.4504   7.4790   7.4901
     7.5046   7.5105   7.5343   7.5427   7.5493   7.5518   7.5627   7.5758
     7.5793   7.5848   7.6188   7.6474   7.6802   7.6845   7.6902   7.7137
     7.7164   7.7494   7.7692   7.8051   7.8179   7.8423   7.8454   7.8574
     7.8987   7.9021   7.9088   7.9419   7.9695   7.9717   8.0050   8.0138
     8.0148   8.0201   8.0400   8.0476   8.0932   8.0971   8.1109   8.1110
     8.1111   8.1264   8.1642   8.1896   8.2426   8.2437   8.2876   8.2906
     8.2997   8.3513   8.3519   8.3554   8.3584   8.3769   8.3815   8.3904
     8.3974   8.4025   8.4235   8.4314   8.4342   8.4524   8.4604   8.4727
     8.4841   8.5073   8.5613   8.5631   8.5987   8.6213   8.6287   8.6639
     8.6655   8.6656   8.6875   8.7002   8.7493   8.7650   8.7681   8.7803
     8.7847   8.8103   8.8411   8.8648   8.9062   8.9082   8.9101   8.9417
     8.9450   8.9657   8.9798   8.9907

          k = 0.0000 0.0000-0.0293 (147164 PWs)   bands (ev):

   -21.6176 -21.5197 -21.1160 -20.9029 -20.8173 -20.7877 -20.5078 -20.2806
   -20.1892 -19.9492 -19.7009 -19.3718 -19.3673 -19.2763 -19.2170 -18.9777
   -18.8045 -18.6558 -18.4438 -18.1642 -18.0944 -17.8930 -17.6166 -17.5600
   -17.3470 -17.2549 -17.2336 -17.0273 -16.9745 -16.9519 -16.8212 -16.4611
   -16.3264 -16.2920 -16.0561 -16.0141 -15.0712 -14.8691 -14.8372 -14.7809
   -14.7741 -14.6532 -14.4304 -14.3905 -14.3373 -14.1812 -14.1475 -13.8676
   -13.6254 -13.5307 -13.3394 -13.3076 -13.0329 -13.0322 -12.7375 -12.4340
   -12.2210 -11.9893 -11.9815 -11.8469 -11.7645 -11.7244 -11.5600 -11.5173
   -11.3950 -11.3451 -11.1308 -11.0090 -10.7672 -10.7501 -10.6908 -10.6704
   -10.4613 -10.2536 -10.1579 -10.0990 -10.0538  -9.8272  -9.7253  -9.6271
    -9.6148  -9.5995  -9.5950  -9.5278  -9.5277  -9.4981  -9.1836  -9.1665
    -9.1540  -9.1534  -9.1085  -8.9020  -8.8338  -8.8011  -8.7211  -8.7140
    -8.6897  -8.6279  -8.4394  -8.4388  -8.4324  -8.3772  -8.3721  -8.3148
    -8.2264  -8.1361  -8.1260  -7.9930  -7.9044  -7.8531  -7.8395  -7.7876
    -7.7045  -7.7014  -7.5956  -7.5201  -7.4559  -7.4427  -7.1698  -7.0635
    -7.0473  -7.0241  -6.9572  -6.9173  -6.8313  -6.6951  -6.6509  -6.4848
    -6.4306  -6.3427  -6.2879  -6.1705  -6.0393  -5.8931  -5.7768  -5.7527
    -5.7117  -5.6865  -5.4392  -5.4062  -5.1704  -5.1450  -5.0797  -4.9085
    -4.9056  -4.8939  -4.8316  -4.6954  -4.5629  -3.9739  -3.9368  -3.8698
    -3.4501  -3.3365  -1.6215  -1.5270  -1.0174  -0.8176  -0.5795  -0.5208
    -0.4250  -0.2092  -0.1311  -0.1147  -0.1143   0.1020   0.3219   0.5334
     0.6564   0.6718   0.7142   0.7385   0.7796   0.8897   1.0526   1.1091
     1.1914   1.3280   1.3404   1.4375   1.4384   1.5613   1.5828   1.5847
     1.6120   1.7321   1.7493   1.9652   1.9890   2.0518   2.0691   2.1124
     2.1171   2.1484   2.2029   2.2643   2.2854   2.2929   2.3520   2.3778
     2.4637   2.5045   2.5126   2.5401   2.5876   2.6326   2.6527   2.6618
     2.7042   2.7175   2.7567   2.8055   2.8269   2.8749   2.8864   2.8995
     2.9480   3.0330   3.0485   3.1073   3.1094   3.1445   3.1886   3.2070
     3.2242   3.2489   3.2713   3.3766   3.3926   3.4036   3.4204   3.4536
     3.4689   3.5241   3.5444   3.5527   3.5772   3.6096   3.6826   3.7111
     3.7169   3.7283   3.7392   3.7649   3.7932   3.8207   3.8266   3.8746
     3.8762   3.8841   3.9213   3.9503   3.9670   4.0832   4.0832   4.0838
     4.1006   4.1044   4.1270   4.1389   4.1656   4.3241   4.3309   4.3393
     4.3990   4.4658   4.4820   4.4836   4.4842   4.5035   4.5630   4.5984
     4.5993   4.6051   4.6439   4.6710   4.7018   4.7315   4.7323   4.7536
     4.7711   4.8367   4.8378   4.8765   4.8827   4.8928   4.9026   4.9407
     4.9501   4.9754   5.0162   5.0373   5.0602   5.0644   5.1291   5.1414
     5.1696   5.1757   5.2189   5.2594   5.2820   5.3005   5.3186   5.3608
     5.3696   5.3717   5.4035   5.4459   5.4806   5.4967   5.5214   5.5346
     5.5704   5.6271   5.6295   5.6316   5.6322   5.7108   5.7266   5.7437
     5.7571   5.7577   5.8091   5.8115   5.8495   5.8673   5.8842   5.8855
     5.9053   5.9080   5.9381   5.9590   6.0026   6.0283   6.0332   6.0347
     6.0521   6.0596   6.0930   6.0985   6.1357   6.1535   6.1636   6.1721
     6.1780   6.2159   6.2519   6.2578   6.2794   6.2935   6.2949   6.3117
     6.3391   6.3405   6.3814   6.3874   6.3876   6.4044   6.4234   6.5123
     6.5918   6.6039   6.6082   6.6280   6.6437   6.6741   6.6752   6.6965
     6.7176   6.7224   6.7771   6.7931   6.7936   6.8258   6.8372   6.8586
     6.8718   6.8812   6.8813   6.8992   6.9321   6.9362   6.9488   6.9499
     7.0056   7.0079   7.0295   7.0504   7.0619   7.0623   7.0893   7.1394
     7.1677   7.1991   7.2425   7.2678   7.2841   7.2890   7.2928   7.3005
     7.3600   7.3790   7.4126   7.4146   7.4227   7.4586   7.4858   7.4985
     7.5003   7.5173   7.5297   7.5352   7.5449   7.5595   7.5686   7.5763
     7.5833   7.5840   7.6446   7.6542   7.6549   7.6841   7.6876   7.7080
     7.7112   7.7454   7.7711   7.8039   7.8046   7.8470   7.8604   7.8732
     7.8919   7.9057   7.9059   7.9391   7.9645   7.9667   7.9948   8.0205
     8.0233   8.0298   8.0349   8.0636   8.0816   8.0870   8.0964   8.1126
     8.1128   8.1171   8.1618   8.1855   8.2382   8.2661   8.2793   8.2963
     8.3039   8.3535   8.3615   8.3615   8.3674   8.3800   8.3906   8.3913
     8.3931   8.3966   8.3983   8.4207   8.4385   8.4531   8.4675   8.4680
     8.4868   8.5017   8.5576   8.5834   8.6031   8.6289   8.6366   8.6410
     8.6414   8.6746   8.7069   8.7262   8.7480   8.7485   8.7513   8.7645
     8.7848   8.8132   8.8380   8.8633   8.9038   8.9281   8.9290   8.9303
     8.9441   8.9646   8.9785   8.9853

     the Fermi energy is    -2.8575 ev

     Writing output data file LS7_2_11_2_a.save/

     init_run     :     21.42s CPU     21.83s WALL (       1 calls)
     electrons    :  10720.96s CPU  10780.94s WALL (       1 calls)

     Called by init_run:
     wfcinit      :      0.00s CPU      0.00s WALL (       1 calls)
     potinit      :      1.36s CPU      1.49s WALL (       1 calls)
     hinit0       :     16.65s CPU     16.71s WALL (       1 calls)

     Called by electrons:
     c_bands      :  10720.84s CPU  10780.77s WALL (       1 calls)
     v_of_rho     :      1.01s CPU      1.07s WALL (       1 calls)
     newd         :      1.06s CPU      1.25s WALL (       1 calls)

     Called by c_bands:
     init_us_2    :      0.67s CPU      0.69s WALL (      26 calls)
     cegterg      :  10472.61s CPU  10526.58s WALL (      78 calls)

     Called by sum_band:

     Called by *egterg:
     h_psi        :   3529.49s CPU   3553.74s WALL (    1247 calls)
     s_psi        :    332.31s CPU    332.55s WALL (    1247 calls)
     g_psi        :     16.10s CPU     16.11s WALL (    1143 calls)
     cdiaghg      :   2990.62s CPU   2992.60s WALL (    1169 calls)

     Called by h_psi:
     h_psi:pot    :   3521.29s CPU   3541.35s WALL (    1247 calls)
     h_psi:calbec :    389.69s CPU    391.98s WALL (    1247 calls)
     vloc_psi     :   2799.77s CPU   2817.32s WALL (    1247 calls)
     add_vuspsi   :    331.82s CPU    332.04s WALL (    1247 calls)

     General routines
     calbec       :    389.68s CPU    391.97s WALL (    1247 calls)
     fft          :      1.61s CPU      1.68s WALL (      14 calls)
     ffts         :      0.02s CPU      0.02s WALL (       1 calls)
     fftw         :   2631.59s CPU   2648.56s WALL (  572614 calls)
     interpolate  :      0.11s CPU      0.11s WALL (       1 calls)
     davcio       :      0.00s CPU      4.06s WALL (      52 calls)

     Parallel routines
     fft_scatt_xy :    206.80s CPU    207.51s WALL (  572629 calls)
     fft_scatt_yz :   1781.02s CPU   1795.50s WALL (  572629 calls)

     PWSCF        :     2h59m CPU       59h 3m WALL

       7h

   This run was terminated on:   8:25:48  23Apr2021            

=------------------------------------------------------------------------------=
   JOB DONE.
=------------------------------------------------------------------------------=
