
     Program PWSCF v.6.3 starts on 23Apr2021 at  5: 7:33 

     This program is part of the open-source Quantum ESPRESSO suite
     for quantum simulation of materials; please cite
         "P. Giannozzi et al., J. Phys.:Condens. Matter 21 395502 (2009);
         "P. Giannozzi et al., J. Phys.:Condens. Matter 29 465901 (2017);
          URL http://www.quantum-espresso.org", 
     in publications or presentations arising from this work. More details at
     http://www.quantum-espresso.org/quote

     Parallel version (MPI), running on    16 processors
     R & G space division:  proc/nbgrp/npool/nimage =      16
     Waiting for input...
     Reading input from standard input
     Message from routine read_cards :
     DEPRECATED: no units specified in CELL_PARAMETERS card

     Current dimensions of program PWSCF are:
     Max number of different atomic species (ntypx) = 10
     Max number of k-points (npk) =  40000
     Max angular momentum in pseudopotentials (lmaxx) =  3

     Atomic positions and unit cell read from directory:
     /home/zfwang/scratch/GNRDATASET/AGNR/LS7_2_9_3/LS7_2_9_3.save/


     Subspace diagonalization in iterative solution of the eigenvalue problem:
     a serial algorithm will be used


     Parallelization info
     --------------------
     sticks:   dense  smooth     PW     G-vecs:    dense   smooth      PW
     Min        2556     852    219               478608    92086   11953
     Max        2558     853    220               478613    92089   11956
     Sum       40909   13645   3505              7657741  1473411  191275



     bravais-lattice index     =            0
     lattice parameter (alat)  =       1.8897  a.u.
     unit-cell volume          =   43121.8574 (a.u.)^3
     number of atoms/cell      =          102
     number of atomic types    =            2
     number of electrons       =       348.00
     number of Kohn-Sham states=          500
     kinetic-energy cutoff     =      40.0000  Ry
     charge density cutoff     =     480.0000  Ry
     Exchange-correlation      = PBE ( 1  4  3  4 0 0)

     celldm(1)=  18.897261  celldm(2)=   3.000000  celldm(3)=   2.130000
     celldm(4)=   0.000000  celldm(5)=   0.000000  celldm(6)=   0.000000

     crystal axes: (cart. coord. in units of alat)
               a(1) = (  10.000000   0.000000   0.000000 )  
               a(2) = (   0.000000  30.000000   0.000000 )  
               a(3) = (   0.000000   0.000000  21.300000 )  

     reciprocal axes: (cart. coord. in units 2 pi/alat)
               b(1) = (  0.100000  0.000000  0.000000 )  
               b(2) = (  0.000000  0.033333  0.000000 )  
               b(3) = (  0.000000  0.000000  0.046948 )  


     PseudoPot. # 1 for C  read from file:
     /home/zfwang/hp_home/MySoftware/qe-6.3/pseudo/C.pbe-n-rrkjus_psl.0.1.UPF
     MD5 check sum: fff530ed632a789b3b184014e67dd7f1
     Pseudo is Ultrasoft + core correction, Zval =  4.0
     Generated using "atomic" code by A. Dal Corso v.5.0.2 svn rev. 9415
     Using radial grid of 1073 points,  4 beta functions with: 
                l(1) =   0
                l(2) =   0
                l(3) =   1
                l(4) =   1
     Q(r) pseudized with 0 coefficients 


     PseudoPot. # 2 for H  read from file:
     /home/zfwang/hp_home/MySoftware/qe-6.3/pseudo/H.pbe-rrkjus_psl.0.1.UPF
     MD5 check sum: e164a6907b691c6980f16942be34de84
     Pseudo is Ultrasoft, Zval =  1.0
     Generated using "atomic" code by A. Dal Corso v.5.0.2 svn rev. 9415
     Using radial grid of  929 points,  2 beta functions with: 
                l(1) =   0
                l(2) =   0
     Q(r) pseudized with 0 coefficients 


     atomic species   valence    mass     pseudopotential
        C              4.00    12.01070     C ( 1.00)
        H              1.00     1.00794     H ( 1.00)

     No symmetry found



   Cartesian axes

     site n.     atom                  positions (alat units)
         1           C   tau(   1) = (   5.0000002  10.0780325   7.0538463  )
         2           C   tau(   2) = (   4.9999999  10.0819065  11.3313701  )
         3           C   tau(   3) = (   5.0000002  10.0861216  15.6083468  )
         4           C   tau(   4) = (   4.9999997  11.3318268   3.5792112  )
         5           C   tau(   5) = (   5.0000000  11.2898563   7.8041392  )
         6           C   tau(   6) = (   4.9999999  11.2905941  12.0728922  )
         7           C   tau(   7) = (   5.0000001  11.3114776  16.3298994  )
         8           C   tau(   8) = (   5.0000004  11.3281137  20.6159491  )
         9           C   tau(   9) = (   4.9999999  10.0861260   5.6916583  )
        10           C   tau(  10) = (   4.9999998  10.0819117   9.9686324  )
        11           C   tau(  11) = (   5.0000003  10.0780338  14.2461463  )
        12           C   tau(  12) = (   5.0000000  12.5257731   2.8556158  )
        13           C   tau(  13) = (   4.9999999  12.5297846   7.1076654  )
        14           C   tau(  14) = (   4.9999999  12.5241787  11.3612020  )
        15           C   tau(  15) = (   5.0000002  12.5418361  15.6100229  )
        16           C   tau(  16) = (   5.0000005  12.5315460  19.8834495  )
        17           C   tau(  17) = (   5.0000001  13.7666074   3.5581657  )
        18           C   tau(  18) = (   4.9999999  13.7654146   7.8191138  )
        19           C   tau(  19) = (   4.9999998  13.7643399  12.0669901  )
        20           C   tau(  20) = (   5.0000002  13.7684739  16.3219363  )
        21           C   tau(  21) = (   5.0000005  13.7630749  20.5858094  )
        22           C   tau(  22) = (   5.0000000  11.3281189   0.6840460  )
        23           C   tau(  23) = (   4.9999998  11.3114787   4.9700980  )
        24           C   tau(  24) = (   5.0000000  11.2905990   9.2271081  )
        25           C   tau(  25) = (   5.0000000  11.2898604  13.4958625  )
        26           C   tau(  26) = (   5.0000001  11.3318192  17.7207866  )
        27           C   tau(  27) = (   5.0000002  12.5315546   1.4165469  )
        28           C   tau(  28) = (   4.9999999  12.5418391   5.6899799  )
        29           C   tau(  29) = (   5.0000000  12.5241783   9.9387995  )
        30           C   tau(  30) = (   5.0000000  12.5297863  14.1923338  )
        31           C   tau(  31) = (   5.0000003  12.5257726  18.4443832  )
        32           C   tau(  32) = (   5.0000003  14.9999992   2.8434531  )
        33           C   tau(  33) = (   4.9999999  15.0000000   7.1068220  )
        34           C   tau(  34) = (   4.9999998  15.0000011  11.3577976  )
        35           C   tau(  35) = (   5.0000002  15.0000005  15.6086508  )
        36           C   tau(  36) = (   5.0000005  14.9999993  19.8735306  )
        37           C   tau(  37) = (   5.0000001  16.2333923   3.5581653  )
        38           C   tau(  38) = (   4.9999998  16.2345853   7.8191138  )
        39           C   tau(  39) = (   4.9999999  16.2356626  12.0669907  )
        40           C   tau(  40) = (   5.0000002  16.2315266  16.3219368  )
        41           C   tau(  41) = (   5.0000005  16.2369229  20.5858100  )
        42           C   tau(  42) = (   5.0000005  13.7630761   0.7141898  )
        43           C   tau(  43) = (   5.0000000  13.7684734   4.9780639  )
        44           C   tau(  44) = (   4.9999999  13.7643418   9.2330146  )
        45           C   tau(  45) = (   4.9999999  13.7654171  13.4808884  )
        46           C   tau(  46) = (   5.0000002  13.7666051  17.7418337  )
        47           C   tau(  47) = (   5.0000006  14.9999987   1.4264665  )
        48           C   tau(  48) = (   4.9999999  14.9999998   5.6913542  )
        49           C   tau(  49) = (   4.9999998  15.0000008   9.9422088  )
        50           C   tau(  50) = (   5.0000001  15.0000010  14.1931799  )
        51           C   tau(  51) = (   5.0000004  15.0000001  18.4565470  )
        52           C   tau(  52) = (   5.0000002  17.4742266   2.8556152  )
        53           C   tau(  53) = (   4.9999998  17.4702153   7.1076648  )
        54           C   tau(  54) = (   4.9999998  17.4758232  11.3612019  )
        55           C   tau(  55) = (   5.0000002  17.4581652  15.6100233  )
        56           C   tau(  56) = (   5.0000003  17.4684529  19.8834499  )
        57           C   tau(  57) = (   5.0000000  18.6681748   3.5792099  )
        58           C   tau(  58) = (   4.9999999  18.7101432   7.8041392  )
        59           C   tau(  59) = (   4.9999999  18.7094074  12.0728918  )
        60           C   tau(  60) = (   5.0000003  18.6885231  16.3299016  )
        61           C   tau(  61) = (   5.0000001  18.6718856  20.6159506  )
        62           C   tau(  62) = (   5.0000006  16.2369219   0.7141894  )
        63           C   tau(  63) = (   4.9999999  16.2315266   4.9780635  )
        64           C   tau(  64) = (   4.9999997  16.2356596   9.2330146  )
        65           C   tau(  65) = (   5.0000002  16.2345850  13.4808882  )
        66           C   tau(  66) = (   5.0000004  16.2333960  17.7418337  )
        67           C   tau(  67) = (   5.0000003  17.4684442   1.4165468  )
        68           C   tau(  68) = (   4.9999997  17.4581613   5.6899788  )
        69           C   tau(  69) = (   4.9999997  17.4758234   9.9387999  )
        70           C   tau(  70) = (   5.0000001  17.4702154  14.1923343  )
        71           C   tau(  71) = (   5.0000002  17.4742282  18.4443847  )
        72           C   tau(  72) = (   4.9999996  19.9219663   7.0538468  )
        73           C   tau(  73) = (   4.9999998  19.9180946  11.3313694  )
        74           C   tau(  74) = (   5.0000002  19.9138774  15.6083463  )
        75           C   tau(  75) = (   5.0000000  18.6718807   0.6840461  )
        76           C   tau(  76) = (   4.9999997  18.6885216   4.9700971  )
        77           C   tau(  77) = (   4.9999999  18.7094018   9.2271084  )
        78           C   tau(  78) = (   4.9999999  18.7101406  13.4958614  )
        79           C   tau(  79) = (   5.0000002  18.6681828  17.7207886  )
        80           C   tau(  80) = (   4.9999995  19.9138735   5.6916574  )
        81           C   tau(  81) = (   5.0000000  19.9180893   9.9686314  )
        82           C   tau(  82) = (   4.9999998  19.9219658  14.2461474  )
        83           H   tau(  83) = (   5.0000005   9.1208499   7.5695370  )
        84           H   tau(  84) = (   4.9999997   9.1254050  11.8473080  )
        85           H   tau(  85) = (   5.0000002   9.1495468  16.1670388  )
        86           H   tau(  86) = (   4.9999997   9.1495480   5.1329572  )
        87           H   tau(  87) = (   4.9999998   9.1254174   9.4526896  )
        88           H   tau(  88) = (   5.0000007   9.1208615  13.7304521  )
        89           H   tau(  89) = (   4.9999995  20.8791483   7.5695375  )
        90           H   tau(  90) = (   4.9999999  20.8745951  11.8473082  )
        91           H   tau(  91) = (   5.0000003  20.8504518  16.1670403  )
        92           H   tau(  92) = (   4.9999993  20.8504503   5.1329556  )
        93           H   tau(  93) = (   5.0000004  20.8745832   9.4526883  )
        94           H   tau(  94) = (   4.9999996  20.8791382  13.7304528  )
        95           H   tau(  95) = (   4.9999993  10.3713366   3.0677068  )
        96           H   tau(  96) = (   5.0000005  10.3703774  20.1013770  )
        97           H   tau(  97) = (   4.9999999  10.3703961   1.1986275  )
        98           H   tau(  98) = (   5.0000002  10.3713343  18.2322928  )
        99           H   tau(  99) = (   5.0000000  19.6286649   3.0677050  )
       100           H   tau( 100) = (   4.9999996  19.6296210  20.1013753  )
       101           H   tau( 101) = (   4.9999997  19.6296033   1.1986298  )
       102           H   tau( 102) = (   4.9999999  19.6286680  18.2322965  )

     number of k points=    26  Marzari-Vanderbilt smearing, width (Ry)=  0.0100
                       cart. coord. in units 2pi/alat
        k(    1) = (   0.0000000   0.0000000   0.0000000), wk =   0.0400000
        k(    2) = (   0.0000000   0.0000000   0.0009390), wk =   0.0800000
        k(    3) = (   0.0000000   0.0000000   0.0018779), wk =   0.0800000
        k(    4) = (   0.0000000   0.0000000   0.0028169), wk =   0.0800000
        k(    5) = (   0.0000000   0.0000000   0.0037559), wk =   0.0800000
        k(    6) = (   0.0000000   0.0000000   0.0046948), wk =   0.0800000
        k(    7) = (   0.0000000   0.0000000   0.0056338), wk =   0.0800000
        k(    8) = (   0.0000000   0.0000000   0.0065728), wk =   0.0800000
        k(    9) = (   0.0000000   0.0000000   0.0075117), wk =   0.0800000
        k(   10) = (   0.0000000   0.0000000   0.0084507), wk =   0.0800000
        k(   11) = (   0.0000000   0.0000000   0.0093897), wk =   0.0800000
        k(   12) = (   0.0000000   0.0000000   0.0103286), wk =   0.0800000
        k(   13) = (   0.0000000   0.0000000   0.0112676), wk =   0.0800000
        k(   14) = (   0.0000000   0.0000000   0.0122066), wk =   0.0800000
        k(   15) = (   0.0000000   0.0000000   0.0131455), wk =   0.0800000
        k(   16) = (   0.0000000   0.0000000   0.0140845), wk =   0.0800000
        k(   17) = (   0.0000000   0.0000000   0.0150235), wk =   0.0800000
        k(   18) = (   0.0000000   0.0000000   0.0159624), wk =   0.0800000
        k(   19) = (   0.0000000   0.0000000   0.0169014), wk =   0.0800000
        k(   20) = (   0.0000000   0.0000000   0.0178404), wk =   0.0800000
        k(   21) = (   0.0000000   0.0000000   0.0187793), wk =   0.0800000
        k(   22) = (   0.0000000   0.0000000   0.0197183), wk =   0.0800000
        k(   23) = (   0.0000000   0.0000000   0.0206573), wk =   0.0800000
        k(   24) = (   0.0000000   0.0000000   0.0215962), wk =   0.0800000
        k(   25) = (   0.0000000   0.0000000   0.0225352), wk =   0.0800000
        k(   26) = (   0.0000000   0.0000000  -0.0234742), wk =   0.0400000

     Dense  grid:  7657741 G-vectors     FFT dimensions: ( 135, 400, 288)

     Smooth grid:  1473411 G-vectors     FFT dimensions: (  80, 240, 180)

     Estimated max dynamical RAM per process >       1.56 GB

     Estimated total dynamical RAM >      24.98 GB

     The potential is recalculated from file :
     /home/zfwang/scratch/GNRDATASET/AGNR/LS7_2_9_3/LS7_2_9_3.save/charge-density.dat


     negative rho (up, down):  5.074E-04 0.000E+00
     Starting wfcs are  348 randomized atomic wfcs +  152 random wfcs

     Band Structure Calculation
     Davidson diagonalization with overlap
     c_bands:  2 eigenvalues not converged
     c_bands:  1 eigenvalues not converged

     ethr =  2.87E-09,  avg # of iterations = 69.5

     total cpu time spent up to now is    16161.9 secs

     End of band structure calculation

          k = 0.0000 0.0000 0.0000 (184101 PWs)   bands (ev):

   -21.8074 -21.5846 -21.5209 -21.2088 -20.9737 -20.8854 -20.8235 -20.7693
   -20.3048 -20.2770 -20.0848 -20.0464 -19.7678 -19.6746 -19.5966 -19.1607
   -19.1487 -19.0940 -19.0651 -18.9290 -18.7399 -18.3574 -18.1706 -18.1682
   -18.0427 -17.9227 -17.6911 -17.6715 -17.5626 -17.5054 -17.3783 -17.3534
   -17.1052 -16.9019 -16.6561 -16.6452 -16.5758 -16.4658 -16.3110 -15.9418
   -15.6730 -15.4511 -15.2327 -15.1626 -15.1091 -14.9252 -14.8568 -14.6477
   -14.6351 -14.5342 -14.4875 -14.4249 -13.7881 -13.6879 -13.6727 -13.6162
   -13.5248 -13.4398 -13.4246 -13.2127 -13.1964 -12.9057 -12.8276 -12.6647
   -12.4810 -12.0610 -12.0215 -12.0026 -11.7413 -11.6498 -11.6368 -11.5796
   -11.5175 -11.3909 -11.3748 -11.2916 -11.1528 -11.0114 -10.8837 -10.8759
   -10.7877 -10.4670 -10.4139 -10.3643 -10.2424 -10.1323 -10.0864  -9.9305
    -9.8933  -9.8770  -9.8531  -9.8078  -9.6066  -9.5918  -9.5479  -9.5410
    -9.5088  -9.4319  -9.2535  -9.2415  -9.1953  -9.1758  -9.1667  -9.1284
    -9.1214  -9.0790  -8.9276  -8.9120  -8.9069  -8.8504  -8.7730  -8.7236
    -8.6976  -8.6058  -8.5734  -8.5316  -8.5208  -8.4309  -8.3757  -8.2649
    -8.1995  -8.1812  -8.1542  -8.1110  -8.0808  -8.0803  -8.0359  -7.9297
    -7.9148  -7.8971  -7.8762  -7.4992  -7.4842  -7.4694  -7.4050  -7.3658
    -7.3518  -7.2671  -7.2644  -7.0642  -6.9232  -6.8914  -6.8617  -6.7979
    -6.7524  -6.7287  -6.6922  -6.5780  -6.5143  -6.4923  -6.3262  -6.3126
    -6.1017  -5.9583  -5.8521  -5.7839  -5.7511  -5.6068  -5.6030  -5.4009
    -5.3283  -5.2552  -5.1790  -5.0538  -5.0460  -4.9972  -4.7138  -4.5603
    -4.2977  -4.2637  -4.1289  -3.8723  -3.6744  -2.7200  -2.3543  -1.4839
    -1.2336  -1.0705  -0.9465  -0.9095  -0.8565  -0.7420  -0.5282  -0.2008
    -0.0850  -0.0705  -0.0285   0.0576   0.2657   0.4145   0.4486   0.5162
     0.5750   0.6065   0.6187   0.8106   0.8474   0.8478   0.8551   0.8691
     0.9071   1.1743   1.1769   1.1881   1.3616   1.4574   1.4896   1.5097
     1.6412   1.6521   1.6616   1.7002   1.7561   1.7843   1.8010   1.8588
     1.8814   1.9395   1.9469   2.0177   2.0557   2.0599   2.0926   2.1264
     2.1399   2.1463   2.2271   2.2991   2.3257   2.3809   2.3912   2.4340
     2.4823   2.4878   2.4957   2.5152   2.5688   2.5831   2.6135   2.6161
     2.6517   2.6684   2.6987   2.7455   2.8030   2.8290   2.8303   2.8457
     2.8736   2.8866   2.9302   2.9443   2.9482   2.9657   3.0330   3.0685
     3.0760   3.1349   3.1371   3.1576   3.1701   3.2120   3.2489   3.2509
     3.3101   3.3283   3.3317   3.3431   3.3477   3.3720   3.3758   3.3811
     3.4633   3.5103   3.5650   3.5679   3.5711   3.5811   3.5817   3.5896
     3.6519   3.6862   3.6992   3.7002   3.7413   3.7441   3.7565   3.8009
     3.8029   3.8121   3.8418   3.8425   3.8782   3.8942   3.8945   3.9158
     3.9382   3.9520   3.9654   3.9898   4.0169   4.0796   4.1123   4.1155
     4.1411   4.1494   4.1754   4.2079   4.2509   4.2521   4.2651   4.3042
     4.3177   4.3262   4.4164   4.4319   4.4427   4.4699   4.5156   4.5430
     4.5510   4.5932   4.6161   4.6537   4.6622   4.6755   4.6919   4.7005
     4.7290   4.7639   4.7650   4.8007   4.8129   4.8350   4.8713   4.8714
     4.8779   4.8947   4.8951   4.9189   4.9423   4.9461   4.9691   4.9945
     5.0016   5.0264   5.0346   5.0516   5.0590   5.0689   5.0801   5.0804
     5.0820   5.1056   5.1221   5.1719   5.2262   5.2399   5.2437   5.2839
     5.3703   5.3746   5.4108   5.4195   5.4223   5.4284   5.4383   5.4685
     5.4767   5.4872   5.4895   5.5074   5.5384   5.5619   5.5721   5.5730
     5.5803   5.6231   5.6590   5.6635   5.7034   5.7266   5.7461   5.7694
     5.7823   5.8007   5.8098   5.8133   5.8375   5.8620   5.9002   5.9027
     5.9163   5.9451   5.9525   5.9527   5.9607   5.9675   5.9684   5.9995
     6.0244   6.0367   6.0522   6.0656   6.0804   6.0817   6.0864   6.0899
     6.1423   6.1680   6.2193   6.2259   6.2316   6.2668   6.2680   6.2811
     6.2895   6.2954   6.2991   6.3095   6.3360   6.3364   6.3426   6.3709
     6.3770   6.3976   6.4069   6.4215   6.4513   6.4526   6.4639   6.4645
     6.4792   6.4816   6.5105   6.5206   6.5362   6.5393   6.5653   6.5793
     6.5992   6.6194   6.6238   6.6550   6.6603   6.6665   6.6724   6.6989
     6.7046   6.7070   6.7111   6.7639   6.8085   6.8311   6.8517   6.8605
     6.9124   6.9234   6.9285   6.9444   6.9658   6.9932   7.0011   7.0019
     7.0629   7.0808   7.0857   7.0893   7.0902   7.1514   7.1726   7.1763
     7.1924   7.1947   7.2061   7.2280   7.2582   7.2711   7.2761   7.2843
     7.3042   7.3230   7.3359   7.3455   7.3640   7.3659   7.3723   7.3867
     7.3908   7.3963   7.4155   7.4204   7.4370   7.4399   7.4805   7.4833
     7.4895   7.4900   7.4985   7.5095

          k = 0.0000 0.0000 0.0009 (184071 PWs)   bands (ev):

   -21.8073 -21.5858 -21.5195 -21.2087 -20.9739 -20.8904 -20.8183 -20.7689
   -20.3048 -20.2785 -20.0831 -20.0465 -19.7732 -19.6715 -19.5940 -19.1614
   -19.1534 -19.0958 -19.0590 -18.9280 -18.7392 -18.3574 -18.1992 -18.1410
   -18.0464 -17.9175 -17.6911 -17.6749 -17.5631 -17.5049 -17.3783 -17.3498
   -17.1052 -16.9025 -16.6734 -16.6298 -16.5753 -16.4659 -16.3111 -15.9436
   -15.6720 -15.4507 -15.2322 -15.1606 -15.1091 -14.9258 -14.8568 -14.6487
   -14.6373 -14.5320 -14.4870 -14.4236 -13.7881 -13.7269 -13.6339 -13.6261
   -13.5156 -13.4462 -13.4181 -13.2129 -13.1969 -12.9052 -12.8278 -12.6640
   -12.4804 -12.0627 -12.0213 -12.0014 -11.7467 -11.6450 -11.6389 -11.5797
   -11.5162 -11.3953 -11.3733 -11.2983 -11.1440 -11.0092 -10.8853 -10.8750
   -10.7877 -10.4687 -10.4125 -10.3627 -10.2435 -10.1323 -10.0889  -9.9349
    -9.8894  -9.8769  -9.8586  -9.7988  -9.6084  -9.5918  -9.5458  -9.5408
    -9.5090  -9.4325  -9.2547  -9.2435  -9.1952  -9.1902  -9.1516  -9.1306
    -9.1198  -9.0766  -8.9271  -8.9156  -8.9123  -8.8408  -8.7812  -8.7153
    -8.6970  -8.6060  -8.5734  -8.5320  -8.5217  -8.4328  -8.3753  -8.2659
    -8.2000  -8.1812  -8.1547  -8.1171  -8.0828  -8.0722  -8.0359  -7.9348
    -7.9121  -7.8902  -7.8762  -7.5034  -7.4868  -7.4713  -7.4096  -7.3633
    -7.3426  -7.2739  -7.2562  -7.0643  -6.9230  -6.8927  -6.8621  -6.7981
    -6.7661  -6.7158  -6.6906  -6.5854  -6.5072  -6.4908  -6.3373  -6.3017
    -6.1017  -5.9585  -5.8523  -5.8025  -5.7329  -5.6335  -5.5760  -5.4013
    -5.3283  -5.2557  -5.1789  -5.0633  -5.0460  -4.9879  -4.7131  -4.5611
    -4.2975  -4.2690  -4.1236  -3.8723  -3.6752  -2.7218  -2.3525  -1.4830
    -1.2335  -1.0725  -0.9469  -0.9107  -0.8526  -0.7414  -0.5282  -0.2008
    -0.1056  -0.0557  -0.0316   0.0667   0.2643   0.3999   0.4629   0.5164
     0.5744   0.5751   0.6531   0.8071   0.8475   0.8497   0.8566   0.8655
     0.9109   1.1666   1.1773   1.1958   1.3617   1.4571   1.4834   1.5161
     1.6375   1.6502   1.6645   1.6953   1.7522   1.7858   1.8060   1.8515
     1.8850   1.9463   1.9476   2.0141   2.0558   2.0639   2.0936   2.1090
     2.1460   2.1564   2.2280   2.2996   2.3231   2.3838   2.3901   2.4261
     2.4838   2.4954   2.4958   2.5153   2.5645   2.5792   2.6171   2.6213
     2.6411   2.6698   2.7092   2.7453   2.7981   2.8230   2.8353   2.8520
     2.8721   2.8816   2.9242   2.9445   2.9539   2.9703   3.0187   3.0605
     3.0858   3.1320   3.1354   3.1545   3.1836   3.2064   3.2543   3.2552
     3.3063   3.3228   3.3324   3.3367   3.3385   3.3836   3.3846   3.3857
     3.4674   3.5093   3.5463   3.5652   3.5775   3.5816   3.5910   3.5971
     3.6476   3.6869   3.6900   3.7130   3.7161   3.7419   3.7775   3.7860
     3.8061   3.8185   3.8315   3.8663   3.8741   3.8891   3.8945   3.9159
     3.9310   3.9538   3.9791   3.9823   4.0233   4.0581   4.1122   4.1349
     4.1372   4.1463   4.1835   4.2071   4.2339   4.2545   4.2690   4.2994
     4.3277   4.3284   4.4216   4.4341   4.4449   4.4699   4.5141   4.5327
     4.5556   4.5974   4.6041   4.6554   4.6713   4.6756   4.6883   4.7002
     4.7242   4.7607   4.7794   4.7998   4.8082   4.8312   4.8647   4.8774
     4.8790   4.8866   4.8882   4.9074   4.9430   4.9672   4.9734   4.9947
     5.0047   5.0209   5.0308   5.0440   5.0592   5.0667   5.0755   5.0917
     5.0958   5.1075   5.1262   5.1682   5.2191   5.2425   5.2511   5.2843
     5.3701   5.3712   5.3801   5.4206   5.4220   5.4372   5.4591   5.4657
     5.4679   5.4758   5.4946   5.5140   5.5366   5.5442   5.5626   5.5770
     5.6099   5.6312   5.6590   5.6633   5.6876   5.7236   5.7665   5.7720
     5.7811   5.7952   5.8010   5.8147   5.8365   5.8540   5.9021   5.9161
     5.9175   5.9182   5.9528   5.9608   5.9627   5.9677   5.9789   6.0076
     6.0247   6.0248   6.0548   6.0665   6.0676   6.0835   6.0926   6.1098
     6.1407   6.1664   6.2120   6.2161   6.2256   6.2648   6.2657   6.2713
     6.2828   6.2986   6.3040   6.3118   6.3284   6.3491   6.3501   6.3726
     6.3867   6.3911   6.4080   6.4278   6.4462   6.4526   6.4581   6.4627
     6.4762   6.4849   6.5018   6.5097   6.5290   6.5533   6.5733   6.5845
     6.5878   6.6192   6.6396   6.6544   6.6614   6.6664   6.6874   6.6954
     6.7075   6.7076   6.7162   6.7609   6.8107   6.8313   6.8524   6.8550
     6.9185   6.9233   6.9278   6.9338   6.9746   6.9898   7.0010   7.0039
     7.0627   7.0771   7.0858   7.0910   7.0914   7.1439   7.1692   7.1751
     7.1833   7.2021   7.2075   7.2326   7.2577   7.2622   7.2841   7.2902
     7.3041   7.3208   7.3374   7.3420   7.3456   7.3530   7.3679   7.3887
     7.4031   7.4079   7.4159   7.4309   7.4309   7.4378   7.4660   7.4790
     7.4975   7.4998   7.5098   7.5098

          k = 0.0000 0.0000 0.0019 (184063 PWs)   bands (ev):

   -21.8071 -21.5891 -21.5156 -21.2087 -20.9746 -20.9023 -20.8059 -20.7675
   -20.3048 -20.2829 -20.0781 -20.0466 -19.7871 -19.6646 -19.5861 -19.1660
   -19.1637 -19.0983 -19.0455 -18.9248 -18.7373 -18.3574 -18.2297 -18.1167
   -18.0538 -17.9037 -17.6909 -17.6844 -17.5650 -17.5030 -17.3780 -17.3394
   -17.1052 -16.9043 -16.6963 -16.6129 -16.5738 -16.4657 -16.3116 -15.9488
   -15.6691 -15.4494 -15.2307 -15.1548 -15.1089 -14.9276 -14.8569 -14.6518
   -14.6432 -14.5259 -14.4856 -14.4201 -13.7883 -13.7727 -13.6488 -13.5890
   -13.4951 -13.4567 -13.4069 -13.2137 -13.1983 -12.9038 -12.8285 -12.6620
   -12.4786 -12.0673 -12.0207 -11.9982 -11.7602 -11.6446 -11.6334 -11.5800
   -11.5126 -11.4090 -11.3691 -11.3124 -11.1231 -11.0022 -10.8897 -10.8721
   -10.7877 -10.4735 -10.4081 -10.3581 -10.2469 -10.1322 -10.0955  -9.9476
    -9.8784  -9.8766  -9.8672  -9.7801  -9.6134  -9.5917  -9.5401  -9.5400
    -9.5096  -9.4346  -9.2588  -9.2491  -9.2062  -9.1951  -9.1387  -9.1305
    -9.1153  -9.0703  -8.9332  -8.9255  -8.9132  -8.8208  -8.7981  -8.6978
    -8.6952  -8.6064  -8.5734  -8.5333  -8.5242  -8.4383  -8.3743  -8.2687
    -8.2015  -8.1811  -8.1561  -8.1269  -8.0898  -8.0550  -8.0361  -7.9441
    -7.9045  -7.8763  -7.8753  -7.5156  -7.4941  -7.4766  -7.4171  -7.3565
    -7.3220  -7.2808  -7.2452  -7.0644  -6.9226  -6.8965  -6.8637  -6.7990
    -6.7874  -6.6969  -6.6859  -6.6021  -6.4915  -6.4864  -6.3535  -6.2862
    -6.1016  -5.9591  -5.8528  -5.8319  -5.7051  -5.6611  -5.5470  -5.4024
    -5.3282  -5.2571  -5.1787  -5.0827  -5.0460  -4.9689  -4.7106  -4.5635
    -4.2971  -4.2830  -4.1095  -3.8724  -3.6776  -2.7273  -2.3473  -1.4805
    -1.2333  -1.0783  -0.9481  -0.9129  -0.8421  -0.7398  -0.5280  -0.2009
    -0.1348  -0.0561  -0.0238   0.0889   0.2595   0.3769   0.4826   0.5168
     0.5427   0.5755   0.6942   0.7990   0.8465   0.8522   0.8574   0.8633
     0.9197   1.1550   1.1777   1.2081   1.3620   1.4563   1.4724   1.5278
     1.6294   1.6448   1.6703   1.6827   1.7422   1.7897   1.8190   1.8343
     1.8949   1.9496   1.9620   2.0055   2.0558   2.0734   2.0862   2.0965
     2.1451   2.1761   2.2316   2.3012   2.3166   2.3870   2.3911   2.4095
     2.4876   2.4964   2.5117   2.5157   2.5549   2.5707   2.6206   2.6246
     2.6337   2.6740   2.7290   2.7449   2.7883   2.8132   2.8452   2.8624
     2.8675   2.8697   2.9133   2.9449   2.9637   2.9814   2.9871   3.0533
     3.0965   3.1192   3.1369   3.1458   3.1938   3.2149   3.2629   3.2679
     3.2966   3.3066   3.3216   3.3341   3.3367   3.3908   3.4034   3.4054
     3.4786   3.5065   3.5228   3.5659   3.5781   3.5829   3.5948   3.6209
     3.6377   3.6748   3.6799   3.7038   3.7266   3.7334   3.7708   3.7876
     3.7956   3.8286   3.8558   3.8644   3.8793   3.8908   3.8919   3.9009
     3.9375   3.9594   3.9681   4.0012   4.0264   4.0334   4.1119   4.1247
     4.1377   4.1696   4.2000   4.2046   4.2056   4.2616   4.2645   4.2927
     4.3319   4.3485   4.4312   4.4449   4.4512   4.4697   4.5095   4.5155
     4.5597   4.5823   4.6054   4.6523   4.6759   4.6765   4.6929   4.6992
     4.7216   4.7627   4.7880   4.8005   4.8093   4.8170   4.8535   4.8660
     4.8734   4.8764   4.8803   4.9045   4.9635   4.9659   4.9910   4.9953
     5.0050   5.0158   5.0335   5.0406   5.0529   5.0600   5.0803   5.1098
     5.1112   5.1148   5.1399   5.1573   5.2165   5.2392   5.2663   5.2841
     5.3423   5.3592   5.3740   5.4210   5.4242   5.4267   5.4534   5.4650
     5.4680   5.4712   5.4974   5.5167   5.5312   5.5393   5.5643   5.5907
     5.6290   5.6404   5.6605   5.6629   5.6851   5.7158   5.7764   5.7772
     5.7773   5.7839   5.8006   5.8169   5.8346   5.8483   5.8912   5.8981
     5.9144   5.9482   5.9540   5.9582   5.9611   5.9699   5.9956   6.0029
     6.0217   6.0286   6.0490   6.0660   6.0695   6.0882   6.1152   6.1321
     6.1356   6.1606   6.1914   6.1951   6.2148   6.2407   6.2585   6.2627
     6.2876   6.2970   6.3023   6.3198   6.3291   6.3573   6.3681   6.3789
     6.3807   6.3991   6.4109   6.4338   6.4390   6.4418   6.4561   6.4649
     6.4714   6.4773   6.4932   6.5027   6.5271   6.5390   6.5707   6.6074
     6.6139   6.6164   6.6452   6.6489   6.6740   6.6911   6.6927   6.6960
     6.7097   6.7243   6.7258   6.7521   6.8164   6.8320   6.8450   6.8544
     6.9147   6.9234   6.9258   6.9279   6.9866   6.9878   7.0008   7.0068
     7.0618   7.0667   7.0857   7.0930   7.0974   7.1250   7.1631   7.1673
     7.1750   7.2091   7.2108   7.2397   7.2495   7.2567   7.2932   7.3038
     7.3042   7.3157   7.3170   7.3243   7.3436   7.3450   7.3568   7.3926
     7.4082   7.4168   7.4232   7.4279   7.4361   7.4493   7.4506   7.4767
     7.4830   7.5003   7.5157   7.5178

          k = 0.0000 0.0000 0.0028 (184069 PWs)   bands (ev):

   -21.8067 -21.5939 -21.5097 -21.2085 -20.9756 -20.9172 -20.7902 -20.7654
   -20.3048 -20.2899 -20.0703 -20.0469 -19.8058 -19.6575 -19.5730 -19.1832
   -19.1674 -19.0998 -19.0295 -18.9197 -18.7339 -18.3573 -18.2607 -18.1059
   -18.0525 -17.8845 -17.6991 -17.6905 -17.5685 -17.4993 -17.3776 -17.3235
   -17.1052 -16.9072 -16.7203 -16.6005 -16.5713 -16.4638 -16.3125 -15.9574
   -15.6646 -15.4470 -15.2282 -15.1454 -15.1085 -14.9305 -14.8569 -14.6569
   -14.6517 -14.5170 -14.4831 -14.4146 -13.8187 -13.7889 -13.6761 -13.5446
   -13.4712 -13.4677 -13.3946 -13.2148 -13.2003 -12.9015 -12.8296 -12.6587
   -12.4757 -12.0739 -12.0198 -11.9942 -11.7779 -11.6531 -11.6190 -11.5807
   -11.5073 -11.4328 -11.3623 -11.3250 -11.0991 -10.9894 -10.8968 -10.8672
   -10.7879 -10.4807 -10.4010 -10.3513 -10.2532 -10.1321 -10.1039  -9.9670
    -9.8761  -9.8735  -9.8621  -9.7589  -9.6203  -9.5914  -9.5386  -9.5320
    -9.5105  -9.4381  -9.2674  -9.2578  -9.2184  -9.1949  -9.1459  -9.1123
    -9.1087  -9.0619  -8.9521  -8.9228  -8.9148  -8.8174  -8.7975  -8.6923
    -8.6775  -8.6072  -8.5733  -8.5354  -8.5284  -8.4465  -8.3738  -8.2730
    -8.2046  -8.1811  -8.1578  -8.1346  -8.1004  -8.0363  -8.0349  -7.9532
    -7.8928  -7.8766  -7.8572  -7.5341  -7.5047  -7.4850  -7.4223  -7.3466
    -7.2966  -7.2870  -7.2326  -7.0646  -6.9220  -6.9023  -6.8671  -6.8086
    -6.8004  -6.6791  -6.6785  -6.6224  -6.4789  -6.4727  -6.3703  -6.2706
    -6.1016  -5.9602  -5.8627  -5.8538  -5.6939  -5.6711  -5.5178  -5.4044
    -5.3281  -5.2599  -5.1783  -5.1039  -5.0460  -4.9482  -4.7064  -4.5675
    -4.3022  -4.2963  -4.0902  -3.8725  -3.6817  -2.7360  -2.3389  -1.4763
    -1.2330  -1.0875  -0.9502  -0.9141  -0.8276  -0.7372  -0.5277  -0.2010
    -0.1664  -0.0706  -0.0061   0.1177   0.2502   0.3554   0.4794   0.5174
     0.5364   0.5761   0.7366   0.7892   0.8450   0.8475   0.8534   0.8738
     0.9308   1.1432   1.1784   1.2213   1.3625   1.4550   1.4607   1.5406
     1.6197   1.6361   1.6659   1.6764   1.7288   1.7951   1.8130   1.8364
     1.9091   1.9527   1.9810   1.9952   2.0546   2.0645   2.0854   2.1014
     2.1436   2.1916   2.2398   2.3039   2.3081   2.3822   2.3904   2.4009
     2.4930   2.4974   2.5163   2.5302   2.5438   2.5611   2.5977   2.6327
     2.6494   2.6814   2.7439   2.7492   2.7773   2.8048   2.8512   2.8525
     2.8639   2.8753   2.9016   2.9456   2.9520   2.9729   2.9948   3.0465
     3.1031   3.1069   3.1319   3.1409   3.1784   3.2496   3.2660   3.2791
     3.2864   3.2934   3.3129   3.3357   3.3372   3.4020   3.4206   3.4278
     3.4946   3.5014   3.5030   3.5670   3.5784   3.5852   3.5996   3.6242
     3.6439   3.6510   3.6643   3.7152   3.7172   3.7399   3.7631   3.7741
     3.7879   3.8519   3.8557   3.8694   3.8808   3.8852   3.8865   3.9156
     3.9497   3.9524   3.9681   3.9911   4.0284   4.0401   4.1109   4.1182
     4.1252   4.1733   4.1921   4.2136   4.2192   4.2439   4.2791   4.2881
     4.3386   4.3662   4.4424   4.4612   4.4641   4.4695   4.4976   4.5020
     4.5587   4.5633   4.6098   4.6467   4.6615   4.6764   4.6971   4.7167
     4.7262   4.7678   4.7713   4.7960   4.8187   4.8211   4.8268   4.8397
     4.8537   4.8768   4.8860   4.9132   4.9652   4.9661   4.9907   4.9962
     5.0097   5.0249   5.0352   5.0415   5.0612   5.0631   5.0776   5.1207
     5.1246   5.1272   5.1479   5.1633   5.2219   5.2346   5.2794   5.2799
     5.3044   5.3474   5.3778   5.4084   5.4196   5.4267   5.4292   5.4475
     5.4595   5.4714   5.5015   5.5226   5.5352   5.5626   5.5672   5.6016
     5.6106   5.6526   5.6633   5.6751   5.7064   5.7126   5.7464   5.7635
     5.7709   5.7879   5.8196   5.8332   5.8369   5.8473   5.8691   5.8869
     5.9119   5.9560   5.9611   5.9631   5.9721   5.9792   5.9806   5.9963
     6.0334   6.0337   6.0341   6.0744   6.0886   6.0949   6.1269   6.1403
     6.1473   6.1550   6.1643   6.1773   6.1994   6.2130   6.2530   6.2579
     6.2893   6.2932   6.2941   6.3200   6.3341   6.3630   6.3653   6.3876
     6.3885   6.3981   6.4054   6.4146   6.4348   6.4523   6.4567   6.4664
     6.4706   6.4737   6.5023   6.5037   6.5055   6.5305   6.5764   6.6230
     6.6233   6.6476   6.6493   6.6504   6.6804   6.6967   6.6967   6.7138
     6.7275   6.7371   6.7388   6.7513   6.8225   6.8335   6.8385   6.8574
     6.8924   6.9226   6.9238   6.9291   6.9913   7.0002   7.0004   7.0100
     7.0521   7.0599   7.0851   7.0940   7.1021   7.1064   7.1517   7.1584
     7.1704   7.2132   7.2136   7.2351   7.2397   7.2555   7.2926   7.2969
     7.3013   7.3065   7.3106   7.3197   7.3379   7.3515   7.3534   7.3980
     7.4008   7.4022   7.4271   7.4385   7.4435   7.4437   7.4449   7.4719
     7.4772   7.5025   7.5218   7.5270

          k = 0.0000 0.0000 0.0038 (184109 PWs)   bands (ev):

   -21.8062 -21.5996 -21.5026 -21.2083 -20.9770 -20.9332 -20.7729 -20.7623
   -20.3048 -20.2988 -20.0600 -20.0473 -19.8270 -19.6517 -19.5554 -19.2027
   -19.1723 -19.1006 -19.0129 -18.9129 -18.7291 -18.3571 -18.2920 -18.1149
   -18.0342 -17.8622 -17.7177 -17.6899 -17.5737 -17.4936 -17.3770 -17.3035
   -17.1052 -16.9111 -16.7448 -16.5944 -16.5680 -16.4585 -16.3137 -15.9690
   -15.6590 -15.4431 -15.2248 -15.1325 -15.1080 -14.9345 -14.8570 -14.6636
   -14.6620 -14.5062 -14.4794 -14.4075 -13.8647 -13.7909 -13.7042 -13.5021
   -13.4782 -13.4474 -13.3812 -13.2162 -13.2025 -12.8983 -12.8312 -12.6543
   -12.4718 -12.0816 -12.0186 -11.9904 -11.7975 -11.6634 -11.6049 -11.5816
   -11.5009 -11.4645 -11.3532 -11.3334 -11.0776 -10.9700 -10.9061 -10.8600
   -10.7884 -10.4895 -10.3914 -10.3430 -10.2627 -10.1319 -10.1119  -9.9907
    -9.8776  -9.8755  -9.8426  -9.7376  -9.6281  -9.5909  -9.5364  -9.5225
    -9.5117  -9.4428  -9.2812  -9.2690  -9.2258  -9.1947  -9.1551  -9.1009
    -9.0933  -9.0523  -8.9697  -8.9193  -8.9168  -8.8375  -8.7733  -8.6884
    -8.6560  -8.6083  -8.5733  -8.5385  -8.5341  -8.4566  -8.3746  -8.2785
    -8.2096  -8.1811  -8.1591  -8.1391  -8.1135  -8.0364  -8.0132  -7.9612
    -7.8783  -7.8769  -7.8373  -7.5568  -7.5174  -7.4959  -7.4249  -7.3347
    -7.2928  -7.2691  -7.2187  -7.0649  -6.9211  -6.9099  -6.8748  -6.8266
    -6.8024  -6.6688  -6.6633  -6.6441  -6.4681  -6.4530  -6.3874  -6.2551
    -6.1015  -5.9618  -5.8942  -5.8551  -5.7196  -5.6439  -5.4885  -5.4073
    -5.3279  -5.2645  -5.1777  -5.1241  -5.0459  -4.9280  -4.7002  -4.5731
    -4.3242  -4.2952  -4.0680  -3.8727  -3.6873  -2.7477  -2.3279  -1.4704
    -1.2326  -1.0997  -0.9529  -0.9132  -0.8107  -0.7337  -0.5273  -0.2011
    -0.1994  -0.0869   0.0117   0.1501   0.2349   0.3382   0.4510   0.5183
     0.5571   0.5770   0.7787   0.7798   0.8370   0.8428   0.8544   0.8857
     0.9429   1.1315   1.1793   1.2348   1.3633   1.4490   1.4528   1.5538
     1.6089   1.6244   1.6472   1.6821   1.7136   1.7902   1.8018   1.8560
     1.9261   1.9566   1.9842   2.0006   2.0379   2.0585   2.0986   2.1079
     2.1416   2.2005   2.2545   2.2989   2.3078   2.3704   2.3770   2.4121
     2.4989   2.4993   2.5172   2.5327   2.5485   2.5524   2.5742   2.6405
     2.6669   2.6919   2.7420   2.7625   2.7659   2.8034   2.8353   2.8381
     2.8735   2.8871   2.8895   2.9203   2.9466   2.9799   3.0077   3.0394
     3.0875   3.1174   3.1176   3.1452   3.1615   3.2547   3.2590   3.2619
     3.3062   3.3086   3.3157   3.3369   3.3393   3.4157   3.4310   3.4507
     3.4873   3.4999   3.5136   3.5687   3.5780   3.5883   3.6030   3.6036
     3.6275   3.6567   3.6675   3.6970   3.7287   3.7454   3.7596   3.7617
     3.7843   3.8372   3.8564   3.8588   3.8752   3.9023   3.9057   3.9369
     3.9406   3.9578   3.9661   3.9790   4.0401   4.0534   4.1070   4.1101
     4.1191   4.1437   4.1907   4.2215   4.2397   4.2443   4.2839   4.2970
     4.3477   4.3759   4.4588   4.4692   4.4717   4.4743   4.4917   4.4964
     4.5347   4.5670   4.6048   4.6396   4.6517   4.6771   4.6930   4.7348
     4.7382   4.7559   4.7761   4.7775   4.8007   4.8109   4.8279   4.8285
     4.8345   4.8843   4.8921   4.9163   4.9398   4.9776   4.9969   5.0014
     5.0154   5.0179   5.0263   5.0631   5.0698   5.0701   5.0892   5.1109
     5.1380   5.1442   5.1557   5.1917   5.2284   5.2313   5.2666   5.2693
     5.2905   5.3380   5.3816   5.3909   5.3921   5.4115   5.4197   5.4410
     5.4569   5.4767   5.4986   5.5111   5.5576   5.5710   5.5834   5.5843
     5.6303   5.6521   5.6686   5.6720   5.7132   5.7156   5.7471   5.7506
     5.7628   5.7944   5.8244   5.8326   5.8472   5.8518   5.8714   5.8737
     5.9099   5.9533   5.9611   5.9616   5.9724   5.9746   5.9919   6.0008
     6.0326   6.0348   6.0417   6.0761   6.0981   6.1117   6.1169   6.1268
     6.1407   6.1661   6.1674   6.1783   6.1821   6.1967   6.2478   6.2520
     6.2730   6.2897   6.2965   6.3065   6.3448   6.3511   6.3607   6.3759
     6.3761   6.4051   6.4052   6.4160   6.4163   6.4560   6.4638   6.4688
     6.4761   6.4784   6.4851   6.5174   6.5186   6.5417   6.5695   6.6230
     6.6470   6.6505   6.6671   6.6790   6.6796   6.6951   6.7137   6.7220
     6.7243   6.7498   6.7639   6.7802   6.8205   6.8362   6.8430   6.8611
     6.8675   6.9184   6.9233   6.9251   7.0000   7.0022   7.0105   7.0146
     7.0365   7.0571   7.0699   7.0827   7.1023   7.1185   7.1331   7.1555
     7.1652   7.2019   7.2115   7.2305   7.2327   7.2498   7.2751   7.2851
     7.2910   7.3071   7.3104   7.3299   7.3301   7.3587   7.3607   7.3887
     7.3948   7.3962   7.4160   7.4267   7.4292   7.4480   7.4564   7.4806
     7.4863   7.5035   7.5053   7.5289

          k = 0.0000 0.0000 0.0047 (184129 PWs)   bands (ev):

   -21.8055 -21.6059 -21.4944 -21.2081 -20.9788 -20.9497 -20.7585 -20.7548
   -20.3093 -20.3048 -20.0479 -20.0478 -19.8496 -19.6472 -19.5346 -19.2237
   -19.1781 -19.1011 -18.9966 -18.9045 -18.7227 -18.3570 -18.3235 -18.1325
   -18.0090 -17.8381 -17.7392 -17.6891 -17.5799 -17.4864 -17.3763 -17.2806
   -17.1053 -16.9159 -16.7697 -16.5959 -16.5640 -16.4486 -16.3153 -15.9833
   -15.6531 -15.4374 -15.2205 -15.1165 -15.1074 -14.9393 -14.8571 -14.6732
   -14.6718 -14.4944 -14.4746 -14.3992 -13.9107 -13.7966 -13.7295 -13.4905
   -13.4610 -13.4253 -13.3653 -13.2175 -13.2041 -12.8944 -12.8331 -12.6486
   -12.4668 -12.0896 -12.0171 -11.9874 -11.8178 -11.6747 -11.5935 -11.5824
   -11.5005 -11.4940 -11.3420 -11.3377 -11.0606 -10.9448 -10.9171 -10.8498
   -10.7895 -10.4994 -10.3794 -10.3339 -10.2759 -10.1318 -10.1180 -10.0166
    -9.8805  -9.8747  -9.8216  -9.7176  -9.6364  -9.5899  -9.5334  -9.5130
    -9.5120  -9.4487  -9.2987  -9.2820  -9.2299  -9.1944  -9.1646  -9.0930
    -9.0748  -9.0422  -8.9847  -8.9193  -8.9148  -8.8577  -8.7490  -8.6834
    -8.6340  -8.6098  -8.5733  -8.5425  -8.5411  -8.4682  -8.3773  -8.2842
    -8.2166  -8.1810  -8.1598  -8.1403  -8.1282  -8.0363  -7.9907  -7.9678
    -7.8773  -7.8617  -7.8162  -7.5820  -7.5314  -7.5088  -7.4256  -7.3217
    -7.2987  -7.2403  -7.2037  -7.0651  -6.9200  -6.9187  -6.8893  -6.8382
    -6.8052  -6.6664  -6.6571  -6.6499  -6.4542  -6.4330  -6.4048  -6.2398
    -6.1014  -5.9638  -5.9260  -5.8567  -5.7470  -5.6149  -5.4592  -5.4113
    -5.3276  -5.2716  -5.1770  -5.1419  -5.0459  -4.9096  -4.6916  -4.5803
    -4.3477  -4.2937  -4.0444  -3.8729  -3.6944  -2.7616  -2.3147  -1.4629
    -1.2320  -1.1143  -0.9563  -0.9099  -0.7924  -0.7293  -0.5267  -0.2330
    -0.2013  -0.1035   0.0287   0.1845   0.2132   0.3262   0.4183   0.5194
     0.5782   0.5833   0.7681   0.8238   0.8264   0.8400   0.8556   0.8984
     0.9556   1.1199   1.1804   1.2487   1.3642   1.4374   1.4496   1.5671
     1.5974   1.6102   1.6278   1.6868   1.6980   1.7672   1.8099   1.8766
     1.9448   1.9609   1.9731   2.0153   2.0198   2.0588   2.1127   2.1160
     2.1390   2.2041   2.2731   2.2897   2.3129   2.3522   2.3706   2.4238
     2.5009   2.5045   2.5182   2.5221   2.5449   2.5507   2.5668   2.6484
     2.6856   2.7050   2.7383   2.7537   2.7613   2.8095   2.8152   2.8245
     2.8774   2.8843   2.8980   2.8987   2.9479   2.9822   3.0174   3.0321
     3.0758   3.1036   3.1288   3.1435   3.1516   3.2379   3.2405   3.2459
     3.3247   3.3258   3.3376   3.3454   3.3474   3.4254   3.4295   3.4737
     3.4896   3.4991   3.5339   3.5676   3.5713   3.5847   3.5924   3.6021
     3.6142   3.6540   3.6760   3.6886   3.7297   3.7430   3.7575   3.7725
     3.7761   3.8207   3.8450   3.8479   3.8634   3.9173   3.9231   3.9348
     3.9418   3.9657   3.9802   3.9913   4.0337   4.0794   4.0912   4.0932
     4.1257   4.1273   4.1851   4.1972   4.2611   4.2776   4.2789   4.3171
     4.3592   4.3784   4.4508   4.4689   4.4789   4.4864   4.4897   4.5107
     4.5196   4.5703   4.5914   4.6313   4.6493   4.6778   4.6854   4.7321
     4.7446   4.7517   4.7752   4.7771   4.7810   4.7886   4.8053   4.8365
     4.8381   4.8826   4.9024   4.9134   4.9277   4.9921   4.9930   4.9973
     5.0127   5.0131   5.0411   5.0585   5.0657   5.0980   5.1020   5.1160
     5.1519   5.1625   5.1696   5.2177   5.2220   5.2290   5.2408   5.2565
     5.3021   5.3281   5.3517   5.3827   5.3829   5.3844   5.4184   5.4342
     5.4671   5.4820   5.4972   5.5026   5.5282   5.5755   5.6003   5.6178
     5.6421   5.6442   5.6509   5.6792   5.6856   5.7264   5.7544   5.7545
     5.7828   5.7990   5.8293   5.8296   5.8425   5.8458   5.8588   5.9080
     5.9099   5.9301   5.9622   5.9659   5.9676   5.9889   5.9891   5.9969
     6.0250   6.0450   6.0633   6.0636   6.0871   6.1011   6.1152   6.1219
     6.1303   6.1660   6.1698   6.1923   6.1991   6.2018   6.2413   6.2453
     6.2526   6.2829   6.2903   6.2939   6.3365   6.3449   6.3516   6.3626
     6.3754   6.3762   6.4017   6.4056   6.4287   6.4575   6.4599   6.4673
     6.4827   6.4872   6.5023   6.5329   6.5402   6.5599   6.5647   6.6204
     6.6499   6.6745   6.6779   6.6782   6.6995   6.7008   6.7139   6.7336
     6.7402   6.7640   6.8004   6.8051   6.8142   6.8404   6.8404   6.8536
     6.8651   6.9133   6.9194   6.9279   6.9996   7.0120   7.0132   7.0195
     7.0280   7.0403   7.0547   7.0755   7.1077   7.1144   7.1341   7.1541
     7.1591   7.1788   7.2029   7.2148   7.2378   7.2408   7.2626   7.2733
     7.2830   7.3067   7.3107   7.3272   7.3305   7.3491   7.3587   7.3868
     7.3914   7.3940   7.4103   7.4195   7.4202   7.4461   7.4667   7.4684
     7.4846   7.5044   7.5122   7.5233

          k = 0.0000 0.0000 0.0056 (184135 PWs)   bands (ev):

   -21.8047 -21.6125 -21.4856 -21.2078 -20.9809 -20.9664 -20.7540 -20.7362
   -20.3209 -20.3047 -20.0484 -20.0343 -19.8728 -19.6435 -19.5116 -19.2453
   -19.1846 -19.1013 -18.9811 -18.8947 -18.7147 -18.3568 -18.3552 -18.1527
   -17.9824 -17.8130 -17.7630 -17.6878 -17.5866 -17.4781 -17.3753 -17.2555
   -17.1053 -16.9216 -16.7948 -16.6045 -16.5593 -16.4342 -16.3172 -16.0000
   -15.6475 -15.4292 -15.2154 -15.1069 -15.0974 -14.9449 -14.8572 -14.6848
   -14.6813 -14.4820 -14.4687 -14.3900 -13.9566 -13.8107 -13.7470 -13.5007
   -13.4277 -13.4062 -13.3443 -13.2183 -13.2042 -12.8899 -12.8355 -12.6419
   -12.4610 -12.0977 -12.0155 -11.9859 -11.8381 -11.6865 -11.5893 -11.5828
   -11.5351 -11.4870 -11.3384 -11.3291 -11.0474 -10.9295 -10.9168 -10.8354
   -10.7913 -10.5100 -10.3653 -10.3244 -10.2925 -10.1321 -10.1213 -10.0434
    -9.8827  -9.8737  -9.8003  -9.6997  -9.6450  -9.5881  -9.5297  -9.5144
    -9.5009  -9.4554  -9.3181  -9.2963  -9.2323  -9.1940  -9.1741  -9.0861
    -9.0569  -9.0315  -8.9960  -8.9222  -8.9095  -8.8780  -8.7251  -8.6776
    -8.6119  -8.6115  -8.5735  -8.5491  -8.5477  -8.4806  -8.3823  -8.2897
    -8.2255  -8.1809  -8.1595  -8.1440  -8.1385  -8.0359  -7.9733  -7.9676
    -7.8778  -7.8437  -7.7944  -7.6086  -7.5460  -7.5232  -7.4251  -7.3082
    -7.3049  -7.2108  -7.1878  -7.0652  -6.9284  -6.9187  -6.9099  -6.8440
    -6.8088  -6.6889  -6.6440  -6.6389  -6.4371  -6.4223  -6.4131  -6.2247
    -6.1012  -5.9662  -5.9581  -5.8588  -5.7742  -5.5861  -5.4299  -5.4166
    -5.3272  -5.2816  -5.1759  -5.1560  -5.0458  -4.8934  -4.6805  -4.5892
    -4.3720  -4.2919  -4.0199  -3.8731  -3.7031  -2.7775  -2.2997  -1.4538
    -1.2313  -1.1305  -0.9602  -0.9043  -0.7731  -0.7243  -0.5259  -0.2670
    -0.2016  -0.1200   0.0450   0.1864   0.2201   0.3184   0.3857   0.5208
     0.5796   0.6107   0.7575   0.8158   0.8368   0.8570   0.8685   0.9115
     0.9688   1.1087   1.1819   1.2629   1.3654   1.4259   1.4450   1.5792
     1.5853   1.5939   1.6094   1.6802   1.6931   1.7447   1.8193   1.8974
     1.9617   1.9649   1.9654   1.9931   2.0380   2.0597   2.1250   2.1273
     2.1359   2.2047   2.2810   2.2902   2.3192   2.3384   2.3643   2.4357
     2.5035   2.5058   2.5123   2.5189   2.5278   2.5429   2.5827   2.6571
     2.7054   2.7203   2.7312   2.7374   2.7520   2.7912   2.7956   2.8419
     2.8652   2.8757   2.9026   2.9096   2.9495   2.9775   3.0209   3.0246
     3.0711   3.0942   3.1246   3.1402   3.1603   3.2184   3.2187   3.2312
     3.3321   3.3377   3.3387   3.3581   3.3905   3.4107   3.4406   3.4960
     3.5027   3.5027   3.5387   3.5541   3.5750   3.5822   3.5956   3.5975
     3.6050   3.6555   3.6561   3.7076   3.7139   3.7558   3.7573   3.7638
     3.7869   3.8022   3.8330   3.8374   3.8510   3.9034   3.9061   3.9582
     3.9676   3.9905   3.9996   4.0046   4.0241   4.0618   4.0750   4.1057
     4.1212   4.1400   4.1722   4.1787   4.2726   4.2829   4.3089   4.3388
     4.3738   4.3767   4.4322   4.4641   4.4687   4.4869   4.5068   4.5122
     4.5406   4.5683   4.5850   4.6215   4.6505   4.6726   4.6785   4.7147
     4.7346   4.7508   4.7537   4.7569   4.7850   4.7978   4.8055   4.8321
     4.8487   4.8673   4.8872   4.9265   4.9421   4.9824   4.9945   4.9973
     5.0003   5.0185   5.0493   5.0654   5.0692   5.0891   5.1328   5.1419
     5.1667   5.1827   5.1835   5.1925   5.1986   5.2467   5.2485   5.2514
     5.3138   5.3143   5.3170   5.3516   5.3814   5.3851   5.4181   5.4274
     5.4768   5.4811   5.4865   5.4933   5.5135   5.5806   5.6087   5.6110
     5.6451   5.6479   5.6526   5.6567   5.7082   5.7239   5.7499   5.7693
     5.8043   5.8178   5.8184   5.8226   5.8417   5.8529   5.8565   5.9059
     5.9060   5.9429   5.9570   5.9629   5.9773   5.9880   5.9908   6.0030
     6.0120   6.0308   6.0518   6.0559   6.0984   6.1025   6.1031   6.1199
     6.1351   6.1544   6.1654   6.2174   6.2223   6.2253   6.2288   6.2299
     6.2394   6.2718   6.2748   6.2864   6.3224   6.3279   6.3511   6.3555
     6.3632   6.3779   6.3796   6.3860   6.4332   6.4584   6.4608   6.4829
     6.4926   6.4971   6.5203   6.5455   6.5570   6.5667   6.5908   6.6197
     6.6485   6.6659   6.6788   6.7027   6.7075   6.7119   6.7208   6.7552
     6.7686   6.7798   6.7980   6.8102   6.8308   6.8382   6.8467   6.8643
     6.8691   6.9077   6.9252   6.9329   6.9991   6.9998   7.0105   7.0188
     7.0256   7.0323   7.0548   7.0578   7.1007   7.1139   7.1499   7.1511
     7.1538   7.1583   7.1871   7.1949   7.2294   7.2475   7.2562   7.2565
     7.2805   7.3004   7.3108   7.3121   7.3136   7.3423   7.3512   7.3926
     7.3960   7.3970   7.4020   7.4098   7.4158   7.4400   7.4458   7.4747
     7.4872   7.4961   7.5077   7.5310

          k = 0.0000 0.0000 0.0066 (184139 PWs)   bands (ev):

   -21.8038 -21.6192 -21.4762 -21.2075 -20.9831 -20.9831 -20.7488 -20.7171
   -20.3333 -20.3047 -20.0492 -20.0196 -19.8963 -19.6403 -19.4873 -19.2675
   -19.1917 -19.1015 -18.9666 -18.8839 -18.7050 -18.3869 -18.3565 -18.1739
   -17.9556 -17.7882 -17.7873 -17.6858 -17.5935 -17.4691 -17.3741 -17.2289
   -17.1053 -16.9278 -16.8200 -16.6188 -16.5540 -16.4167 -16.3196 -16.0187
   -15.6429 -15.4183 -15.2097 -15.1060 -15.0761 -14.9510 -14.8574 -14.6966
   -14.6917 -14.4693 -14.4618 -14.3802 -14.0024 -13.8349 -13.7544 -13.5110
   -13.4036 -13.3913 -13.3154 -13.2182 -13.2018 -12.8849 -12.8382 -12.6343
   -12.4543 -12.1054 -12.0140 -11.9863 -11.8579 -11.6984 -11.6060 -11.5826
   -11.5543 -11.4801 -11.3354 -11.3150 -11.0366 -10.9429 -10.8902 -10.8149
   -10.7936 -10.5209 -10.3494 -10.3148 -10.3121 -10.1335 -10.1218 -10.0697
    -9.8846  -9.8725  -9.7800  -9.6843  -9.6535  -9.5850  -9.5258  -9.5158
    -9.4892  -9.4627  -9.3381  -9.3113  -9.2343  -9.1936  -9.1831  -9.0813
    -9.0400  -9.0203  -9.0024  -8.9254  -8.9035  -8.8981  -8.7020  -8.6708
    -8.6146  -8.5887  -8.5746  -8.5572  -8.5542  -8.4935  -8.3892  -8.2945
    -8.2357  -8.1808  -8.1605  -8.1587  -8.1341  -8.0350  -7.9779  -7.9441
    -7.8783  -7.8245  -7.7723  -7.6359  -7.5606  -7.5387  -7.4238  -7.3115
    -7.2943  -7.1809  -7.1713  -7.0651  -6.9386  -6.9338  -6.9172  -6.8469
    -6.8137  -6.7111  -6.6301  -6.6296  -6.4401  -6.4174  -6.3935  -6.2099
    -6.1011  -5.9904  -5.9691  -5.8612  -5.8013  -5.5575  -5.4236  -5.4010
    -5.3264  -5.2944  -5.1746  -5.1662  -5.0458  -4.8799  -4.6667  -4.5996
    -4.3966  -4.2898  -3.9951  -3.8734  -3.7131  -2.7948  -2.2835  -1.4431
    -1.2305  -1.1479  -0.9645  -0.8965  -0.7534  -0.7189  -0.5249  -0.3010
    -0.2021  -0.1362   0.0606   0.1559   0.2565   0.3135   0.3538   0.5224
     0.5812   0.6385   0.7470   0.8053   0.8331   0.8586   0.9138   0.9250
     0.9823   1.0976   1.1836   1.2773   1.3668   1.4147   1.4387   1.5724
     1.5759   1.5793   1.6030   1.6645   1.6971   1.7234   1.8297   1.9167
     1.9511   1.9700   1.9729   1.9852   2.0549   2.0608   2.1323   2.1346
     2.1425   2.2033   2.2733   2.2938   2.3269   2.3399   2.3584   2.4473
     2.5017   2.5030   2.5034   2.5069   2.5218   2.5472   2.5963   2.6674
     2.7066   2.7249   2.7260   2.7374   2.7396   2.7763   2.7784   2.8530
     2.8621   2.8653   2.9163   2.9188   2.9514   2.9656   3.0169   3.0169
     3.0737   3.0918   3.1050   3.1510   3.1713   3.1970   3.1991   3.2165
     3.3342   3.3374   3.3527   3.3633   3.4052   3.4329   3.4466   3.5026
     3.5127   3.5166   3.5230   3.5709   3.5802   3.5808   3.5853   3.5999
     3.6044   3.6401   3.6555   3.7049   3.7223   3.7472   3.7540   3.7735
     3.7819   3.8019   3.8195   3.8243   3.8386   3.8891   3.8972   3.9796
     3.9915   4.0144   4.0165   4.0184   4.0263   4.0290   4.0559   4.1202
     4.1318   4.1477   4.1551   4.1725   4.2647   4.3051   4.3362   4.3615
     4.3726   4.3922   4.4140   4.4485   4.4637   4.4684   4.5247   4.5275
     4.5493   4.5703   4.5971   4.6097   4.6542   4.6544   4.6783   4.6963
     4.7176   4.7213   4.7386   4.7618   4.7703   4.8209   4.8210   4.8301
     4.8524   4.8591   4.8611   4.9517   4.9518   4.9724   4.9875   4.9882
     4.9973   5.0182   5.0567   5.0735   5.0844   5.0893   5.1523   5.1617
     5.1651   5.1732   5.1882   5.1965   5.2058   5.2462   5.2468   5.2584
     5.2961   5.3006   5.3192   5.3373   5.3851   5.3852   5.4184   5.4212
     5.4580   5.4634   5.4818   5.4898   5.5288   5.5750   5.5888   5.6070
     5.6112   5.6450   5.6688   5.6962   5.7182   5.7210   5.7610   5.7739
     5.8023   5.8077   5.8223   5.8341   5.8504   5.8617   5.8703   5.8820
     5.9039   5.9420   5.9637   5.9659   5.9841   5.9879   5.9942   5.9998
     6.0018   6.0179   6.0243   6.0591   6.0819   6.1060   6.1184   6.1341
     6.1385   6.1501   6.1574   6.2031   6.2093   6.2259   6.2420   6.2482
     6.2500   6.2543   6.2633   6.2845   6.3105   6.3206   6.3311   6.3466
     6.3474   6.3717   6.3777   6.3809   6.4316   6.4589   6.4690   6.4920
     6.5012   6.5118   6.5357   6.5475   6.5764   6.5917   6.6148   6.6229
     6.6456   6.6515   6.6820   6.7062   6.7197   6.7295   6.7399   6.7781
     6.7810   6.7819   6.7971   6.7993   6.8449   6.8557   6.8734   6.8736
     6.8744   6.9023   6.9404   6.9434   6.9817   6.9872   6.9982   7.0138
     7.0300   7.0365   7.0380   7.0572   7.0923   7.1206   7.1316   7.1498
     7.1543   7.1543   7.1723   7.1814   7.2260   7.2409   7.2414   7.2650
     7.2717   7.2726   7.2958   7.2993   7.3057   7.3441   7.3589   7.3650
     7.3875   7.3973   7.3979   7.4063   7.4131   7.4386   7.4472   7.4683
     7.4794   7.4897   7.5110   7.5194

          k = 0.0000 0.0000 0.0075 (184129 PWs)   bands (ev):

   -21.8027 -21.6258 -21.4665 -21.2071 -20.9998 -20.9856 -20.7429 -20.6978
   -20.3462 -20.3046 -20.0503 -20.0039 -19.9200 -19.6374 -19.4620 -19.2899
   -19.1990 -19.1016 -18.9535 -18.8721 -18.6934 -18.4186 -18.3563 -18.1955
   -17.9293 -17.8147 -17.7621 -17.6824 -17.6004 -17.4597 -17.3727 -17.2014
   -17.1054 -16.9346 -16.8453 -16.6374 -16.5484 -16.3973 -16.3224 -16.0390
   -15.6400 -15.4042 -15.2033 -15.1050 -15.0526 -14.9575 -14.8576 -14.7083
   -14.7028 -14.4566 -14.4541 -14.3701 -14.0481 -13.8652 -13.7557 -13.5211
   -13.3887 -13.3817 -13.2798 -13.2160 -13.1960 -12.8794 -12.8413 -12.6259
   -12.4470 -12.1127 -12.0127 -11.9887 -11.8768 -11.7102 -11.6431 -11.5814
   -11.5583 -11.4733 -11.3287 -11.2999 -11.0273 -10.9571 -10.8678 -10.7965
   -10.7870 -10.5319 -10.3339 -10.3319 -10.3055 -10.1384 -10.1200 -10.0924
    -9.8863  -9.8711  -9.7619  -9.6719  -9.6620  -9.5801  -9.5228  -9.5170
    -9.4771  -9.4699  -9.3582  -9.3258  -9.2366  -9.1931  -9.1914  -9.0793
    -9.0245  -9.0084  -9.0035  -8.9288  -8.9182  -8.8970  -8.6801  -8.6633
    -8.6182  -8.5789  -8.5657  -8.5629  -8.5623  -8.5060  -8.3975  -8.2986
    -8.2465  -8.1807  -8.1774  -8.1575  -8.1275  -8.0336  -7.9818  -7.9205
    -7.8789  -7.8045  -7.7506  -7.6637  -7.5743  -7.5551  -7.4218  -7.3186
    -7.2804  -7.1547  -7.1507  -7.0647  -6.9591  -6.9489  -6.9156  -6.8485
    -6.8203  -6.7323  -6.6232  -6.6142  -6.4580  -6.3953  -6.3742  -6.1954
    -6.1009  -6.0230  -5.9724  -5.8639  -5.8280  -5.5293  -5.4327  -5.3728
    -5.3251  -5.3090  -5.1729  -5.1727  -5.0457  -4.8691  -4.6505  -4.6115
    -4.4213  -4.2872  -3.9701  -3.8737  -3.7246  -2.8133  -2.2662  -1.4311
    -1.2295  -1.1661  -0.9691  -0.8868  -0.7334  -0.7131  -0.5236  -0.3346
    -0.2026  -0.1522   0.0757   0.1233   0.2934   0.3102   0.3230   0.5243
     0.5831   0.6664   0.7367   0.7950   0.8290   0.8604   0.9388   0.9595
     0.9962   1.0869   1.1855   1.2920   1.3683   1.4037   1.4303   1.5564
     1.5589   1.5620   1.6142   1.6489   1.7011   1.7037   1.8411   1.9262
     1.9404   1.9628   1.9745   2.0062   2.0622   2.0703   2.1283   2.1438
     2.1581   2.1999   2.2672   2.2832   2.3359   2.3496   2.3610   2.4581
     2.4800   2.4943   2.4955   2.5112   2.5235   2.5555   2.6073   2.6691
     2.6794   2.7152   2.7254   2.7472   2.7560   2.7621   2.7696   2.8408
     2.8499   2.8890   2.9251   2.9308   2.9494   2.9536   3.0088   3.0090
     3.0813   3.0849   3.0948   3.1565   3.1755   3.1847   3.1853   3.2023
     3.3314   3.3368   3.3526   3.3672   3.4185   3.4485   3.4728   3.4731
     3.5278   3.5340   3.5350   3.5726   3.5767   3.5773   3.5902   3.6000
     3.6146   3.6351   3.6485   3.7070   3.7198   3.7423   3.7522   3.7603
     3.7852   3.8023   3.8139   3.8172   3.8266   3.8758   3.9009   3.9851
     3.9945   4.0102   4.0244   4.0327   4.0363   4.0373   4.0590   4.1181
     4.1272   4.1542   4.1703   4.1715   4.2550   4.3273   4.3578   4.3671
     4.3847   4.3972   4.4085   4.4356   4.4445   4.4684   4.5121   4.5422
     4.5704   4.5781   4.5957   4.6177   4.6325   4.6630   4.6729   4.6766
     4.6975   4.7039   4.7196   4.7628   4.7693   4.8151   4.8255   4.8353
     4.8512   4.8559   4.8694   4.9446   4.9624   4.9728   4.9763   4.9914
     5.0011   5.0116   5.0691   5.0785   5.0889   5.1122   5.1160   5.1455
     5.1837   5.1881   5.2042   5.2088   5.2319   5.2322   5.2401   5.2473
     5.2768   5.2916   5.3279   5.3570   5.3872   5.3899   5.4165   5.4189
     5.4228   5.4443   5.4821   5.4914   5.5264   5.5617   5.5777   5.5968
     5.6000   5.6422   5.6866   5.7160   5.7195   5.7359   5.7694   5.7834
     5.7888   5.8027   5.8230   5.8334   5.8583   5.8701   5.8788   5.8825
     5.9024   5.9288   5.9633   5.9644   5.9762   5.9786   5.9836   5.9885
     6.0034   6.0360   6.0364   6.0577   6.0663   6.1090   6.1112   6.1327
     6.1467   6.1545   6.1689   6.1782   6.1857   6.2192   6.2303   6.2497
     6.2591   6.2703   6.2752   6.2759   6.3010   6.3137   6.3178   6.3257
     6.3386   6.3721   6.3843   6.3909   6.4265   6.4584   6.4798   6.4855
     6.5185   6.5268   6.5446   6.5576   6.6028   6.6031   6.6265   6.6342
     6.6401   6.6536   6.6881   6.7057   6.7268   6.7524   6.7533   6.7539
     6.7661   6.8020   6.8142   6.8259   6.8529   6.8671   6.8816   6.8838
     6.8995   6.9057   6.9494   6.9556   6.9699   6.9786   6.9914   7.0046
     7.0059   7.0375   7.0511   7.0606   7.0851   7.1129   7.1271   7.1378
     7.1446   7.1464   7.1573   7.1898   7.2248   7.2271   7.2334   7.2344
     7.2658   7.2730   7.2773   7.2978   7.3002   7.3316   7.3400   7.3632
     7.3782   7.3841   7.3910   7.3953   7.4230   7.4471   7.4487   7.4551
     7.4715   7.4927   7.4967   7.5250

          k = 0.0000 0.0000 0.0085 (184141 PWs)   bands (ev):

   -21.8015 -21.6325 -21.4563 -21.2067 -21.0164 -20.9882 -20.7364 -20.6782
   -20.3595 -20.3046 -20.0517 -19.9875 -19.9434 -19.6346 -19.4362 -19.3125
   -19.2065 -19.1017 -18.9417 -18.8595 -18.6801 -18.4503 -18.3560 -18.2173
   -17.9035 -17.8420 -17.7387 -17.6763 -17.6070 -17.4500 -17.3710 -17.1733
   -17.1054 -16.9416 -16.8705 -16.6593 -16.5425 -16.3767 -16.3258 -16.0605
   -15.6388 -15.3870 -15.1964 -15.1040 -15.0272 -14.9641 -14.8578 -14.7198
   -14.7145 -14.4458 -14.4440 -14.3598 -14.0936 -13.8984 -13.7541 -13.5307
   -13.3800 -13.3775 -13.2444 -13.2081 -13.1864 -12.8736 -12.8447 -12.6168
   -12.4392 -12.1193 -12.0122 -11.9932 -11.8942 -11.7219 -11.6861 -11.5790
   -11.5612 -11.4667 -11.3184 -11.2842 -11.0187 -10.9716 -10.8494 -10.7998
   -10.7530 -10.5430 -10.3572 -10.3132 -10.2967 -10.1521 -10.1163 -10.1062
    -9.8878  -9.8696  -9.7472  -9.6703  -9.6625  -9.5729  -9.5230  -9.5178
    -9.4766  -9.4647  -9.3776  -9.3380  -9.2399  -9.1984  -9.1926  -9.0796
    -9.0106  -8.9999  -8.9955  -8.9381  -8.9324  -8.8901  -8.6599  -8.6550
    -8.6231  -8.5880  -8.5720  -8.5641  -8.5424  -8.5176  -8.4068  -8.3022
    -8.2574  -8.1945  -8.1806  -8.1562  -8.1192  -8.0316  -7.9852  -7.8969
    -7.8796  -7.7839  -7.7306  -7.6918  -7.5861  -7.5719  -7.4194  -7.3263
    -7.2667  -7.1382  -7.1206  -7.0636  -6.9851  -6.9590  -6.9139  -6.8494
    -6.8293  -6.7516  -6.6178  -6.5980  -6.4761  -6.3714  -6.3553  -6.1812
    -6.1006  -6.0558  -5.9761  -5.8670  -5.8545  -5.5016  -5.4447  -5.3473
    -5.3239  -5.3211  -5.1763  -5.1706  -5.0455  -4.8609  -4.6320  -4.6250
    -4.4461  -4.2842  -3.9452  -3.8741  -3.7375  -2.8326  -2.2484  -1.4176
    -1.2285  -1.1848  -0.9741  -0.8752  -0.7135  -0.7073  -0.5219  -0.3677
    -0.2035  -0.1680   0.0895   0.0903   0.2931   0.3080   0.3306   0.5264
     0.5852   0.6943   0.7265   0.7849   0.8245   0.8625   0.9529   1.0057
     1.0103   1.0764   1.1877   1.3069   1.3700   1.3930   1.4192   1.5358
     1.5421   1.5447   1.6284   1.6340   1.6863   1.7050   1.8534   1.9139
     1.9299   1.9745   1.9789   2.0275   2.0639   2.0841   2.1238   2.1516
     2.1742   2.1939   2.2635   2.2703   2.3452   2.3460   2.3832   2.4570
     2.4675   2.4858   2.4888   2.5167   2.5256   2.5657   2.6162   2.6282
     2.6929   2.7053   2.7095   2.7473   2.7663   2.7690   2.7758   2.8286
     2.8385   2.9071   2.9303   2.9314   2.9456   2.9561   3.0006   3.0037
     3.0644   3.0912   3.1003   3.1456   3.1549   3.1882   3.1887   3.2001
     3.3162   3.3359   3.3471   3.3819   3.4301   3.4482   3.4504   3.5062
     3.5418   3.5452   3.5465   3.5586   3.5701   3.5770   3.6040   3.6047
     3.6272   3.6371   3.6460   3.7009   3.7172   3.7382   3.7410   3.7504
     3.7781   3.8060   3.8086   3.8151   3.8326   3.8642   3.9131   3.9606
     3.9760   4.0162   4.0269   4.0472   4.0475   4.0518   4.0936   4.1064
     4.1242   4.1559   4.1886   4.1896   4.2432   4.3491   4.3605   4.3745
     4.3818   4.4010   4.4076   4.4167   4.4586   4.4687   4.4911   4.5558
     4.5753   4.5799   4.6030   4.6127   4.6344   4.6515   4.6555   4.6805
     4.6901   4.6939   4.6999   4.7608   4.7765   4.8073   4.8096   4.8111
     4.8733   4.8760   4.8836   4.9254   4.9523   4.9648   4.9796   4.9985
     5.0118   5.0177   5.0706   5.0793   5.0827   5.1083   5.1196   5.1338
     5.1779   5.2010   5.2126   5.2192   5.2244   5.2447   5.2503   5.2571
     5.2615   5.2717   5.3610   5.3678   5.3881   5.3924   5.4000   5.4145
     5.4190   5.4244   5.4712   5.4910   5.5052   5.5448   5.5726   5.5911
     5.6109   5.6396   5.6946   5.7194   5.7214   5.7608   5.7703   5.7754
     5.7965   5.8092   5.8130   5.8353   5.8424   5.8721   5.8775   5.9009
     5.9036   5.9313   5.9335   5.9474   5.9652   5.9759   5.9917   6.0049
     6.0051   6.0337   6.0451   6.0716   6.0738   6.1048   6.1067   6.1195
     6.1298   6.1505   6.1634   6.1743   6.1936   6.2101   6.2113   6.2508
     6.2593   6.2635   6.2797   6.2859   6.2920   6.3018   6.3033   6.3173
     6.3663   6.3727   6.3892   6.4081   6.4213   6.4540   6.4781   6.4918
     6.5334   6.5421   6.5522   6.5732   6.5951   6.6280   6.6298   6.6302
     6.6497   6.6757   6.6982   6.7086   6.7275   6.7339   6.7402   6.7736
     6.7752   6.8227   6.8308   6.8385   6.8584   6.8780   6.8904   6.8991
     6.9034   6.9264   6.9377   6.9455   6.9779   6.9826   6.9978   6.9994
     7.0004   7.0340   7.0601   7.0649   7.0773   7.0962   7.1206   7.1266
     7.1329   7.1405   7.1588   7.1869   7.1898   7.2204   7.2257   7.2309
     7.2594   7.2601   7.2681   7.2939   7.2979   7.3187   7.3316   7.3367
     7.3713   7.3780   7.3803   7.3959   7.4226   7.4392   7.4498   7.4557
     7.4660   7.4951   7.4960   7.4992

          k = 0.0000 0.0000 0.0094 (184129 PWs)   bands (ev):

   -21.8002 -21.6390 -21.4459 -21.2063 -21.0329 -20.9908 -20.7294 -20.6583
   -20.3731 -20.3046 -20.0537 -19.9705 -19.9662 -19.6318 -19.4101 -19.3353
   -19.2137 -19.1018 -18.9314 -18.8462 -18.6649 -18.4820 -18.3557 -18.2391
   -17.8786 -17.8699 -17.7202 -17.6646 -17.6134 -17.4401 -17.3689 -17.1450
   -17.1055 -16.9485 -16.8957 -16.6836 -16.5365 -16.3556 -16.3297 -16.0829
   -15.6396 -15.3668 -15.1890 -15.1028 -15.0003 -14.9707 -14.8581 -14.7309
   -14.7265 -14.4369 -14.4317 -14.3496 -14.1390 -13.9329 -13.7509 -13.5400
   -13.3785 -13.3754 -13.2240 -13.1817 -13.1733 -12.8675 -12.8482 -12.6071
   -12.4309 -12.1251 -12.0131 -11.9999 -11.9093 -11.7335 -11.7309 -11.5753
   -11.5665 -11.4602 -11.3051 -11.2683 -11.0105 -10.9862 -10.8334 -10.8036
   -10.7153 -10.5540 -10.3816 -10.2934 -10.2887 -10.1747 -10.1110 -10.1105
    -9.8893  -9.8679  -9.7367  -9.6784  -9.6557  -9.5643  -9.5280  -9.5174
    -9.4835  -9.4519  -9.3956  -9.3454  -9.2446  -9.2038  -9.1920  -9.0812
    -8.9983  -8.9931  -8.9819  -8.9578  -8.9361  -8.8828  -8.6461  -8.6420
    -8.6300  -8.5998  -8.5830  -8.5626  -8.5276  -8.5189  -8.4163  -8.3055
    -8.2679  -8.2118  -8.1805  -8.1549  -8.1094  -8.0289  -7.9883  -7.8804
    -7.8734  -7.7627  -7.7199  -7.7141  -7.5939  -7.5892  -7.4166  -7.3347
    -7.2532  -7.1226  -7.0909  -7.0612  -7.0115  -6.9684  -6.9121  -6.8500
    -6.8418  -6.7682  -6.6136  -6.5812  -6.4943  -6.3460  -6.3368  -6.1674
    -6.1004  -6.0887  -5.9803  -5.8806  -5.8704  -5.4745  -5.4600  -5.3378
    -5.3331  -5.3062  -5.1779  -5.1676  -5.0454  -4.8548  -4.6399  -4.6119
    -4.4708  -4.2808  -3.9205  -3.8745  -3.7515  -2.8524  -2.2301  -1.4029
    -1.2273  -1.2037  -0.9792  -0.8619  -0.7016  -0.6940  -0.5198  -0.3998
    -0.2046  -0.1835   0.0549   0.1043   0.2642   0.3063   0.3680   0.5288
     0.5876   0.7166   0.7222   0.7749   0.8198   0.8648   0.9672   1.0247
     1.0522   1.0662   1.1902   1.3219   1.3720   1.3825   1.4052   1.5141
     1.5217   1.5297   1.6199   1.6433   1.6715   1.7087   1.8663   1.8938
     1.9198   1.9831   1.9941   2.0489   2.0658   2.0963   2.1191   2.1569
     2.1850   2.1907   2.2593   2.2631   2.3403   2.3569   2.4076   2.4342
     2.4744   2.4773   2.4835   2.5228   2.5279   2.5766   2.5882   2.6235
     2.6922   2.6952   2.7069   2.7339   2.7638   2.7912   2.7965   2.8165
     2.8282   2.9042   2.9134   2.9479   2.9589   2.9605   2.9921   3.0050
     3.0438   3.1003   3.1067   3.1266   3.1369   3.1758   3.1998   3.2170
     3.2932   3.3346   3.3475   3.3968   3.4062   3.4474   3.4643   3.5217
     3.5405   3.5434   3.5546   3.5619   3.5678   3.5810   3.6135   3.6208
     3.6265   3.6432   3.6652   3.6794   3.7169   3.7221   3.7314   3.7495
     3.7758   3.8027   3.8041   3.8235   3.8477   3.8549   3.9272   3.9307
     3.9639   3.9958   4.0430   4.0463   4.0625   4.0732   4.1085   4.1252
     4.1277   4.1548   4.2062   4.2158   4.2295   4.3532   4.3681   4.3701
     4.3818   4.3849   4.4001   4.4289   4.4694   4.4698   4.4856   4.5556
     4.5644   4.5758   4.6057   4.6237   4.6308   4.6336   4.6446   4.6813
     4.6870   4.6901   4.7056   4.7624   4.7829   4.7842   4.7951   4.8018
     4.8821   4.8942   4.9018   4.9157   4.9422   4.9536   4.9773   4.9951
     5.0256   5.0373   5.0428   5.0697   5.0801   5.1066   5.1316   5.1389
     5.1537   5.1970   5.2169   5.2313   5.2364   5.2369   5.2554   5.2607
     5.2707   5.2923   5.3536   5.3678   5.3908   5.3960   5.4042   5.4146
     5.4159   5.4236   5.4468   5.4884   5.4987   5.5126   5.5804   5.5823
     5.6295   5.6391   5.6893   5.7204   5.7377   5.7506   5.7591   5.7865
     5.7933   5.8060   5.8215   5.8321   5.8391   5.8598   5.8748   5.9061
     5.9120   5.9167   5.9209   5.9430   5.9661   5.9836   5.9961   6.0078
     6.0136   6.0316   6.0498   6.0673   6.0867   6.1038   6.1105   6.1117
     6.1167   6.1317   6.1681   6.1699   6.1721   6.2032   6.2299   6.2392
     6.2468   6.2622   6.2657   6.2773   6.2778   6.3014   6.3309   6.3319
     6.3738   6.3807   6.3951   6.4261   6.4270   6.4434   6.4766   6.5046
     6.5449   6.5577   6.5612   6.5803   6.5901   6.6123   6.6397   6.6473
     6.6630   6.6848   6.7093   6.7147   6.7227   6.7280   6.7413   6.7850
     6.7937   6.8323   6.8330   6.8489   6.8629   6.8869   6.8919   6.8999
     6.9177   6.9277   6.9281   6.9468   6.9901   6.9909   6.9997   7.0065
     7.0248   7.0253   7.0624   7.0689   7.0711   7.0817   7.0935   7.1306
     7.1370   7.1370   7.1445   7.1697   7.1745   7.2130   7.2179   7.2215
     7.2434   7.2504   7.2525   7.2908   7.2993   7.3028   7.3315   7.3329
     7.3514   7.3611   7.3692   7.4028   7.4099   7.4391   7.4398   7.4500
     7.4607   7.4947   7.5009   7.5055

          k = 0.0000 0.0000 0.0103 (184157 PWs)   bands (ev):

   -21.7988 -21.6453 -21.4351 -21.2059 -21.0493 -20.9936 -20.7219 -20.6383
   -20.3869 -20.3045 -20.0568 -19.9880 -19.9529 -19.6290 -19.3839 -19.3581
   -19.2206 -19.1018 -18.9224 -18.8325 -18.6481 -18.5136 -18.3554 -18.2608
   -17.8983 -17.8546 -17.7085 -17.6453 -17.6195 -17.4302 -17.3664 -17.1170
   -17.1057 -16.9550 -16.9207 -16.7098 -16.5305 -16.3343 -16.3342 -16.1057
   -15.6422 -15.3441 -15.1813 -15.1016 -14.9771 -14.9721 -14.8585 -14.7415
   -14.7388 -14.4278 -14.4197 -14.3396 -14.1841 -13.9682 -13.7466 -13.5488
   -13.3837 -13.3738 -13.2152 -13.1578 -13.1413 -12.8611 -12.8518 -12.5970
   -12.4223 -12.1300 -12.0163 -12.0085 -11.9213 -11.7764 -11.7451 -11.5743
   -11.5701 -11.4538 -11.2894 -11.2524 -11.0026 -11.0007 -10.8185 -10.8076
   -10.6757 -10.5648 -10.4065 -10.2821 -10.2727 -10.2003 -10.1104 -10.1045
    -9.8906  -9.8661  -9.7305  -9.6863  -9.6512  -9.5571  -9.5382  -9.5136
    -9.4926  -9.4388  -9.4112  -9.3458  -9.2507  -9.2074  -9.1914  -9.0830
    -8.9871  -8.9846  -8.9773  -8.9684  -8.9398  -8.8754  -8.6397  -8.6366
    -8.6271  -8.6127  -8.5940  -8.5593  -8.5361  -8.4952  -8.4259  -8.3087
    -8.2774  -8.2291  -8.1804  -8.1539  -8.0984  -8.0256  -7.9912  -7.8813
    -7.8502  -7.7479  -7.7411  -7.7043  -7.6067  -7.5947  -7.4135  -7.3438
    -7.2400  -7.1089  -7.0627  -7.0567  -7.0381  -6.9759  -6.9103  -6.8583
    -6.8504  -6.7813  -6.6103  -6.5639  -6.5127  -6.3195  -6.3187  -6.1538
    -6.1217  -6.1000  -5.9848  -5.9064  -5.8741  -5.4788  -5.4482  -5.3497
    -5.3290  -5.2818  -5.1780  -5.1635  -5.0452  -4.8505  -4.6563  -4.5906
    -4.4953  -4.2767  -3.8961  -3.8749  -3.7668  -2.8725  -2.2117  -1.3870
    -1.2260  -1.2226  -0.9844  -0.8470  -0.6966  -0.6751  -0.5170  -0.4307
    -0.2062  -0.1987   0.0203   0.1178   0.2362   0.3051   0.4055   0.5314
     0.5903   0.7069   0.7501   0.7652   0.8149   0.8673   0.9818   1.0393
     1.0563   1.0991   1.1929   1.3370   1.3725   1.3740   1.3882   1.4917
     1.5013   1.5141   1.6067   1.6587   1.6594   1.7125   1.8723   1.8797
     1.9101   1.9872   2.0145   2.0683   2.0704   2.1068   2.1142   2.1586
     2.1730   2.2076   2.2510   2.2665   2.3358   2.3683   2.4117   2.4315
     2.4701   2.4760   2.4798   2.5242   2.5304   2.5584   2.5876   2.6298
     2.6739   2.6852   2.7203   2.7217   2.7608   2.8050   2.8134   2.8176
     2.8192   2.8881   2.8970   2.9620   2.9717   2.9743   2.9847   3.0118
     3.0233   3.0986   3.1063   3.1137   3.1310   3.1635   3.2133   3.2348
     3.2679   3.3333   3.3494   3.3763   3.4116   3.4467   3.4839   3.5126
     3.5274   3.5350   3.5598   3.5730   3.5790   3.5859   3.6223   3.6246
     3.6352   3.6574   3.6630   3.6871   3.6968   3.7006   3.7477   3.7511
     3.7724   3.7937   3.8078   3.8392   3.8484   3.8604   3.8964   3.9515
     3.9518   3.9754   4.0262   4.0590   4.0777   4.1001   4.1167   4.1349
     4.1395   4.1754   4.2138   4.2241   4.2419   4.3454   4.3556   4.3625
     4.3693   4.3892   4.4068   4.4459   4.4491   4.4710   4.5039   4.5414
     4.5577   4.5749   4.5962   4.6119   4.6119   4.6510   4.6594   4.6672
     4.6822   4.6914   4.7307   4.7589   4.7667   4.7795   4.7874   4.8032
     4.8730   4.8881   4.9276   4.9318   4.9384   4.9427   4.9721   4.9912
     5.0070   5.0338   5.0411   5.0693   5.0872   5.0987   5.1105   5.1502
     5.1712   5.1725   5.2172   5.2329   5.2397   5.2550   5.2603   5.2615
     5.2935   5.3227   5.3246   5.3636   5.3851   5.3868   5.3939   5.4173
     5.4300   5.4309   5.4550   5.4813   5.4841   5.4973   5.5751   5.5844
     5.6332   5.6556   5.6811   5.7225   5.7389   5.7391   5.7672   5.7678
     5.7760   5.7875   5.8267   5.8302   5.8568   5.8594   5.8674   5.8840
     5.9029   5.9281   5.9394   5.9458   5.9670   5.9810   5.9904   6.0003
     6.0323   6.0403   6.0597   6.0614   6.0623   6.0866   6.1082   6.1221
     6.1235   6.1402   6.1481   6.1709   6.1744   6.1926   6.2192   6.2244
     6.2420   6.2539   6.2668   6.2669   6.2741   6.3214   6.3531   6.3586
     6.3752   6.3820   6.3901   6.4262   6.4442   6.4515   6.4837   6.5174
     6.5500   6.5680   6.5708   6.5738   6.5875   6.6070   6.6490   6.6618
     6.6725   6.6789   6.6984   6.7140   6.7385   6.7486   6.7577   6.7952
     6.8099   6.8153   6.8389   6.8590   6.8667   6.8687   6.8881   6.8884
     6.9202   6.9287   6.9546   6.9763   6.9823   6.9992   7.0087   7.0105
     7.0376   7.0402   7.0569   7.0605   7.0671   7.0709   7.0923   7.1101
     7.1341   7.1378   7.1419   7.1578   7.1735   7.1968   7.2076   7.2099
     7.2307   7.2335   7.2522   7.2682   7.2927   7.3026   7.3204   7.3222
     7.3550   7.3571   7.3582   7.3840   7.4015   7.4167   7.4395   7.4498
     7.4724   7.5074   7.5099   7.5125

          k = 0.0000 0.0000 0.0113 (184145 PWs)   bands (ev):

   -21.7972 -21.6515 -21.4241 -21.2054 -21.0655 -20.9962 -20.7139 -20.6180
   -20.4007 -20.3045 -20.0622 -20.0075 -19.9349 -19.6262 -19.3808 -19.3582
   -19.2266 -19.1018 -18.9148 -18.8185 -18.6297 -18.5450 -18.3550 -18.2823
   -17.9270 -17.8317 -17.7018 -17.6252 -17.6204 -17.4203 -17.3635 -17.1058
   -17.0902 -16.9601 -16.9454 -16.7376 -16.5248 -16.3395 -16.3132 -16.1286
   -15.6464 -15.3192 -15.1732 -15.1003 -14.9831 -14.9428 -14.8589 -14.7514
   -14.7512 -14.4184 -14.4081 -14.3300 -14.2290 -14.0041 -13.7414 -13.5571
   -13.3921 -13.3745 -13.2078 -13.1408 -13.0980 -12.8552 -12.8546 -12.5866
   -12.4136 -12.1342 -12.0226 -12.0186 -11.9296 -11.8220 -11.7567 -11.5843
   -11.5636 -11.4476 -11.2721 -11.2371 -11.0147 -10.9946 -10.8117 -10.8041
   -10.6353 -10.5752 -10.4317 -10.2785 -10.2513 -10.2245 -10.1086 -10.0971
    -9.8918  -9.8642  -9.7283  -9.6940  -9.6484  -9.5558  -9.5528  -9.5049
    -9.5037  -9.4255  -9.4230  -9.3389  -9.2581  -9.2096  -9.1908  -9.0843
    -8.9967  -8.9768  -8.9754  -8.9553  -8.9434  -8.8680  -8.6527  -8.6267
    -8.6266  -8.6152  -8.6040  -8.5544  -8.5432  -8.4712  -8.4351  -8.3118
    -8.2854  -8.2464  -8.1802  -8.1532  -8.0864  -8.0217  -7.9940  -7.8824
    -7.8272  -7.7758  -7.7191  -7.7035  -7.6241  -7.5860  -7.4102  -7.3535
    -7.2273  -7.0984  -7.0648  -7.0487  -7.0393  -6.9782  -6.9084  -6.8784
    -6.8507  -6.7913  -6.6077  -6.5461  -6.5312  -6.3011  -6.2921  -6.1549
    -6.1406  -6.0997  -5.9899  -5.9318  -5.8782  -5.5008  -5.4230  -5.3595
    -5.3267  -5.2564  -5.1771  -5.1578  -5.0449  -4.8476  -4.6740  -4.5686
    -4.5196  -4.2721  -3.8753  -3.8722  -3.7831  -2.8927  -2.1934  -1.3700
    -1.2412  -1.2245  -0.9897  -0.8306  -0.6927  -0.6571  -0.5134  -0.4598
    -0.2136  -0.2085  -0.0140   0.1307   0.2092   0.3041   0.4430   0.5343
     0.5932   0.6973   0.7557   0.7779   0.8100   0.8701   0.9965   1.0468
     1.0542   1.1462   1.1959   1.3507   1.3644   1.3680   1.3763   1.4686
     1.4811   1.4979   1.5943   1.6500   1.6743   1.7162   1.8505   1.8921
     1.9022   1.9911   2.0339   2.0717   2.0918   2.1086   2.1165   2.1568
     2.1590   2.2249   2.2451   2.2731   2.3321   2.3794   2.3896   2.4472
     2.4634   2.4718   2.4783   2.5136   2.5332   2.5559   2.5979   2.6357
     2.6551   2.6754   2.7105   2.7316   2.7564   2.7951   2.8121   2.8353
     2.8368   2.8671   2.8851   2.9655   2.9723   2.9927   2.9958   3.0034
     3.0220   3.0826   3.0860   3.1215   3.1404   3.1518   3.2277   3.2418
     3.2528   3.3321   3.3458   3.3524   3.4261   3.4466   3.4945   3.5009
     3.5108   3.5294   3.5631   3.5728   3.5899   3.5900   3.6285   3.6303
     3.6365   3.6400   3.6753   3.6795   3.6992   3.7128   3.7582   3.7651
     3.7656   3.7839   3.8187   3.8459   3.8519   3.8553   3.8872   3.9394
     3.9551   3.9753   4.0025   4.0751   4.0932   4.1203   4.1274   4.1309
     4.1595   4.1967   4.2097   4.2423   4.2661   4.3376   4.3423   4.3437
     4.3507   4.4051   4.4185   4.4297   4.4518   4.4730   4.4983   4.5307
     4.5691   4.5716   4.5731   4.5947   4.6137   4.6574   4.6646   4.6793
     4.6860   4.6931   4.7338   4.7464   4.7650   4.7733   4.7946   4.8147
     4.8493   4.8910   4.9205   4.9322   4.9510   4.9639   4.9655   4.9725
     4.9897   5.0131   5.0543   5.0585   5.0707   5.1110   5.1196   5.1301
     5.1851   5.1855   5.1981   5.2420   5.2490   5.2557   5.2686   5.2783
     5.2849   5.3345   5.3441   5.3492   5.3718   5.3759   5.3819   5.4154
     5.4303   5.4515   5.4661   5.4789   5.4820   5.4964   5.5702   5.5866
     5.6311   5.6725   5.6754   5.7207   5.7279   5.7295   5.7458   5.7580
     5.7654   5.7836   5.8088   5.8196   5.8533   5.8654   5.8674   5.8950
     5.9063   5.9378   5.9473   5.9475   5.9678   5.9705   5.9922   6.0027
     6.0150   6.0344   6.0564   6.0615   6.0745   6.0930   6.0942   6.1110
     6.1248   6.1409   6.1690   6.1695   6.1753   6.1790   6.2120   6.2159
     6.2312   6.2413   6.2598   6.2723   6.2842   6.3507   6.3757   6.3758
     6.3771   6.3804   6.3861   6.4160   6.4616   6.4639   6.5046   6.5278
     6.5420   6.5603   6.5666   6.5804   6.5902   6.6226   6.6443   6.6750
     6.6797   6.6814   6.6928   6.7111   6.7548   6.7656   6.7875   6.7951
     6.8043   6.8223   6.8285   6.8456   6.8685   6.8748   6.8771   6.8842
     6.9105   6.9536   6.9705   6.9810   6.9892   7.0009   7.0111   7.0238
     7.0334   7.0467   7.0552   7.0554   7.0680   7.0698   7.0852   7.1207
     7.1318   7.1330   7.1337   7.1419   7.1794   7.1940   7.2003   7.2008
     7.2136   7.2222   7.2422   7.2578   7.2932   7.2947   7.2956   7.3033
     7.3309   7.3604   7.3721   7.3727   7.3872   7.4134   7.4341   7.4532
     7.4836   7.4880   7.5195   7.5196

          k = 0.0000 0.0000 0.0122 (184171 PWs)   bands (ev):

   -21.7956 -21.6574 -21.4128 -21.2049 -21.0816 -20.9989 -20.7055 -20.5976
   -20.4145 -20.3045 -20.0717 -20.0228 -19.9166 -19.6234 -19.4036 -19.3335
   -19.2309 -19.1018 -18.9082 -18.8042 -18.6099 -18.5761 -18.3547 -18.3037
   -17.9558 -17.8101 -17.6973 -17.6306 -17.5925 -17.4105 -17.3600 -17.1061
   -17.0661 -16.9699 -16.9623 -16.7667 -16.5196 -16.3456 -16.2924 -16.1512
   -15.6518 -15.2927 -15.1649 -15.0989 -14.9883 -14.9128 -14.8594 -14.7635
   -14.7603 -14.4091 -14.3971 -14.3209 -14.2734 -14.0403 -13.7355 -13.5650
   -13.4027 -13.3769 -13.1999 -13.1233 -13.0547 -12.8577 -12.8479 -12.5760
   -12.4047 -12.1376 -12.0322 -12.0298 -11.9346 -11.8667 -11.7684 -11.5959
   -11.5559 -11.4414 -11.2539 -11.2228 -11.0277 -10.9866 -10.8159 -10.7899
   -10.5953 -10.5849 -10.4569 -10.2839 -10.2407 -10.2294 -10.1058 -10.0890
    -9.8929  -9.8621  -9.7294  -9.7014  -9.6470  -9.5716  -9.5614  -9.5195
    -9.4900  -9.4284  -9.4119  -9.3262  -9.2663  -9.2107  -9.1902  -9.0850
    -9.0158  -8.9672  -8.9662  -8.9470  -8.9433  -8.8607  -8.6686  -8.6407
    -8.6161  -8.6126  -8.6071  -8.5492  -8.5485  -8.4472  -8.4440  -8.3149
    -8.2913  -8.2636  -8.1801  -8.1528  -8.0735  -8.0171  -7.9967  -7.8838
    -7.8048  -7.8033  -7.7103  -7.6968  -7.6414  -7.5693  -7.4067  -7.3640
    -7.2150  -7.0918  -7.0915  -7.0367  -7.0280  -6.9680  -6.9064  -6.9010
    -6.8510  -6.7992  -6.6056  -6.5498  -6.5279  -6.2839  -6.2640  -6.1881
    -6.1278  -6.0992  -5.9953  -5.9569  -5.8826  -5.5254  -5.3994  -5.3673
    -5.3242  -5.2325  -5.1756  -5.1496  -5.0445  -4.8459  -4.6929  -4.5465
    -4.5439  -4.2666  -3.8758  -3.8489  -3.8004  -2.9127  -2.1753  -1.3521
    -1.2596  -1.2229  -0.9951  -0.8128  -0.6906  -0.6404  -0.5087  -0.4863
    -0.2282  -0.2120  -0.0472   0.1430   0.1831   0.3033   0.4803   0.5375
     0.5963   0.6881   0.7464   0.8052   0.8057   0.8730   1.0112   1.0378
     1.0693   1.1936   1.1991   1.3451   1.3499   1.3714   1.3786   1.4449
     1.4611   1.4812   1.5829   1.6431   1.6902   1.7200   1.8287   1.8895
     1.9101   1.9947   2.0499   2.0769   2.1034   2.1131   2.1243   2.1447
     2.1519   2.2411   2.2424   2.2813   2.3291   2.3681   2.3895   2.4335
     2.4449   2.4797   2.4921   2.5104   2.5361   2.5658   2.6068   2.6360
     2.6418   2.6657   2.6999   2.7381   2.7498   2.7891   2.8076   2.8437
     2.8472   2.8558   2.8858   2.9630   2.9692   2.9852   3.0072   3.0183
     3.0349   3.0631   3.0667   3.1305   3.1407   3.1541   3.2152   3.2424
     3.2700   3.3169   3.3316   3.3548   3.4399   3.4468   3.4742   3.4944
     3.5083   3.5291   3.5647   3.5652   3.5928   3.5964   3.6099   3.6234
     3.6306   3.6464   3.6720   3.6874   3.7142   3.7410   3.7576   3.7724
     3.7749   3.7823   3.8230   3.8323   3.8489   3.8720   3.8990   3.9282
     3.9350   3.9787   4.0004   4.0913   4.1087   4.1221   4.1252   4.1548
     4.1780   4.1813   4.2447   4.2606   4.2824   4.3221   4.3304   4.3321
     4.3408   4.4120   4.4161   4.4285   4.4408   4.4732   4.4818   4.5317
     4.5541   4.5604   4.5710   4.6055   4.6070   4.6625   4.6750   4.6796
     4.6944   4.7094   4.7110   4.7507   4.7523   4.7822   4.8061   4.8263
     4.8366   4.8915   4.9057   4.9221   4.9421   4.9504   4.9681   4.9814
     4.9985   5.0032   5.0187   5.0610   5.0756   5.1006   5.1303   5.1370
[...]
    -6.8366  -6.7129  -6.6911  -6.5983  -6.4893  -6.3661  -6.1575  -6.1538
    -6.1050  -6.0578  -6.0367  -5.9843  -5.9276  -5.7941  -5.3963  -5.3366
    -5.2471  -5.1586  -5.0803  -5.0484  -4.9582  -4.8728  -4.8485  -4.7625
    -4.4070  -4.1639  -3.9823  -3.8770  -3.6933  -3.0534  -2.0539  -1.3810
    -1.2295  -1.1462  -1.0529  -0.8060  -0.6004  -0.5717  -0.5416  -0.4463
    -0.3767  -0.3303  -0.1758   0.0070   0.2174   0.3001   0.5765   0.6157
     0.6360   0.6736   0.7286   0.8523   0.9052   0.9700   1.0519   1.0691
     1.1535   1.2148   1.2156   1.2297   1.2717   1.3047   1.3198   1.4013
     1.5168   1.5252   1.6260   1.6350   1.6409   1.7552   1.8235   1.8447
     1.8983   1.9573   2.0590   2.0655   2.0755   2.0805   2.1387   2.1574
     2.1729   2.1936   2.2808   2.2862   2.3240   2.4054   2.4124   2.4192
     2.4543   2.4887   2.5169   2.5498   2.5725   2.5868   2.6107   2.6111
     2.6153   2.6315   2.6833   2.7287   2.7339   2.7450   2.7686   2.8089
     2.8206   2.8416   2.8757   2.9345   2.9365   2.9801   3.0069   3.0466
     3.0776   3.0896   3.1249   3.1365   3.1683   3.2011   3.2841   3.2914
     3.2966   3.3117   3.3183   3.3237   3.3483   3.3827   3.3864   3.4127
     3.4262   3.4536   3.4761   3.5161   3.5337   3.5615   3.6042   3.6148
     3.6330   3.6500   3.6977   3.7019   3.7273   3.7297   3.7534   3.7969
     3.8107   3.8119   3.8391   3.9653   3.9713   4.0010   4.0089   4.0221
     4.0534   4.0543   4.0669   4.1191   4.1252   4.1403   4.1425   4.1518
     4.1526   4.2057   4.2159   4.2480   4.2595   4.2727   4.2919   4.3362
     4.3680   4.3866   4.4016   4.4039   4.4452   4.4596   4.4778   4.4999
     4.5172   4.5594   4.5848   4.6191   4.6285   4.6401   4.6574   4.6657
     4.6884   4.7055   4.7151   4.7332   4.7591   4.7812   4.8041   4.8375
     4.8413   4.8624   4.8653   4.8786   4.8903   4.9226   4.9549   4.9574
     4.9807   4.9862   5.0067   5.0369   5.0377   5.0788   5.1082   5.1361
     5.1570   5.1597   5.2354   5.2359   5.2729   5.2780   5.2963   5.3081
     5.3285   5.3614   5.3762   5.4122   5.4245   5.4332   5.4339   5.4522
     5.4709   5.4754   5.4873   5.5271   5.5399   5.5407   5.5562   5.5683
     5.5728   5.6073   5.6157   5.6322   5.6364   5.6578   5.6971   5.7010
     5.7061   5.7309   5.7349   5.7663   5.7935   5.8138   5.8208   5.8254
     5.8274   5.8397   5.9016   5.9300   5.9392   5.9811   5.9847   5.9905
     5.9967   6.0217   6.0641   6.0769   6.0842   6.0947   6.1156   6.1158
     6.1356   6.1456   6.1646   6.1866   6.2127   6.2233   6.2373   6.2655
     6.2672   6.2903   6.3247   6.3624   6.3865   6.4022   6.4134   6.4538
     6.4594   6.4748   6.4857   6.4974   6.5208   6.5395   6.5543   6.5655
     6.5705   6.5826   6.6095   6.6105   6.6419   6.6556   6.6641   6.6730
     6.6844   6.6879   6.6915   6.6939   6.7266   6.7425   6.7450   6.7508
     6.7714   6.7928   6.8152   6.8286   6.8423   6.8613   6.8727   6.8755
     6.8909   6.9127   6.9127   6.9210   6.9530   6.9552   6.9752   6.9761
     6.9861   6.9943   7.0130   7.0327   7.0426   7.0449   7.0761   7.0865
     7.1056   7.1531   7.1695   7.1796   7.1876   7.1971   7.2246   7.2434
     7.2602   7.2713   7.2804   7.3000   7.3154   7.3387   7.3541   7.3679
     7.4032   7.4073   7.4163   7.4178   7.4283   7.4400   7.4715   7.4817
     7.4859   7.4861   7.4902   7.5032

          k = 0.0000 0.0000 0.0216 (184017 PWs)   bands (ev):

   -21.7804 -21.6972 -21.2888 -21.2323 -21.2014 -21.0164 -20.6082 -20.5421
   -20.3861 -20.3166 -20.2717 -20.0473 -19.7229 -19.6212 -19.6022 -19.3018
   -19.1018 -19.0238 -18.8974 -18.8816 -18.6478 -18.4830 -18.3829 -18.3361
   -18.2422 -17.7166 -17.6615 -17.6346 -17.3393 -17.3380 -17.2484 -17.1730
   -17.1026 -17.0768 -17.0655 -16.7371 -16.5822 -16.4063 -16.2828 -16.1447
   -15.7189 -15.1256 -15.0873 -15.0709 -14.9096 -14.8690 -14.8274 -14.8247
   -14.6958 -14.5613 -14.4142 -14.3411 -14.3230 -14.2647 -13.6536 -13.6098
   -13.5332 -13.4197 -13.1199 -13.0049 -12.9383 -12.7940 -12.5597 -12.4890
   -12.3577 -12.3072 -12.2268 -12.1265 -12.0668 -11.8737 -11.8717 -11.7196
   -11.4794 -11.3677 -11.2348 -11.1197 -11.0259 -10.9009 -10.8318 -10.7016
   -10.6564 -10.6055 -10.5288 -10.3259 -10.0980 -10.0694 -10.0351 -10.0121
    -9.9633  -9.8419  -9.8166  -9.7871  -9.7517  -9.7207  -9.6658  -9.6142
    -9.4552  -9.3372  -9.2631  -9.2282  -9.1955  -9.1855  -9.1621  -9.1514
    -9.0554  -9.0395  -8.9703  -8.9564  -8.8580  -8.8263  -8.7667  -8.7316
    -8.6636  -8.5928  -8.5765  -8.5472  -8.5009  -8.4919  -8.4242  -8.3394
    -8.2478  -8.2102  -8.1675  -8.1637  -8.0805  -8.0258  -7.9507  -7.9304
    -7.8838  -7.8408  -7.8209  -7.5845  -7.5024  -7.4626  -7.3773  -7.3504
    -7.3022  -7.1819  -7.1235  -7.0829  -7.0800  -6.9104  -6.8516  -6.8501
    -6.8382  -6.7269  -6.6583  -6.5982  -6.5224  -6.3536  -6.1676  -6.1490
    -6.1044  -6.0640  -6.0315  -5.9540  -5.9311  -5.8251  -5.3971  -5.3363
    -5.2439  -5.1577  -5.0654  -5.0440  -4.9547  -4.8717  -4.8490  -4.7868
    -4.4020  -4.1497  -3.9989  -3.8772  -3.6860  -3.0602  -2.0484  -1.3865
    -1.2278  -1.1279  -1.0632  -0.8178  -0.5754  -0.5674  -0.5389  -0.4620
    -0.3845  -0.3356  -0.1772  -0.0018   0.2205   0.3000   0.5818   0.6092
     0.6416   0.6667   0.7319   0.8809   0.9079   0.9660   1.0370   1.0784
     1.1683   1.1897   1.2264   1.2319   1.2691   1.2933   1.3021   1.4026
     1.5139   1.5435   1.6214   1.6356   1.6731   1.7580   1.8195   1.8578
     1.8629   1.9382   2.0637   2.0767   2.0770   2.0813   2.1301   2.1538
     2.1584   2.1942   2.2917   2.2988   2.3206   2.4049   2.4178   2.4291
     2.4667   2.4904   2.4968   2.5547   2.5708   2.5795   2.6028   2.6029
     2.6227   2.6273   2.6897   2.7260   2.7488   2.7514   2.7645   2.8187
     2.8246   2.8285   2.8597   2.9243   2.9295   2.9849   3.0127   3.0414
     3.0593   3.0914   3.1428   3.1622   3.1869   3.2189   3.2645   3.2785
     3.2879   3.2962   3.3282   3.3288   3.3432   3.3880   3.3947   3.4089
     3.4156   3.4489   3.4694   3.5041   3.5107   3.5775   3.6058   3.6299
     3.6373   3.6502   3.6938   3.6951   3.7092   3.7359   3.7422   3.7960
     3.8060   3.8217   3.8521   3.9687   3.9972   4.0082   4.0208   4.0494
     4.0589   4.0656   4.0780   4.1069   4.1097   4.1292   4.1348   4.1426
     4.1451   4.1873   4.2056   4.2585   4.2705   4.3007   4.3049   4.3341
     4.3491   4.3797   4.3835   4.4028   4.4184   4.4658   4.5066   4.5071
     4.5268   4.5594   4.6008   4.6025   4.6250   4.6373   4.6475   4.6637
     4.6871   4.7108   4.7159   4.7343   4.7608   4.7780   4.7965   4.8273
     4.8457   4.8600   4.8621   4.8799   4.8833   4.9277   4.9308   4.9690
     4.9874   5.0075   5.0145   5.0203   5.0410   5.0842   5.1087   5.1110
     5.1445   5.1852   5.2143   5.2350   5.2842   5.2859   5.3013   5.3250
     5.3300   5.3603   5.3799   5.4045   5.4169   5.4323   5.4434   5.4483
     5.4731   5.4951   5.5132   5.5210   5.5245   5.5253   5.5273   5.5788
     5.5919   5.5946   5.6157   5.6303   5.6362   5.6678   5.6866   5.6946
     5.7144   5.7313   5.7330   5.7389   5.7952   5.7972   5.8194   5.8247
     5.8351   5.8444   5.9137   5.9177   5.9370   5.9812   5.9838   5.9893
     6.0015   6.0100   6.0600   6.0766   6.0907   6.0941   6.1137   6.1176
     6.1440   6.1540   6.1609   6.1819   6.2120   6.2236   6.2264   6.2582
     6.2719   6.2998   6.3340   6.3669   6.3854   6.4058   6.4360   6.4603
     6.4710   6.4885   6.5052   6.5135   6.5173   6.5454   6.5463   6.5557
     6.5676   6.5733   6.5995   6.6337   6.6404   6.6413   6.6524   6.6682
     6.6825   6.6854   6.6912   6.6984   6.7134   6.7358   6.7539   6.7609
     6.7683   6.8117   6.8224   6.8266   6.8352   6.8501   6.8638   6.8846
     6.8875   6.8912   6.9044   6.9094   6.9324   6.9740   6.9750   6.9761
     6.9782   6.9835   7.0053   7.0155   7.0398   7.0491   7.0823   7.0885
     7.1126   7.1353   7.1722   7.1941   7.2003   7.2171   7.2293   7.2559
     7.2584   7.2953   7.2976   7.3061   7.3210   7.3349   7.3439   7.3683
     7.3893   7.4131   7.4138   7.4394   7.4424   7.4473   7.4562   7.4759
     7.4799   7.4852   7.5064   7.5109

          k = 0.0000 0.0000 0.0225 (184049 PWs)   bands (ev):

   -21.7799 -21.6983 -21.2758 -21.2458 -21.2013 -21.0168 -20.6008 -20.5501
   -20.3654 -20.3283 -20.2811 -20.0475 -19.7070 -19.6376 -19.6016 -19.3029
   -19.1018 -18.9967 -18.9248 -18.8812 -18.6411 -18.4907 -18.3734 -18.3204
   -18.2681 -17.7159 -17.6621 -17.6315 -17.3359 -17.3310 -17.2354 -17.1737
   -17.1094 -17.0943 -17.0674 -16.7188 -16.5971 -16.4067 -16.2852 -16.1406
   -15.7213 -15.1241 -15.0870 -15.0681 -14.9012 -14.8695 -14.8255 -14.8091
   -14.7299 -14.5269 -14.4484 -14.3393 -14.3224 -14.2634 -13.6486 -13.6107
   -13.5395 -13.4211 -13.1170 -13.0022 -12.9400 -12.7924 -12.5235 -12.4771
   -12.4035 -12.2989 -12.2368 -12.1299 -12.0649 -11.8755 -11.8701 -11.7246
   -11.4774 -11.3628 -11.2403 -11.1165 -11.0228 -10.8970 -10.8309 -10.7020
   -10.6632 -10.5933 -10.5467 -10.3220 -10.0813 -10.0533 -10.0273 -10.0099
    -9.9915  -9.8411  -9.8219  -9.7892  -9.7531  -9.7281  -9.6675  -9.6160
    -9.4541  -9.3394  -9.2476  -9.2251  -9.2117  -9.1853  -9.1456  -9.1411
    -9.0607  -9.0508  -8.9709  -8.9616  -8.8533  -8.8277  -8.7668  -8.7327
    -8.6648  -8.5928  -8.5770  -8.5488  -8.5023  -8.4804  -8.4365  -8.3401
    -8.2441  -8.1994  -8.1647  -8.1546  -8.1046  -8.0270  -7.9469  -7.9213
    -7.8840  -7.8466  -7.8304  -7.5692  -7.5164  -7.4417  -7.3764  -7.3718
    -7.2772  -7.2043  -7.1240  -7.0829  -7.0817  -6.9089  -6.8516  -6.8411
    -6.8392  -6.7370  -6.6262  -6.5981  -6.5548  -6.3451  -6.1769  -6.1432
    -6.1041  -6.0683  -6.0282  -5.9334  -5.9244  -5.8551  -5.3976  -5.3362
    -5.2421  -5.1572  -5.0583  -5.0356  -4.9605  -4.8583  -4.8493  -4.8102
    -4.3990  -4.1392  -4.0110  -3.8773  -3.6816  -3.0643  -2.0450  -1.3899
    -1.2268  -1.1113  -1.0746  -0.8253  -0.5708  -0.5436  -0.5372  -0.4853
    -0.3861  -0.3389  -0.1780  -0.0072   0.2223   0.2999   0.5867   0.6035
     0.6475   0.6601   0.7332   0.9077   0.9098   0.9633   1.0086   1.1037
     1.1647   1.1812   1.2197   1.2492   1.2710   1.2839   1.2844   1.4035
     1.5121   1.5616   1.6025   1.6359   1.7191   1.7598   1.8153   1.8169
     1.8813   1.9193   2.0626   2.0782   2.0818   2.0950   2.1246   2.1351
     2.1590   2.1945   2.3011   2.3074   2.3156   2.4046   2.4179   2.4421
     2.4755   2.4776   2.4978   2.5585   2.5633   2.5740   2.5966   2.5977
     2.6174   2.6400   2.6944   2.7219   2.7383   2.7636   2.7861   2.8062
     2.8243   2.8265   2.8609   2.9025   2.9265   3.0008   3.0179   3.0362
     3.0394   3.0924   3.1563   3.1907   3.2055   3.2369   3.2453   3.2497
     3.2733   3.2916   3.3136   3.3442   3.3663   3.3837   3.3975   3.4036
     3.4129   3.4460   3.4646   3.4945   3.4953   3.5906   3.6067   3.6412
     3.6434   3.6488   3.6849   3.6936   3.6948   3.7350   3.7404   3.7942
     3.8030   3.8290   3.8622   3.9632   4.0166   4.0198   4.0396   4.0559
     4.0724   4.0759   4.0814   4.1007   4.1068   4.1077   4.1275   4.1298
     4.1421   4.1655   4.1984   4.2850   4.2852   4.3183   4.3252   4.3329
     4.3357   4.3502   4.3676   4.3905   4.4132   4.4670   4.5198   4.5330
     4.5365   4.5595   4.5903   4.5981   4.6148   4.6163   4.6424   4.6815
     4.7057   4.7139   4.7170   4.7332   4.7572   4.7621   4.8073   4.8135
     4.8443   4.8451   4.8591   4.8855   4.9024   4.9096   4.9345   4.9630
     4.9766   5.0227   5.0255   5.0322   5.0436   5.0873   5.0888   5.1203
     5.1300   5.1826   5.2058   5.2311   5.2971   5.3031   5.3064   5.3318
     5.3351   5.3597   5.3644   5.3961   5.4098   5.4325   5.4615   5.4625
     5.4722   5.4889   5.5014   5.5147   5.5243   5.5246   5.5415   5.5723
     5.5836   5.6022   5.6160   5.6187   5.6431   5.6720   5.6869   5.6994
     5.7098   5.7322   5.7323   5.7331   5.7632   5.7988   5.8153   5.8237
     5.8489   5.8509   5.9018   5.9356   5.9382   5.9780   5.9813   5.9917
     5.9933   6.0043   6.0569   6.0791   6.0871   6.1001   6.1129   6.1186
     6.1426   6.1539   6.1565   6.2073   6.2075   6.2115   6.2290   6.2569
     6.2750   6.3019   6.3089   6.3793   6.4093   6.4095   6.4531   6.4633
     6.4779   6.4920   6.5036   6.5141   6.5249   6.5443   6.5482   6.5579
     6.5757   6.5839   6.5844   6.6075   6.6252   6.6423   6.6459   6.6798
     6.6833   6.6846   6.6931   6.7009   6.7063   6.7530   6.7573   6.7650
     6.7673   6.7859   6.8243   6.8312   6.8388   6.8572   6.8701   6.8766
     6.8773   6.8956   6.8997   6.9072   6.9156   6.9585   6.9717   6.9721
     6.9772   6.9816   6.9935   7.0190   7.0396   7.0587   7.0878   7.0886
     7.1154   7.1179   7.1656   7.1999   7.2327   7.2333   7.2446   7.2520
     7.2574   7.3080   7.3100   7.3149   7.3235   7.3249   7.3462   7.3653
     7.3708   7.4022   7.4048   7.4325   7.4342   7.4682   7.4755   7.4827
     7.4893   7.4913   7.5025   7.5091

          k = 0.0000 0.0000-0.0235 (184018 PWs)   bands (ev):

   -21.7797 -21.6986 -21.2666 -21.2552 -21.2012 -21.0169 -20.5978 -20.5534
   -20.3484 -20.3426 -20.2839 -20.0475 -19.6997 -19.6451 -19.6014 -19.3033
   -19.1018 -18.9806 -18.9410 -18.8810 -18.6387 -18.4934 -18.3707 -18.3059
   -18.2855 -17.7157 -17.6624 -17.6304 -17.3352 -17.3281 -17.2312 -17.1710
   -17.1175 -17.0973 -17.0680 -16.7114 -16.6033 -16.4068 -16.2860 -16.1392
   -15.7222 -15.1236 -15.0869 -15.0672 -14.8988 -14.8697 -14.8258 -14.7949
   -14.7489 -14.5031 -14.4721 -14.3387 -14.3222 -14.2631 -13.6468 -13.6110
   -13.5418 -13.4216 -13.1161 -13.0013 -12.9406 -12.7919 -12.5105 -12.4470
   -12.4457 -12.2954 -12.2409 -12.1311 -12.0642 -11.8768 -11.8688 -11.7264
   -11.4767 -11.3611 -11.2423 -11.1154 -11.0218 -10.8956 -10.8306 -10.7023
   -10.6656 -10.5860 -10.5558 -10.3208 -10.0784 -10.0304 -10.0245 -10.0158
   -10.0093  -9.8409  -9.8235  -9.7899  -9.7536  -9.7307  -9.6681  -9.6166
    -9.4537  -9.3401  -9.2368  -9.2243  -9.2227  -9.1853  -9.1436  -9.1303
    -9.0714  -9.0489  -8.9711  -8.9637  -8.8516  -8.8284  -8.7669  -8.7331
    -8.6653  -8.5928  -8.5772  -8.5493  -8.5028  -8.4747  -8.4425  -8.3403
    -8.2428  -8.1963  -8.1651  -8.1425  -8.1199  -8.0273  -7.9455  -7.9178
    -7.8841  -7.8487  -7.8340  -7.5617  -7.5234  -7.4309  -7.3828  -7.3761
    -7.2637  -7.2171  -7.1239  -7.0829  -7.0823  -6.9084  -6.8516  -6.8395
    -6.8376  -6.7408  -6.6031  -6.5980  -6.5779  -6.3420  -6.1802  -6.1411
    -6.1040  -6.0700  -6.0271  -5.9342  -5.9044  -5.8752  -5.3978  -5.3361
    -5.2415  -5.1570  -5.0567  -5.0306  -4.9647  -4.8494  -4.8452  -4.8258
    -4.3981  -4.1351  -4.0155  -3.8773  -3.6801  -3.0657  -2.0439  -1.3910
    -1.2266  -1.1017  -1.0824  -0.8279  -0.5704  -0.5365  -0.5233  -0.5048
    -0.3862  -0.3400  -0.1782  -0.0091   0.2230   0.2999   0.5894   0.6005
     0.6529   0.6545   0.7336   0.9105   0.9213   0.9624   0.9945   1.1198
     1.1487   1.1875   1.2152   1.2653   1.2681   1.2754   1.2772   1.4037
     1.5115   1.5747   1.5892   1.6361   1.7530   1.7605   1.7825   1.8160
     1.8975   1.9029   2.0623   2.0788   2.0819   2.1081   2.1218   2.1227
     2.1592   2.1945   2.3083   2.3100   2.3105   2.4045   2.4172   2.4542
     2.4635   2.4787   2.5024   2.5583   2.5601   2.5718   2.5942   2.5970
     2.6155   2.6451   2.6963   2.7201   2.7331   2.7723   2.7975   2.8057
     2.8082   2.8266   2.8793   2.8807   2.9254   3.0188   3.0204   3.0206
     3.0335   3.0928   3.1616   3.2192   3.2206   3.2209   3.2300   3.2536
     3.2568   3.2910   3.3081   3.3544   3.3753   3.3783   3.3959   3.4070
     3.4081   3.4450   3.4629   3.4887   3.4919   3.5960   3.6071   3.6434
     3.6474   3.6500   3.6798   3.6890   3.6931   3.7326   3.7421   3.7931
     3.8023   3.8315   3.8662   3.9602   4.0212   4.0306   4.0486   4.0608
     4.0674   4.0741   4.0953   4.0971   4.0973   4.1110   4.1223   4.1245
     4.1412   4.1524   4.1958   4.2945   4.3142   4.3199   4.3209   4.3257
     4.3324   4.3536   4.3594   4.3680   4.4169   4.4674   4.5261   4.5352
     4.5585   4.5611   4.5749   4.5891   4.6049   4.6191   4.6413   4.6853
     4.7149   4.7174   4.7273   4.7288   4.7462   4.7625   4.7933   4.8222
     4.8410   4.8446   4.8571   4.8861   4.9006   4.9158   4.9384   4.9524
     4.9714   5.0300   5.0316   5.0401   5.0445   5.0777   5.0876   5.1232
     5.1364   5.1602   5.2187   5.2236   5.3013   5.3088   5.3227   5.3328
     5.3364   5.3386   5.3703   5.3953   5.3971   5.4534   5.4641   5.4678
     5.4719   5.4816   5.4821   5.5085   5.5241   5.5480   5.5504   5.5643
     5.5781   5.5867   5.6161   5.6304   5.6495   5.6629   5.6844   5.6987
     5.7295   5.7322   5.7330   5.7339   5.7364   5.7993   5.8138   5.8230
     5.8535   5.8537   5.8973   5.9351   5.9549   5.9690   5.9814   5.9824
     5.9950   6.0052   6.0558   6.0823   6.0838   6.1019   6.1129   6.1189
     6.1356   6.1538   6.1647   6.1978   6.2114   6.2240   6.2241   6.2715
     6.2741   6.2761   6.3127   6.3764   6.4109   6.4514   6.4516   6.4586
     6.4643   6.4789   6.5128   6.5193   6.5286   6.5427   6.5537   6.5651
     6.5765   6.5766   6.5953   6.5965   6.6086   6.6441   6.6460   6.6626
     6.6827   6.6879   6.6935   6.7074   6.7309   6.7473   6.7587   6.7637
     6.7688   6.7706   6.8179   6.8417   6.8449   6.8547   6.8625   6.8732
     6.8914   6.8915   6.8983   6.9064   6.9237   6.9350   6.9620   6.9714
     6.9774   6.9810   6.9995   7.0210   7.0391   7.0630   7.0883   7.0916
     7.1089   7.1157   7.1628   7.2025   7.2352   7.2501   7.2554   7.2573
     7.2608   7.2875   7.3086   7.3113   7.3262   7.3405   7.3485   7.3650
     7.3765   7.3871   7.3956   7.4253   7.4292   7.4739   7.4750   7.4982
     7.5010   7.5020   7.5072   7.5150

     the Fermi energy is    -2.6410 ev

     Writing output data file LS7_2_9_3.save/

     init_run     :     28.58s CPU     29.22s WALL (       1 calls)
     electrons    :  16034.67s CPU  16131.81s WALL (       1 calls)

     Called by init_run:
     wfcinit      :      0.00s CPU      0.00s WALL (       1 calls)
     potinit      :      1.70s CPU      1.86s WALL (       1 calls)
     hinit0       :     21.88s CPU     22.06s WALL (       1 calls)

     Called by electrons:
     c_bands      :  16034.66s CPU  16131.63s WALL (       1 calls)
     v_of_rho     :      1.27s CPU      1.34s WALL (       1 calls)
     newd         :      1.48s CPU      1.73s WALL (       1 calls)

     Called by c_bands:
     init_us_2    :      1.19s CPU      1.24s WALL (      26 calls)
     cegterg      :  15648.74s CPU  15736.55s WALL (     105 calls)

     Called by sum_band:

     Called by *egterg:
     h_psi        :   6706.97s CPU   6752.22s WALL (    1937 calls)
     s_psi        :    570.66s CPU    571.09s WALL (    1937 calls)
     g_psi        :     23.03s CPU     23.07s WALL (    1806 calls)
     cdiaghg      :   3185.39s CPU   3187.73s WALL (    1832 calls)

     Called by h_psi:
     h_psi:pot    :   6690.94s CPU   6729.31s WALL (    1937 calls)
     h_psi:calbec :    652.30s CPU    656.51s WALL (    1937 calls)
     vloc_psi     :   5468.28s CPU   5501.43s WALL (    1937 calls)
     add_vuspsi   :    570.32s CPU    570.98s WALL (    1937 calls)

     General routines
     calbec       :    652.29s CPU    656.42s WALL (    1937 calls)
     fft          :      1.84s CPU      1.94s WALL (      14 calls)
     ffts         :      0.02s CPU      0.02s WALL (       1 calls)
     fftw         :   4922.47s CPU   4952.96s WALL (  655614 calls)
     interpolate  :      0.12s CPU      0.13s WALL (       1 calls)
     davcio       :      0.01s CPU     10.87s WALL (      52 calls)

     Parallel routines
     fft_scatt_xy :    447.00s CPU    448.65s WALL (  655629 calls)
     fft_scatt_yz :   2981.07s CPU   3004.48s WALL (  655629 calls)

     PWSCF        :     4h28m CPU       28h 4m WALL

      37h

   This run was terminated on:   9:44:40  23Apr2021            

=------------------------------------------------------------------------------=
   JOB DONE.
=------------------------------------------------------------------------------=
