
     Program PWSCF v.6.3 starts on 16Apr2021 at  4:27: 5 

     This program is part of the open-source Quantum ESPRESSO suite
     for quantum simulation of materials; please cite
         "P. Giannozzi et al., J. Phys.:Condens. Matter 21 395502 (2009);
         "P. Giannozzi et al., J. Phys.:Condens. Matter 29 465901 (2017);
          URL http://www.quantum-espresso.org", 
     in publications or presentations arising from this work. More details at
     http://www.quantum-espresso.org/quote

     Parallel version (MPI), running on    16 processors
     R & G space division:  proc/nbgrp/npool/nimage =      16
     Waiting for input...
     Reading input from standard input
     Message from routine read_cards :
     DEPRECATED: no units specified in CELL_PARAMETERS card

     Current dimensions of program PWSCF are:
     Max number of different atomic species (ntypx) = 10
     Max number of k-points (npk) =  40000
     Max angular momentum in pseudopotentials (lmaxx) =  3

     Atomic positions and unit cell read from directory:
     /home/zfwang/scratch/GNRDATASET/AGNR/ls1/ls1.save/


     Subspace diagonalization in iterative solution of the eigenvalue problem:
     a serial algorithm will be used


     Parallelization info
     --------------------
     sticks:   dense  smooth     PW     G-vecs:    dense   smooth      PW
     Min        2556     852    219               382876    73664    9645
     Max        2557     853    221               382881    73669    9648
     Sum       40909   13645   3521              6126037  1178677  154333



     bravais-lattice index     =            0
     lattice parameter (alat)  =       1.8897  a.u.
     unit-cell volume          =   34497.4860 (a.u.)^3
     number of atoms/cell      =          112
     number of atomic types    =            2
     number of electrons       =       388.00
     number of Kohn-Sham states=          500
     kinetic-energy cutoff     =      40.0000  Ry
     charge density cutoff     =     480.0000  Ry
     Exchange-correlation      = PBE ( 1  4  3  4 0 0)

     celldm(1)=  18.897261  celldm(2)=   3.000000  celldm(3)=   1.704000
     celldm(4)=   0.000000  celldm(5)=   0.000000  celldm(6)=   0.000000

     crystal axes: (cart. coord. in units of alat)
               a(1) = (  10.000000   0.000000   0.000000 )  
               a(2) = (   0.000000  30.000000   0.000000 )  
               a(3) = (   0.000000   0.000000  17.040000 )  

     reciprocal axes: (cart. coord. in units 2 pi/alat)
               b(1) = (  0.100000  0.000000  0.000000 )  
               b(2) = (  0.000000  0.033333  0.000000 )  
               b(3) = (  0.000000  0.000000  0.058685 )  


     PseudoPot. # 1 for C  read from file:
     /home/zfwang/hp_home/MySoftware/qe-6.3/pseudo/C.pbe-n-rrkjus_psl.0.1.UPF
     MD5 check sum: fff530ed632a789b3b184014e67dd7f1
     Pseudo is Ultrasoft + core correction, Zval =  4.0
     Generated using "atomic" code by A. Dal Corso v.5.0.2 svn rev. 9415
     Using radial grid of 1073 points,  4 beta functions with: 
                l(1) =   0
                l(2) =   0
                l(3) =   1
                l(4) =   1
     Q(r) pseudized with 0 coefficients 


     PseudoPot. # 2 for H  read from file:
     /home/zfwang/hp_home/MySoftware/qe-6.3/pseudo/H.pbe-rrkjus_psl.0.1.UPF
     MD5 check sum: e164a6907b691c6980f16942be34de84
     Pseudo is Ultrasoft, Zval =  1.0
     Generated using "atomic" code by A. Dal Corso v.5.0.2 svn rev. 9415
     Using radial grid of  929 points,  2 beta functions with: 
                l(1) =   0
                l(2) =   0
     Q(r) pseudized with 0 coefficients 


     atomic species   valence    mass     pseudopotential
        C              4.00    12.01070     C ( 1.00)
        H              1.00     1.00794     H ( 1.00)

     No symmetry found



   Cartesian axes

     site n.     atom                  positions (alat units)
         1           C   tau(   1) = (   4.9999996   6.3643284   6.9861593  )
         2           C   tau(   2) = (   5.0000000   6.3696960  11.2930493  )
         3           C   tau(   3) = (   4.9999999   7.5608215   7.7177887  )
         4           C   tau(   4) = (   5.0000004   7.5736406  11.9822022  )
         5           C   tau(   5) = (   4.9999996   6.3696942   5.5987843  )
         6           C   tau(   6) = (   4.9999997   6.3643287   9.9056706  )
         7           C   tau(   7) = (   4.9999999   8.8006944   7.0158895  )
         8           C   tau(   8) = (   5.0000003   8.7982135  11.2996831  )
         9           C   tau(   9) = (   5.0000001  10.1125238   3.4867247  )
        10           C   tau(  10) = (   5.0000001  10.0457971   7.7388948  )
        11           C   tau(  11) = (   5.0000003  10.0643968  12.0180911  )
        12           C   tau(  12) = (   4.9999999   7.5736363   4.9096228  )
        13           C   tau(  13) = (   5.0000000   7.5608200   9.1740414  )
        14           C   tau(  14) = (   5.0000000   8.7982123   5.5921448  )
        15           C   tau(  15) = (   5.0000002   8.8006952   9.8759341  )
        16           C   tau(  16) = (   5.0000003  11.3227305   2.7815105  )
        17           C   tau(  17) = (   4.9999999  11.2840683   7.0291300  )
        18           C   tau(  18) = (   5.0000002  11.2921880  11.2859813  )
        19           C   tau(  19) = (   4.9999997  11.3460998  15.5164327  )
        20           C   tau(  20) = (   5.0000004  12.5516507   3.4942817  )
        21           C   tau(  21) = (   4.9999998  12.5191727   7.7370327  )
        22           C   tau(  22) = (   5.0000001  12.5331745  11.9830504  )
        23           C   tau(  23) = (   5.0000002  12.5225147  16.2382539  )
        24           C   tau(  24) = (   5.0000001  10.0643923   4.8737273  )
        25           C   tau(  25) = (   5.0000002  10.0457961   9.1529250  )
        26           C   tau(  26) = (   4.9999999  10.1125266  13.4050978  )
        27           C   tau(  27) = (   5.0000003  11.3461012   1.3753833  )
        28           C   tau(  28) = (   5.0000002  11.2921866   5.6058364  )
        29           C   tau(  29) = (   5.0000000  11.2840693   9.8626840  )
        30           C   tau(  30) = (   4.9999999  11.3227366  14.1103065  )
        31           C   tau(  31) = (   5.0000004  13.7742967   2.7766306  )
        32           C   tau(  32) = (   4.9999997  13.7633692   7.0333613  )
        33           C   tau(  33) = (   4.9999998  13.7677404  11.2723911  )
        34           C   tau(  34) = (   5.0000005  13.7736811  15.5381505  )
        35           C   tau(  35) = (   5.0000003  15.0000012   3.4885592  )
        36           C   tau(  36) = (   4.9999994  15.0000011   7.7373106  )
        37           C   tau(  37) = (   4.9999998  15.0000015  11.9820172  )
        38           C   tau(  38) = (   5.0000008  15.0000020  16.2463469  )
        39           C   tau(  39) = (   5.0000003  12.5225100   0.6535648  )
        40           C   tau(  40) = (   5.0000003  12.5331713   4.9087624  )
        41           C   tau(  41) = (   4.9999999  12.5191724   9.1547785  )
        42           C   tau(  42) = (   5.0000003  12.5516524  13.3975342  )
        43           C   tau(  43) = (   5.0000007  13.7736816   1.3536657  )
        44           C   tau(  44) = (   4.9999999  13.7677395   5.6194218  )
        45           C   tau(  45) = (   4.9999996  13.7633701   9.8584486  )
        46           C   tau(  46) = (   5.0000003  13.7742999  14.1151868  )
        47           C   tau(  47) = (   5.0000004  16.2257066   2.7766305  )
        48           C   tau(  48) = (   4.9999994  16.2366308   7.0333607  )
        49           C   tau(  49) = (   4.9999994  16.2322620  11.2723904  )
        50           C   tau(  50) = (   5.0000004  16.2263239  15.5381507  )
        51           C   tau(  51) = (   5.0000002  17.4483507   3.4942831  )
        52           C   tau(  52) = (   4.9999996  17.4808248   7.7370339  )
        53           C   tau(  53) = (   4.9999993  17.4668254  11.9830489  )
        54           C   tau(  54) = (   5.0000006  17.4774880  16.2382538  )
        55           C   tau(  55) = (   5.0000008  15.0000024   0.6454723  )
        56           C   tau(  56) = (   4.9999999  15.0000015   4.9097956  )
        57           C   tau(  57) = (   4.9999994  15.0000008   9.1544995  )
        58           C   tau(  58) = (   5.0000000  15.0000015  13.4032563  )
        59           C   tau(  59) = (   5.0000007  16.2263224   1.3536658  )
        60           C   tau(  60) = (   4.9999996  16.2322629   5.6194226  )
        61           C   tau(  61) = (   4.9999993  16.2366310   9.8584485  )
        62           C   tau(  62) = (   5.0000001  16.2257026  14.1151871  )
        63           C   tau(  63) = (   5.0000001  18.6772713   2.7815115  )
        64           C   tau(  64) = (   4.9999998  18.7159258   7.0291308  )
        65           C   tau(  65) = (   4.9999993  18.7078088  11.2859808  )
        66           C   tau(  66) = (   5.0000006  18.6539045  15.5164299  )
        67           C   tau(  67) = (   5.0000001  19.8874773   3.4867257  )
        68           C   tau(  68) = (   4.9999999  19.9541967   7.7388952  )
        69           C   tau(  69) = (   4.9999994  19.9355976  12.0180885  )
        70           C   tau(  70) = (   5.0000008  17.4774952   0.6535648  )
        71           C   tau(  71) = (   4.9999999  17.4668286   4.9087623  )
        72           C   tau(  72) = (   4.9999993  17.4808249   9.1547780  )
        73           C   tau(  73) = (   4.9999996  17.4483501  13.3975336  )
        74           C   tau(  74) = (   5.0000004  18.6539013   1.3753848  )
        75           C   tau(  75) = (   5.0000001  18.7078099   5.6058389  )
        76           C   tau(  76) = (   4.9999992  18.7159255   9.8626829  )
        77           C   tau(  77) = (   4.9999998  18.6772637  14.1103042  )
        78           C   tau(  78) = (   5.0000003  21.1993007   7.0158889  )
        79           C   tau(  79) = (   4.9999992  21.2017831  11.2996850  )
        80           C   tau(  80) = (   5.0000004  22.4391759   7.7177874  )
        81           C   tau(  81) = (   4.9999999  22.4263561  11.9821994  )
        82           C   tau(  82) = (   5.0000003  19.9356027   4.8737272  )
        83           C   tau(  83) = (   4.9999996  19.9541977   9.1529248  )
        84           C   tau(  84) = (   4.9999994  19.8874757  13.4050987  )
        85           C   tau(  85) = (   5.0000004  21.2017825   5.5921448  )
        86           C   tau(  86) = (   4.9999995  21.1992990   9.8759325  )
        87           C   tau(  87) = (   5.0000006  23.6356745   6.9861581  )
        88           C   tau(  88) = (   5.0000001  23.6303059  11.2930527  )
        89           C   tau(  89) = (   5.0000007  22.4263613   4.9096225  )
        90           C   tau(  90) = (   4.9999998  22.4391786   9.1740427  )
        91           C   tau(  91) = (   5.0000007  23.6303066   5.5987816  )
        92           C   tau(  92) = (   5.0000001  23.6356728   9.9056682  )
        93           H   tau(  93) = (   4.9999993   5.4071697   7.5018940  )
        94           H   tau(  94) = (   4.9999999   5.4276424  11.8421297  )
        95           H   tau(  95) = (   5.0000007   7.5523391  13.0696622  )
        96           H   tau(  96) = (   4.9999995   5.4276379   5.0497033  )
        97           H   tau(  97) = (   4.9999994   5.4071694   9.3899403  )
        98           H   tau(  98) = (   4.9999999   9.1979657   2.8963571  )
        99           H   tau(  99) = (   5.0000001   7.5523340   3.8221656  )
       100           H   tau( 100) = (   4.9999990  10.3825551  16.0228477  )
       101           H   tau( 101) = (   4.9999996   9.1979715  13.9954660  )
       102           H   tau( 102) = (   5.0000002  10.3825507   0.8689716  )
       103           H   tau( 103) = (   5.0000008  19.6174474  16.0228453  )
       104           H   tau( 104) = (   5.0000000  20.8020381   2.8963594  )
       105           H   tau( 105) = (   5.0000001  19.6174520   0.8689733  )
       106           H   tau( 106) = (   5.0000000  22.4476594  13.0696624  )
       107           H   tau( 107) = (   4.9999994  20.8020317  13.9954633  )
       108           H   tau( 108) = (   5.0000008  24.5928345   7.5018954  )
       109           H   tau( 109) = (   5.0000006  24.5723612  11.8421312  )
       110           H   tau( 110) = (   5.0000005  22.4476629   3.8221648  )
       111           H   tau( 111) = (   5.0000007  24.5723651   5.0496994  )
       112           H   tau( 112) = (   5.0000004  24.5928344   9.3899368  )

     number of k points=    26  Marzari-Vanderbilt smearing, width (Ry)=  0.0100
                       cart. coord. in units 2pi/alat
        k(    1) = (   0.0000000   0.0000000   0.0000000), wk =   0.0400000
        k(    2) = (   0.0000000   0.0000000   0.0011737), wk =   0.0800000
        k(    3) = (   0.0000000   0.0000000   0.0023474), wk =   0.0800000
        k(    4) = (   0.0000000   0.0000000   0.0035211), wk =   0.0800000
        k(    5) = (   0.0000000   0.0000000   0.0046948), wk =   0.0800000
        k(    6) = (   0.0000000   0.0000000   0.0058685), wk =   0.0800000
        k(    7) = (   0.0000000   0.0000000   0.0070423), wk =   0.0800000
        k(    8) = (   0.0000000   0.0000000   0.0082160), wk =   0.0800000
        k(    9) = (   0.0000000   0.0000000   0.0093897), wk =   0.0800000
        k(   10) = (   0.0000000   0.0000000   0.0105634), wk =   0.0800000
        k(   11) = (   0.0000000   0.0000000   0.0117371), wk =   0.0800000
        k(   12) = (   0.0000000   0.0000000   0.0129108), wk =   0.0800000
        k(   13) = (   0.0000000   0.0000000   0.0140845), wk =   0.0800000
        k(   14) = (   0.0000000   0.0000000   0.0152582), wk =   0.0800000
        k(   15) = (   0.0000000   0.0000000   0.0164319), wk =   0.0800000
        k(   16) = (   0.0000000   0.0000000   0.0176056), wk =   0.0800000
        k(   17) = (   0.0000000   0.0000000   0.0187793), wk =   0.0800000
        k(   18) = (   0.0000000   0.0000000   0.0199531), wk =   0.0800000
        k(   19) = (   0.0000000   0.0000000   0.0211268), wk =   0.0800000
        k(   20) = (   0.0000000   0.0000000   0.0223005), wk =   0.0800000
        k(   21) = (   0.0000000   0.0000000   0.0234742), wk =   0.0800000
        k(   22) = (   0.0000000   0.0000000   0.0246479), wk =   0.0800000
        k(   23) = (   0.0000000   0.0000000   0.0258216), wk =   0.0800000
        k(   24) = (   0.0000000   0.0000000   0.0269953), wk =   0.0800000
        k(   25) = (   0.0000000   0.0000000   0.0281690), wk =   0.0800000
        k(   26) = (   0.0000000   0.0000000  -0.0293427), wk =   0.0400000

     Dense  grid:  6126037 G-vectors     FFT dimensions: ( 135, 400, 225)

     Smooth grid:  1178677 G-vectors     FFT dimensions: (  80, 240, 135)

     Estimated max dynamical RAM per process >       1.30 GB

     Estimated total dynamical RAM >      20.79 GB

     The potential is recalculated from file :
     /home/zfwang/scratch/GNRDATASET/AGNR/ls1/ls1.save/charge-density.dat


     negative rho (up, down):  3.055E-04 0.000E+00
     Starting wfcs are  388 randomized atomic wfcs +  112 random wfcs

     Band Structure Calculation
     Davidson diagonalization with overlap

     ethr =  2.58E-09,  avg # of iterations = 41.7

     total cpu time spent up to now is    12062.9 secs

     End of band structure calculation

          k = 0.0000 0.0000 0.0000 (147325 PWs)   bands (ev):

   -21.4367 -21.0921 -21.0706 -21.0147 -20.6620 -20.6427 -20.4538 -20.1609
   -20.1313 -19.9681 -19.8973 -19.8119 -19.7010 -19.4174 -19.3141 -19.3056
   -19.2550 -18.9017 -18.6525 -18.5246 -18.4603 -18.4510 -18.1415 -18.0802
   -18.0239 -17.8473 -17.8141 -17.7939 -17.5793 -17.4102 -17.2777 -17.1100
   -17.1072 -16.8183 -16.7665 -16.7169 -16.6844 -16.5489 -16.2965 -16.2144
   -16.1686 -16.0779 -15.7063 -15.6682 -15.5407 -15.1974 -14.9835 -14.9117
   -14.8420 -14.7641 -14.6338 -14.6332 -14.5461 -14.3179 -14.0248 -13.9577
   -13.9534 -13.8875 -13.6743 -13.5700 -13.3441 -13.2125 -13.1219 -12.9354
   -12.8103 -12.6413 -12.6360 -12.5613 -12.4126 -12.4070 -12.3452 -12.2632
   -12.0704 -12.0426 -11.9535 -11.6797 -11.4144 -11.2968 -11.2793 -11.0660
   -10.9831 -10.8895 -10.8764 -10.8081 -10.7790 -10.6459 -10.4994 -10.4805
   -10.4162 -10.2758 -10.1567  -9.9516  -9.9063  -9.9044  -9.7992  -9.7021
    -9.6458  -9.6221  -9.5137  -9.4999  -9.4216  -9.4175  -9.1959  -9.1190
    -9.1087  -9.0914  -9.0706  -9.0660  -9.0629  -9.0283  -8.7954  -8.7767
    -8.7651  -8.6502  -8.6383  -8.6374  -8.6184  -8.5935  -8.5731  -8.5530
    -8.5174  -8.4899  -8.4533  -8.4256  -8.3868  -8.3771  -8.2294  -8.1915
    -8.0611  -8.0577  -8.0573  -8.0533  -8.0225  -7.9478  -7.8024  -7.7922
    -7.7688  -7.7029  -7.6289  -7.5238  -7.5238  -7.4192  -7.4011  -7.3162
    -7.1991  -7.1589  -7.1080  -7.1017  -7.0544  -7.0435  -6.9864  -6.9630
    -6.9532  -6.8674  -6.8470  -6.6499  -6.5069  -6.4550  -6.4139  -6.3984
    -6.2950  -6.2110  -6.1939  -6.1380  -6.0888  -6.0346  -6.0035  -5.8984
    -5.7354  -5.7158  -5.7047  -5.5170  -5.5046  -5.4201  -5.3943  -5.3665
    -5.3034  -5.0339  -4.9513  -4.7913  -4.7654  -4.5833  -4.5756  -4.4214
    -4.4192  -4.3807  -4.1813  -4.0501  -3.8691  -3.6841  -3.4524  -3.3176
    -3.0359  -2.2844  -1.9186  -1.1711  -1.0770  -0.8770  -0.7234  -0.4870
    -0.3858  -0.3088  -0.1419  -0.0796   0.0486   0.1258   0.2343   0.3981
     0.5009   0.5525   0.8972   0.9101   0.9393   0.9705   1.1827   1.2167
     1.2381   1.3090   1.3746   1.3877   1.4139   1.4786   1.5631   1.5694
     1.5896   1.6461   1.6739   1.6868   1.7988   1.9564   1.9926   2.0252
     2.0443   2.0777   2.1348   2.2289   2.2699   2.2898   2.4139   2.4534
     2.4546   2.5543   2.5620   2.6244   2.6681   2.7449   2.7776   2.8297
     2.8556   2.8757   2.8823   2.8840   2.9002   2.9102   2.9560   3.0137
     3.1107   3.1555   3.2034   3.2051   3.2084   3.2333   3.2585   3.2688
     3.2849   3.3118   3.3542   3.4259   3.4279   3.4706   3.5085   3.5161
     3.5417   3.5587   3.5723   3.5897   3.6301   3.6903   3.7124   3.7302
     3.8113   3.8558   3.8881   3.9127   3.9512   3.9635   3.9768   3.9966
     4.0079   4.0153   4.0501   4.0519   4.1247   4.2123   4.2433   4.2561
     4.2866   4.3690   4.3805   4.3897   4.3943   4.4593   4.4749   4.4819
     4.4870   4.5222   4.5421   4.5490   4.5564   4.6319   4.6345   4.6645
     4.6729   4.6836   4.7055   4.7460   4.8004   4.8156   4.8257   4.8312
     4.8768   4.8967   4.9144   4.9272   4.9733   4.9841   5.0481   5.1196
     5.1203   5.1210   5.1243   5.1935   5.2131   5.2150   5.2327   5.2361
     5.2585   5.2806   5.2925   5.3377   5.3515   5.3536   5.3925   5.4694
     5.4903   5.5198   5.5278   5.5626   5.5944   5.6039   5.6167   5.6206
     5.6333   5.6419   5.6511   5.6630   5.6903   5.7110   5.7403   5.7702
     5.7818   5.7921   5.8412   5.8479   5.8569   5.8838   5.9222   5.9332
     5.9338   6.0010   6.0136   6.0314   6.0396   6.0447   6.0579   6.0633
     6.0872   6.1444   6.1565   6.1847   6.2102   6.2221   6.2335   6.2405
     6.2677   6.2813   6.3065   6.3116   6.3641   6.3752   6.3887   6.4013
     6.4299   6.4414   6.4455   6.4674   6.4870   6.4921   6.4952   6.5125
     6.5231   6.5571   6.5593   6.5862   6.5942   6.6340   6.6377   6.6511
     6.6590   6.7225   6.7252   6.7297   6.7961   6.8249   6.8763   6.8829
     6.9133   6.9200   6.9294   6.9297   6.9392   6.9515   6.9599   6.9755
     6.9961   7.0190   7.0389   7.0499   7.0699   7.0944   7.1023   7.1323
     7.1359   7.1468   7.1738   7.1741   7.1828   7.1893   7.2025   7.2416
     7.2524   7.2770   7.2781   7.2997   7.3148   7.3295   7.3367   7.3573
     7.3630   7.3947   7.4505   7.4515   7.4547   7.4662   7.4843   7.4895
     7.5285   7.5468   7.5575   7.5654   7.5706   7.5881   7.6031   7.6442
     7.6554   7.6830   7.7179   7.7194   7.7230   7.7282   7.7373   7.7405
     7.7546   7.7651   7.7961   7.8188   7.8528   7.8721   7.8760   7.9300
     7.9379   7.9550   8.0170   8.0329   8.0331   8.0490   8.0754   8.1118
     8.1244   8.1480   8.1501   8.1551   8.1788   8.1882   8.2014   8.2246
     8.2499   8.2614   8.2648   8.2706

          k = 0.0000 0.0000 0.0012 (147355 PWs)   bands (ev):

   -21.4366 -21.0944 -21.0705 -21.0122 -20.6620 -20.6431 -20.4532 -20.1620
   -20.1312 -19.9728 -19.8917 -19.8124 -19.7006 -19.4189 -19.3150 -19.3047
   -19.2528 -18.9016 -18.6536 -18.5248 -18.4593 -18.4509 -18.1603 -18.0613
   -18.0237 -17.8530 -17.8139 -17.7893 -17.5793 -17.4101 -17.2769 -17.1117
   -17.1071 -16.8172 -16.7664 -16.7162 -16.6843 -16.5492 -16.2966 -16.2150
   -16.1687 -16.0794 -15.7125 -15.6621 -15.5431 -15.1949 -14.9893 -14.9103
   -14.8368 -14.7636 -14.6420 -14.6238 -14.5450 -14.3178 -14.0248 -13.9657
   -13.9543 -13.8797 -13.6736 -13.5700 -13.3438 -13.2155 -13.1227 -12.9334
   -12.8154 -12.6937 -12.5826 -12.5616 -12.4110 -12.4075 -12.3439 -12.2612
   -12.0701 -12.0409 -11.9535 -11.6795 -11.4166 -11.2967 -11.2795 -11.0658
   -10.9880 -10.8893 -10.8782 -10.8038 -10.7775 -10.6460 -10.5011 -10.4791
   -10.4148 -10.2754 -10.1572  -9.9569  -9.9042  -9.9022  -9.7997  -9.7001
    -9.6505  -9.6325  -9.5135  -9.4873  -9.4195  -9.4178  -9.1964  -9.1173
    -9.1086  -9.0952  -9.0837  -9.0659  -9.0496  -9.0242  -8.7957  -8.7802
    -8.7658  -8.6607  -8.6432  -8.6383  -8.6051  -8.5941  -8.5827  -8.5405
    -8.5180  -8.4895  -8.4509  -8.4257  -8.3860  -8.3764  -8.2321  -8.1890
    -8.0617  -8.0578  -8.0564  -8.0541  -8.0224  -7.9472  -7.8021  -7.7982
    -7.7688  -7.6966  -7.6295  -7.5239  -7.5230  -7.4192  -7.4032  -7.3145
    -7.2006  -7.1615  -7.1076  -7.1015  -7.0545  -7.0436  -6.9842  -6.9618
    -6.9530  -6.8674  -6.8478  -6.6498  -6.5065  -6.4668  -6.4042  -6.3991
    -6.2927  -6.2116  -6.1933  -6.1374  -6.0956  -6.0281  -6.0033  -5.8983
    -5.7663  -5.7109  -5.6787  -5.5187  -5.5043  -5.4203  -5.3941  -5.3669
    -5.3033  -5.0361  -4.9484  -4.7921  -4.7654  -4.5833  -4.5756  -4.4251
    -4.4145  -4.3815  -4.1816  -4.0499  -3.8691  -3.6831  -3.4527  -3.3188
    -3.0356  -2.2887  -1.9144  -1.1723  -1.0752  -0.8763  -0.7238  -0.4860
    -0.3858  -0.3089  -0.1417  -0.0796   0.0475   0.1263   0.2318   0.4010
     0.5007   0.5523   0.8956   0.9103   0.9392   0.9707   1.1828   1.2142
     1.2382   1.3072   1.3785   1.3854   1.4158   1.4808   1.5241   1.5636
     1.6251   1.6550   1.6633   1.6966   1.8002   1.9573   1.9917   2.0262
     2.0379   2.0842   2.1356   2.2291   2.2693   2.2904   2.4140   2.4507
     2.4578   2.5529   2.5620   2.6243   2.6669   2.7450   2.7778   2.8247
     2.8633   2.8658   2.8760   2.8991   2.9005   2.9081   2.9579   3.0134
     3.1116   3.1479   3.1746   3.2060   3.2265   3.2502   3.2589   3.2659
     3.2763   3.3207   3.3535   3.4261   3.4274   3.4692   3.5088   3.5212
     3.5388   3.5579   3.5718   3.5899   3.6354   3.6811   3.7218   3.7261
     3.8162   3.8540   3.8913   3.9059   3.9508   3.9635   3.9770   4.0011
     4.0013   4.0216   4.0378   4.0640   4.1246   4.2097   4.2409   4.2562
     4.2903   4.3702   4.3824   4.3893   4.3902   4.4376   4.4629   4.4992
     4.5045   4.5207   4.5295   4.5495   4.5593   4.6335   4.6417   4.6648
     4.6712   4.6901   4.7052   4.7405   4.7819   4.8042   4.8451   4.8453
     4.8725   4.8870   4.9165   4.9267   4.9735   4.9981   5.0460   5.1108
     5.1216   5.1216   5.1218   5.1932   5.2130   5.2216   5.2287   5.2303
     5.2625   5.2825   5.2964   5.3383   5.3509   5.3574   5.3999   5.4559
     5.4961   5.5252   5.5271   5.5517   5.5959   5.5975   5.6117   5.6165
     5.6334   5.6417   5.6584   5.6606   5.6887   5.7247   5.7382   5.7709
     5.7839   5.7840   5.8403   5.8518   5.8558   5.8838   5.9121   5.9282
     5.9464   5.9806   6.0124   6.0336   6.0354   6.0564   6.0655   6.0779
     6.0923   6.1453   6.1549   6.1835   6.2116   6.2219   6.2321   6.2393
     6.2676   6.2822   6.3069   6.3117   6.3594   6.3665   6.3911   6.4043
     6.4247   6.4376   6.4473   6.4741   6.4845   6.4967   6.5021   6.5096
     6.5254   6.5552   6.5582   6.5897   6.5945   6.6159   6.6481   6.6566
     6.6627   6.6996   6.7332   6.7469   6.7934   6.8250   6.8743   6.8833
     6.9117   6.9126   6.9166   6.9295   6.9446   6.9555   6.9594   6.9787
     6.9861   7.0225   7.0395   7.0575   7.0628   7.0859   7.1055   7.1363
     7.1411   7.1486   7.1740   7.1744   7.1831   7.1906   7.2005   7.2222
     7.2483   7.2546   7.2962   7.2968   7.3256   7.3364   7.3367   7.3560
     7.3785   7.4037   7.4502   7.4510   7.4537   7.4644   7.4874   7.4883
     7.5276   7.5324   7.5438   7.5695   7.5722   7.5934   7.6163   7.6283
     7.6668   7.6847   7.7139   7.7150   7.7192   7.7380   7.7412   7.7416
     7.7612   7.7692   7.7955   7.8250   7.8536   7.8598   7.8741   7.9228
     7.9463   7.9663   8.0172   8.0302   8.0325   8.0578   8.0751   8.1092
     8.1176   8.1420   8.1465   8.1606   8.1688   8.1888   8.1952   8.2270
     8.2271   8.2683   8.2786   8.2917

          k = 0.0000 0.0000 0.0023 (147377 PWs)   bands (ev):

   -21.4363 -21.1003 -21.0705 -21.0054 -20.6619 -20.6443 -20.4514 -20.1655
   -20.1310 -19.9838 -19.8779 -19.8139 -19.6994 -19.4234 -19.3170 -19.3024
   -19.2463 -18.9015 -18.6567 -18.5254 -18.4562 -18.4508 -18.1940 -18.0299
   -18.0206 -17.8667 -17.8131 -17.7790 -17.5791 -17.4097 -17.2743 -17.1166
   -17.1070 -16.8137 -16.7663 -16.7139 -16.6841 -16.5498 -16.2971 -16.2167
   -16.1690 -16.0833 -15.7255 -15.6496 -15.5502 -15.1877 -15.0040 -14.9060
   -14.8233 -14.7621 -14.6494 -14.6127 -14.5415 -14.3178 -14.0248 -13.9838
   -13.9568 -13.8622 -13.6716 -13.5700 -13.3431 -13.2242 -13.1251 -12.9283
   -12.8299 -12.7464 -12.5634 -12.5264 -12.4088 -12.4061 -12.3399 -12.2552
   -12.0690 -12.0362 -11.9534 -11.6792 -11.4228 -11.2964 -11.2802 -11.0654
   -11.0011 -10.8889 -10.8830 -10.7925 -10.7735 -10.6464 -10.5057 -10.4748
   -10.4111 -10.2742 -10.1586  -9.9693  -9.9036  -9.8939  -9.8009  -9.6944
    -9.6787  -9.6380  -9.5131  -9.4630  -9.4185  -9.4116  -9.1979  -9.1118
    -9.1085  -9.1046  -9.0996  -9.0655  -9.0331  -9.0139  -8.7966  -8.7906
    -8.7679  -8.6754  -8.6592  -8.6382  -8.5957  -8.5929  -8.5824  -8.5238
    -8.5195  -8.4885  -8.4428  -8.4261  -8.3837  -8.3743  -8.2385  -8.1831
    -8.0629  -8.0578  -8.0568  -8.0546  -8.0221  -7.9452  -7.8125  -7.8015
    -7.7686  -7.6813  -7.6312  -7.5244  -7.5207  -7.4192  -7.4087  -7.3097
    -7.2050  -7.1690  -7.1063  -7.1010  -7.0547  -7.0438  -6.9777  -6.9584
    -6.9525  -6.8675  -6.8503  -6.6495  -6.5053  -6.4893  -6.4009  -6.3883
    -6.2855  -6.2133  -6.1918  -6.1356  -6.1105  -6.0137  -6.0027  -5.8982
    -5.8067  -5.7104  -5.6386  -5.5237  -5.5033  -5.4210  -5.3934  -5.3682
    -5.3031  -5.0417  -4.9405  -4.7947  -4.7653  -4.5833  -4.5755  -4.4289
    -4.4078  -4.3836  -4.1825  -4.0492  -3.8691  -3.6802  -3.4536  -3.3224
    -3.0346  -2.3010  -1.9022  -1.1758  -1.0700  -0.8744  -0.7250  -0.4832
    -0.3858  -0.3091  -0.1414  -0.0796   0.0442   0.1277   0.2246   0.4090
     0.5003   0.5515   0.8909   0.9108   0.9388   0.9712   1.1831   1.2076
     1.2382   1.3021   1.3790   1.3897   1.4210   1.4690   1.4866   1.5651
     1.6346   1.6478   1.6976   1.7100   1.8045   1.9601   1.9889   2.0251
     2.0292   2.0973   2.1378   2.2295   2.2674   2.2921   2.4146   2.4482
     2.4621   2.5490   2.5620   2.6239   2.6634   2.7453   2.7776   2.8179
     2.8488   2.8769   2.8786   2.8958   2.9023   2.9176   2.9629   3.0126
     3.1141   3.1291   3.1428   3.2087   3.2428   3.2581   3.2600   3.2615
     3.2796   3.3365   3.3519   3.4230   3.4299   3.4655   3.5098   3.5335
     3.5344   3.5555   3.5705   3.5907   3.6486   3.6657   3.7158   3.7377
     3.8285   3.8505   3.8895   3.8988   3.9493   3.9636   3.9778   3.9915
     4.0076   4.0301   4.0308   4.0747   4.1244   4.2025   4.2375   4.2564
     4.2975   4.3743   4.3757   4.3873   4.3897   4.4108   4.4470   4.5075
     4.5132   4.5160   4.5356   4.5544   4.5572   4.6392   4.6579   4.6640
     4.6659   4.7045   4.7073   4.7289   4.7539   4.7986   4.8404   4.8624
     4.8724   4.8929   4.9156   4.9292   4.9744   5.0255   5.0406   5.0840
     5.1226   5.1235   5.1268   5.1914   5.2072   5.2115   5.2247   5.2330
     5.2786   5.2883   5.3066   5.3400   5.3518   5.3658   5.4192   5.4336
     5.4973   5.5217   5.5248   5.5428   5.5815   5.5960   5.5973   5.6159
     5.6214   5.6556   5.6575   5.6782   5.6844   5.7290   5.7411   5.7717
     5.7774   5.7886   5.8370   5.8380   5.8661   5.8799   5.9102   5.9187
     5.9477   5.9627   6.0089   6.0334   6.0457   6.0544   6.0997   6.1013
     6.1040   6.1481   6.1514   6.1779   6.2149   6.2220   6.2296   6.2361
     6.2675   6.2853   6.3068   6.3120   6.3501   6.3523   6.3935   6.4136
     6.4138   6.4231   6.4528   6.4774   6.4988   6.5006   6.5037   6.5125
     6.5297   6.5517   6.5551   6.5962   6.5996   6.6019   6.6394   6.6619
     6.6709   6.6910   6.7435   6.7666   6.7855   6.8254   6.8688   6.8846
     6.8925   6.9067   6.9074   6.9279   6.9290   6.9572   6.9656   6.9740
     6.9869   7.0291   7.0418   7.0472   7.0698   7.0708   7.1141   7.1357
     7.1400   7.1654   7.1685   7.1753   7.1835   7.1858   7.1945   7.2054
     7.2221   7.2603   7.2730   7.3170   7.3305   7.3442   7.3583   7.3584
     7.4108   7.4217   7.4416   7.4478   7.4532   7.4719   7.4844   7.4938
     7.5028   7.5215   7.5256   7.5754   7.5805   7.6004   7.6073   7.6389
     7.6715   7.6744   7.7036   7.7282   7.7319   7.7385   7.7438   7.7543
     7.7754   7.7780   7.7938   7.8269   7.8415   7.8570   7.8804   7.9148
     7.9576   7.9847   8.0175   8.0272   8.0312   8.0733   8.0788   8.1038
     8.1038   8.1226   8.1336   8.1462   8.1634   8.1878   8.2005   8.2105
     8.2217   8.2813   8.3074   8.3143

          k = 0.0000 0.0000 0.0035 (147387 PWs)   bands (ev):

   -21.4357 -21.1087 -21.0703 -20.9957 -20.6618 -20.6462 -20.4485 -20.1714
   -20.1306 -19.9966 -19.8603 -19.8164 -19.6971 -19.4301 -19.3194 -19.2996
   -19.2363 -18.9013 -18.6617 -18.5264 -18.4513 -18.4505 -18.2302 -18.0249
   -17.9882 -17.8841 -17.8118 -17.7671 -17.5788 -17.4092 -17.2701 -17.1244
   -17.1069 -16.8082 -16.7660 -16.7102 -16.6836 -16.5509 -16.2979 -16.2198
   -16.1700 -16.0887 -15.7407 -15.6352 -15.5616 -15.1767 -15.0233 -14.8993
   -14.8055 -14.7597 -14.6559 -14.5998 -14.5356 -14.3177 -14.0248 -14.0058
   -13.9608 -13.8413 -13.6683 -13.5699 -13.3418 -13.2381 -13.1288 -12.9238
   -12.8523 -12.7937 -12.5676 -12.4706 -12.4104 -12.3983 -12.3335 -12.2453
   -12.0672 -12.0286 -11.9531 -11.6785 -11.4325 -11.2969 -11.2813 -11.0645
   -11.0198 -10.8929 -10.8851 -10.7775 -10.7679 -10.6463 -10.5124 -10.4682
   -10.4059 -10.2722 -10.1606  -9.9846  -9.9025  -9.8861  -9.8026  -9.7189
    -9.6853  -9.6371  -9.5124  -9.4433  -9.4197  -9.3940  -9.2004  -9.1166
    -9.1153  -9.1084  -9.1025  -9.0649  -9.0163  -9.0004  -8.8071  -8.7986
    -8.7719  -8.6865  -8.6803  -8.6379  -8.5997  -8.5984  -8.5601  -8.5212
    -8.5124  -8.4871  -8.4277  -8.4260  -8.3798  -8.3708  -8.2464  -8.1759
    -8.0642  -8.0613  -8.0578  -8.0522  -8.0217  -7.9420  -7.8301  -7.8004
    -7.7684  -7.6624  -7.6342  -7.5252  -7.5165  -7.4193  -7.4167  -7.3032
    -7.2117  -7.1807  -7.1040  -7.1002  -7.0550  -7.0443  -6.9675  -6.9536
    -6.9516  -6.8675  -6.8544  -6.6491  -6.5142  -6.5034  -6.4039  -6.3743
    -6.2734  -6.2158  -6.1896  -6.1326  -6.1284  -6.0016  -5.9970  -5.8978
    -5.8475  -5.7100  -5.5980  -5.5318  -5.5015  -5.4221  -5.3923  -5.3704
    -5.3027  -5.0493  -4.9293  -4.7990  -4.7653  -4.5833  -4.5753  -4.4320
    -4.3997  -4.3869  -4.1843  -4.0481  -3.8691  -3.6754  -3.4552  -3.3282
    -3.0329  -2.3200  -1.8835  -1.1809  -1.0621  -0.8712  -0.7271  -0.4785
    -0.3859  -0.3093  -0.1408  -0.0796   0.0390   0.1297   0.2139   0.4210
     0.4997   0.5501   0.8834   0.9117   0.9382   0.9720   1.1835   1.1982
     1.2380   1.2946   1.3699   1.4063   1.4138   1.4289   1.4946   1.5679
     1.6317   1.6341   1.7225   1.7483   1.8116   1.9645   1.9845   2.0108
     2.0347   2.1120   2.1412   2.2304   2.2646   2.2949   2.4156   2.4464
     2.4669   2.5428   2.5619   2.6234   2.6575   2.7457   2.7763   2.8150
     2.8320   2.8780   2.8910   2.8945   2.8964   2.9343   2.9696   3.0116
     3.1005   3.1170   3.1174   3.2121   3.2469   3.2475   3.2585   3.2619
     3.3055   3.3520   3.3535   3.4232   3.4275   3.4618   3.5112   3.5320
     3.5516   3.5521   3.5684   3.5925   3.6492   3.6652   3.7028   3.7550
     3.8449   3.8480   3.8686   3.9077   3.9458   3.9638   3.9796   3.9816
     4.0020   4.0381   4.0383   4.0826   4.1246   4.1916   4.2381   4.2561
     4.3034   4.3560   4.3735   4.3816   4.3924   4.4021   4.4320   4.4852
     4.4993   4.5330   4.5484   4.5647   4.5671   4.6477   4.6493   4.6677
     4.6705   4.7032   4.7208   4.7290   4.7311   4.7993   4.8184   4.8497
     4.8994   4.9083   4.9188   4.9350   4.9769   5.0336   5.0519   5.0521
     5.1241   5.1264   5.1346   5.1851   5.1922   5.1980   5.2202   5.2375
     5.2971   5.3069   5.3217   5.3413   5.3542   5.3770   5.4106   5.4458
     5.4813   5.4968   5.5205   5.5592   5.5667   5.5794   5.5883   5.6150
     5.6200   5.6530   5.6748   5.6779   5.6977   5.7102   5.7501   5.7662
     5.7784   5.8000   5.8183   5.8306   5.8584   5.8732   5.9139   5.9208
     5.9256   5.9777   6.0063   6.0403   6.0544   6.0586   6.1162   6.1218
     6.1360   6.1493   6.1532   6.1633   6.2191   6.2235   6.2300   6.2324
     6.2685   6.2903   6.3045   6.3125   6.3399   6.3456   6.3945   6.3980
     6.4116   6.4260   6.4600   6.4673   6.4961   6.5049   6.5116   6.5278
     6.5342   6.5491   6.5516   6.5822   6.6055   6.6231   6.6254   6.6403
     6.6800   6.7117   6.7594   6.7732   6.7823   6.8267   6.8604   6.8739
     6.8869   6.8915   6.9009   6.9075   6.9278   6.9426   6.9512   6.9882
     6.9978   7.0285   7.0336   7.0473   7.0590   7.0775   7.1206   7.1247
     7.1352   7.1434   7.1550   7.1778   7.1844   7.1948   7.1972   7.2119
     7.2172   7.2573   7.2680   7.3251   7.3343   7.3344   7.3811   7.3861
     7.4245   7.4288   7.4412   7.4465   7.4597   7.4777   7.4797   7.4806
     7.5030   7.5087   7.5236   7.5803   7.5855   7.5969   7.5971   7.6601
     7.6665   7.6704   7.6933   7.7386   7.7446   7.7486   7.7531   7.7728
     7.7754   7.7881   7.7916   7.8084   7.8623   7.8631   7.8910   7.9097
     7.9675   7.9992   8.0178   8.0255   8.0311   8.0667   8.0840   8.0932
     8.0995   8.1069   8.1196   8.1253   8.1458   8.1953   8.1960   8.2151
     8.2282   8.2913   8.3017   8.3022

          k = 0.0000 0.0000 0.0047 (147403 PWs)   bands (ev):

   -21.4349 -21.1184 -21.0701 -20.9842 -20.6616 -20.6489 -20.4446 -20.1797
   -20.1300 -20.0091 -19.8414 -19.8198 -19.6937 -19.4382 -19.3219 -19.2966
   -19.2235 -18.9010 -18.6684 -18.5278 -18.4502 -18.4449 -18.2668 -18.0245
   -17.9504 -17.9034 -17.8096 -17.7554 -17.5783 -17.4089 -17.2641 -17.1348
   -17.1066 -16.8012 -16.7656 -16.7051 -16.6830 -16.5525 -16.2996 -16.2246
   -16.1724 -16.0938 -15.7567 -15.6205 -15.5767 -15.1647 -15.0423 -14.8906
   -14.7862 -14.7564 -14.6616 -14.5851 -14.5272 -14.3176 -14.0292 -14.0247
   -13.9661 -13.8194 -13.6638 -13.5699 -13.3401 -13.2563 -13.1338 -12.9293
   -12.8805 -12.8270 -12.5753 -12.4211 -12.4074 -12.3882 -12.3240 -12.2315
   -12.0645 -12.0188 -11.9521 -11.6776 -11.4449 -11.2989 -11.2828 -11.0630
   -11.0419 -10.9013 -10.8832 -10.7626 -10.7616 -10.6444 -10.5202 -10.4598
   -10.4001 -10.2690 -10.1628 -10.0013  -9.9012  -9.8824  -9.8047  -9.7596
    -9.6734  -9.6344  -9.5114  -9.4318  -9.4214  -9.3685  -9.2042  -9.1304
    -9.1297  -9.1081  -9.0889  -9.0637  -8.9996  -8.9852  -8.8282  -8.8028
    -8.7784  -8.7010  -8.6937  -8.6377  -8.6051  -8.6019  -8.5441  -8.5197
    -8.5069  -8.4853  -8.4249  -8.4062  -8.3747  -8.3660  -8.2544  -8.1685
    -8.0678  -8.0656  -8.0578  -8.0494  -8.0210  -7.9375  -7.8482  -7.7990
    -7.7680  -7.6428  -7.6383  -7.5262  -7.5101  -7.4262  -7.4194  -7.2960
    -7.2201  -7.1960  -7.1006  -7.0991  -7.0554  -7.0449  -6.9544  -6.9505
    -6.9486  -6.8671  -6.8599  -6.6484  -6.5398  -6.5010  -6.4080  -6.3639
    -6.2568  -6.2187  -6.1870  -6.1472  -6.1286  -6.0001  -5.9799  -5.8970
    -5.8884  -5.7096  -5.5580  -5.5427  -5.4984  -5.4236  -5.3909  -5.3733
    -5.3021  -5.0577  -4.9160  -4.8049  -4.7652  -4.5833  -4.5752  -4.4346
    -4.3913  -4.3903  -4.1873  -4.0463  -3.8692  -3.6686  -3.4573  -3.3363
    -3.0307  -2.3441  -1.8598  -1.1871  -1.0522  -0.8666  -0.7300  -0.4723
    -0.3859  -0.3095  -0.1399  -0.0797   0.0324   0.1319   0.2010   0.4357
     0.4987   0.5480   0.8739   0.9130   0.9373   0.9732   1.1841   1.1871
     1.2362   1.2856   1.3591   1.3604   1.4269   1.4384   1.5037   1.5720
     1.6154   1.6317   1.7338   1.7971   1.8214   1.9705   1.9791   1.9963
     2.0436   2.1268   2.1456   2.2317   2.2608   2.2988   2.4170   2.4454
     2.4720   2.5347   2.5618   2.6226   2.6492   2.7462   2.7736   2.8156
     2.8169   2.8780   2.8855   2.8861   2.9154   2.9500   2.9773   3.0108
     3.0673   3.0950   3.1205   3.2122   3.2362   3.2375   3.2645   3.2687
     3.3227   3.3589   3.3706   3.4163   3.4311   3.4600   3.5128   3.5375
     3.5464   3.5659   3.5707   3.5967   3.6322   3.6823   3.6891   3.7729
     3.8460   3.8480   3.8633   3.9157   3.9394   3.9641   3.9718   3.9830
     3.9936   4.0455   4.0460   4.0913   4.1256   4.1781   4.2452   4.2539
     4.3056   4.3325   4.3488   4.3893   4.3919   4.4063   4.4213   4.4691
     4.4823   4.5337   4.5496   4.5778   4.5979   4.6231   4.6608   4.6632
     4.6705   4.7015   4.7179   4.7192   4.7588   4.8040   4.8066   4.8357
     4.8981   4.9225   4.9396   4.9463   4.9817   5.0186   5.0278   5.0694
     5.1263   5.1295   5.1443   5.1724   5.1791   5.1861   5.2202   5.2385
     5.3071   5.3401   5.3406   5.3417   5.3589   5.3892   5.3897   5.4392
     5.4763   5.4895   5.5137   5.5529   5.5632   5.5710   5.5823   5.6143
     5.6204   5.6503   5.6683   5.6883   5.6926   5.7178   5.7591   5.7649
     5.7688   5.7955   5.8082   5.8266   5.8349   5.8696   5.8805   5.9336
     5.9510   5.9919   6.0056   6.0504   6.0568   6.0702   6.1187   6.1363
     6.1412   6.1555   6.1593   6.1730   6.2244   6.2258   6.2300   6.2327
     6.2734   6.2944   6.3041   6.3133   6.3309   6.3474   6.3835   6.3948
     6.4039   6.4375   6.4574   6.4668   6.4868   6.5036   6.5052   6.5385
     6.5472   6.5514   6.5573   6.5664   6.6034   6.6070   6.6286   6.6524
     6.6906   6.7354   6.7576   6.7772   6.7941   6.8295   6.8500   6.8573
     6.8727   6.8879   6.8891   6.8939   6.9191   6.9263   6.9393   6.9929
     7.0080   7.0086   7.0346   7.0533   7.0555   7.0790   7.0947   7.1125
     7.1153   7.1371   7.1536   7.1772   7.1845   7.2015   7.2183   7.2194
     7.2230   7.2539   7.2773   7.3180   7.3304   7.3527   7.3961   7.4062
     7.4070   7.4108   7.4368   7.4521   7.4663   7.4778   7.4826   7.4996
     7.5002   7.5233   7.5300   7.5706   7.5785   7.5871   7.6129   7.6586
     7.6774   7.6835   7.6850   7.7363   7.7380   7.7556   7.7596   7.7627
     7.8001   7.8052   7.8071   7.8120   7.8714   7.8847   7.9055   7.9085
     7.9736   8.0098   8.0175   8.0239   8.0347   8.0430   8.0541   8.0909
     8.0936   8.0945   8.1040   8.1226   8.1448   8.1916   8.2034   8.2234
     8.2456   8.2713   8.2783   8.2962

          k = 0.0000 0.0000 0.0059 (147375 PWs)   bands (ev):

   -21.4338 -21.1287 -21.0699 -20.9715 -20.6614 -20.6520 -20.4398 -20.1905
   -20.1292 -20.0203 -19.8242 -19.8224 -19.6889 -19.4472 -19.3244 -19.2933
   -19.2086 -18.9006 -18.6764 -18.5296 -18.4497 -18.4373 -18.3033 -18.0244
   -17.9238 -17.9130 -17.8059 -17.7442 -17.5777 -17.4088 -17.2562 -17.1473
   -17.1063 -16.7931 -16.7650 -16.6985 -16.6822 -16.5545 -16.3028 -16.2314
   -16.1763 -16.0968 -15.7731 -15.6066 -15.5943 -15.1572 -15.0543 -14.8805
   -14.7671 -14.7524 -14.6665 -14.5684 -14.5162 -14.3174 -14.0534 -14.0247
   -13.9727 -13.7973 -13.6584 -13.5697 -13.3378 -13.2778 -13.1403 -12.9559
   -12.9132 -12.8354 -12.5863 -12.4170 -12.3769 -12.3637 -12.3089 -12.2141
   -12.0606 -12.0079 -11.9497 -11.6765 -11.4592 -11.3031 -11.2848 -11.0659
   -11.0608 -10.9104 -10.8802 -10.7552 -10.7512 -10.6391 -10.5285 -10.4504
   -10.3944 -10.2645 -10.1648 -10.0185  -9.8994  -9.8883  -9.8069  -9.7939
    -9.6592  -9.6304  -9.5101  -9.4238  -9.4235  -9.3423  -9.2094  -9.1449
    -9.1431  -9.1078  -9.0729  -9.0599  -8.9830  -8.9691  -8.8517  -8.8126
    -8.7863  -8.7170  -8.6982  -8.6373  -8.6104  -8.6061  -8.5407  -8.5112
    -8.5055  -8.4831  -8.4218  -8.3811  -8.3684  -8.3596  -8.2614  -8.1617
    -8.0764  -8.0671  -8.0575  -8.0461  -8.0202  -7.9318  -7.8656  -7.7971
    -7.7675  -7.6436  -7.6243  -7.5276  -7.5008  -7.4364  -7.4196  -7.2890
    -7.2294  -7.2140  -7.0976  -7.0960  -7.0559  -7.0456  -6.9490  -6.9443
    -6.9390  -6.8667  -6.8660  -6.6476  -6.5652  -6.4983  -6.4131  -6.3563
    -6.2371  -6.2220  -6.1842  -6.1664  -6.1238  -5.9978  -5.9634  -5.9290
    -5.8954  -5.7090  -5.5562  -5.5220  -5.4908  -5.4256  -5.3893  -5.3772
    -5.3012  -5.0662  -4.9018  -4.8123  -4.7651  -4.5832  -4.5749  -4.4368
    -4.3965  -4.3794  -4.1918  -4.0439  -3.8692  -3.6598  -3.4600  -3.3465
    -3.0279  -2.3718  -1.8325  -1.1940  -1.0407  -0.8606  -0.7339  -0.4646
    -0.3858  -0.3094  -0.1388  -0.0797   0.0244   0.1341   0.1868   0.4523
     0.4974   0.5452   0.8630   0.9146   0.9361   0.9747   1.1752   1.1847
     1.2289   1.2759   1.3129   1.3473   1.4490   1.4501   1.5128   1.5777
     1.5991   1.6284   1.7439   1.8334   1.8415   1.9730   1.9778   1.9819
     2.0575   2.1411   2.1505   2.2336   2.2567   2.3038   2.4188   2.4451
     2.4775   2.5250   2.5616   2.6218   2.6388   2.7467   2.7709   2.7998
     2.8222   2.8728   2.8761   2.8857   2.9347   2.9632   2.9857   3.0114
     3.0342   3.0739   3.1218   3.2027   3.2265   3.2394   3.2676   3.2686
     3.3354   3.3706   3.3874   3.3991   3.4489   3.4577   3.5140   3.5400
     3.5499   3.5637   3.5840   3.6087   3.6147   3.6757   3.6982   3.7913
     3.8226   3.8514   3.8828   3.9215   3.9299   3.9624   3.9646   3.9877
     3.9886   4.0433   4.0533   4.1055   4.1280   4.1632   4.2473   4.2582
     4.3045   4.3066   4.3281   4.3794   4.3866   4.4131   4.4252   4.4643
     4.4651   4.5134   4.5647   4.5924   4.5947   4.6272   4.6309   4.6743
     4.6800   4.6993   4.7127   4.7217   4.7886   4.8116   4.8144   4.8212
     4.8869   4.9368   4.9420   4.9716   4.9850   4.9888   5.0271   5.0724
     5.1292   5.1310   5.1551   5.1559   5.1723   5.1810   5.2240   5.2383
     5.3159   5.3320   5.3657   5.3669   5.3689   5.3764   5.3991   5.4033
     5.4813   5.5038   5.5074   5.5429   5.5477   5.5661   5.5905   5.6140
     5.6193   5.6493   5.6498   5.6746   5.7100   5.7362   5.7467   5.7637
     5.7732   5.7742   5.8078   5.8086   5.8303   5.8484   5.8684   5.9465
     5.9745   6.0066   6.0076   6.0611   6.0620   6.0768   6.1004   6.1314
     6.1472   6.1643   6.1670   6.2104   6.2246   6.2274   6.2312   6.2372
     6.2832   6.2942   6.3120   6.3144   6.3262   6.3532   6.3763   6.3942
     6.3992   6.4374   6.4591   6.4714   6.4747   6.4955   6.4977   6.5388
     6.5424   6.5546   6.5578   6.5861   6.5861   6.5909   6.6339   6.6765
     6.7101   6.7394   6.7575   6.7895   6.8027   6.8341   6.8405   6.8421
     6.8520   6.8733   6.8812   6.8955   6.8961   6.9236   6.9256   6.9750
     6.9975   7.0131   7.0285   7.0471   7.0573   7.0653   7.0762   7.1031
     7.1146   7.1318   7.1672   7.1685   7.1838   7.2075   7.2244   7.2250
     7.2336   7.2698   7.2883   7.3098   7.3341   7.3707   7.3748   7.3850
     7.4077   7.4183   7.4361   7.4487   7.4567   7.4833   7.5012   7.5175
     7.5274   7.5300   7.5316   7.5529   7.5824   7.5960   7.6264   7.6527
     7.6741   7.6900   7.6939   7.7103   7.7369   7.7653   7.7699   7.7705
     7.8122   7.8203   7.8223   7.8402   7.8864   7.9010   7.9116   7.9216
     7.9756   8.0015   8.0158   8.0158   8.0212   8.0427   8.0431   8.0724
     8.0751   8.0892   8.0935   8.1142   8.1754   8.1826   8.2128   8.2383
     8.2423   8.2453   8.2625   8.2969

          k = 0.0000 0.0000 0.0070 (147319 PWs)   bands (ev):

   -21.4325 -21.1393 -21.0696 -20.9579 -20.6611 -20.6557 -20.4341 -20.2035
   -20.1283 -20.0300 -19.8296 -19.8042 -19.6822 -19.4564 -19.3268 -19.2899
   -19.1922 -18.9001 -18.6856 -18.5318 -18.4492 -18.4287 -18.3392 -18.0243
   -17.9451 -17.8778 -17.7993 -17.7338 -17.5770 -17.4092 -17.2467 -17.1614
   -17.1060 -16.7843 -16.7643 -16.6905 -16.6812 -16.5569 -16.3088 -16.2400
   -16.1813 -16.0965 -15.7900 -15.6174 -15.5900 -15.1623 -15.0511 -14.8694
   -14.7489 -14.7479 -14.6708 -14.5495 -14.5025 -14.3171 -14.0778 -14.0246
   -13.9803 -13.7754 -13.6523 -13.5695 -13.3350 -13.3020 -13.1494 -12.9960
   -12.9490 -12.8264 -12.6002 -12.4193 -12.3655 -12.3286 -12.2787 -12.1934
   -12.0552 -11.9978 -11.9442 -11.6751 -11.4751 -11.3100 -11.2873 -11.0908
   -11.0579 -10.9192 -10.8766 -10.7490 -10.7460 -10.6291 -10.5361 -10.4411
   -10.3892 -10.2583 -10.1659 -10.0359  -9.9107  -9.8974  -9.8137  -9.8092
    -9.6431  -9.6249  -9.5085  -9.4268  -9.4158  -9.3191  -9.2162  -9.1583
    -9.1567  -9.1075  -9.0654  -9.0427  -8.9668  -8.9523  -8.8757  -8.8316
    -8.7923  -8.7266  -8.7008  -8.6367  -8.6162  -8.6108  -8.5440  -8.5065
    -8.5032  -8.4805  -8.4170  -8.3612  -8.3543  -8.3510  -8.2664  -8.1556
    -8.0874  -8.0688  -8.0569  -8.0424  -8.0191  -7.9250  -7.8815  -7.7948
    -7.7668  -7.6500  -7.6081  -7.5292  -7.4883  -7.4469  -7.4200  -7.2828
    -7.2392  -7.2342  -7.0958  -7.0901  -7.0564  -7.0464  -6.9472  -6.9419
    -6.9218  -6.8745  -6.8638  -6.6464  -6.5898  -6.4955  -6.4190  -6.3506
    -6.2255  -6.2159  -6.1855  -6.1812  -6.1182  -5.9947  -5.9694  -5.9484
    -5.8924  -5.7084  -5.5719  -5.5034  -5.4658  -5.4281  -5.3875  -5.3818
    -5.2998  -5.0744  -4.8871  -4.8213  -4.7650  -4.5832  -4.5746  -4.4385
    -4.4023  -4.3668  -4.1981  -4.0410  -3.8693  -3.6491  -3.4632  -3.3588
    -3.0247  -2.4022  -1.8028  -1.2012  -1.0282  -0.8531  -0.7387  -0.4560
    -0.3854  -0.3087  -0.1375  -0.0798   0.0153   0.1357   0.1721   0.4700
     0.4958   0.5416   0.8516   0.9166   0.9346   0.9765   1.1627   1.1851
     1.2049   1.2659   1.2827   1.3350   1.4601   1.4751   1.5212   1.5830
     1.5852   1.6242   1.7533   1.8469   1.8791   1.9668   1.9677   1.9862
     2.0783   2.1539   2.1556   2.2363   2.2530   2.3098   2.4209   2.4457
     2.4832   2.5142   2.5613   2.6210   2.6265   2.7470   2.7689   2.7846
     2.8290   2.8644   2.8666   2.8879   2.9518   2.9719   2.9944   3.0043
     3.0158   3.0535   3.1194   3.1886   3.2202   3.2479   3.2595   3.2711
     3.3491   3.3796   3.3821   3.4034   3.4535   3.4744   3.5139   3.5326
     3.5631   3.5668   3.5909   3.5968   3.6290   3.6629   3.7124   3.7994
     3.8102   3.8585   3.9024   3.9179   3.9244   3.9538   3.9654   3.9846
     3.9963   4.0334   4.0601   4.1242   4.1324   4.1474   4.2337   4.2750
     4.2792   4.3017   4.3149   4.3566   4.3744   4.4215   4.4411   4.4461
     4.4702   4.4886   4.5588   4.5846   4.5952   4.6080   4.6534   4.6795
     4.6968   4.6990   4.7050   4.7260   4.8068   4.8189   4.8219   4.8371
     4.8764   4.9382   4.9429   4.9525   4.9907   4.9971   5.0344   5.0639
     5.1329   5.1331   5.1354   5.1572   5.1697   5.1966   5.2300   5.2373
     5.3149   5.3216   5.3343   5.3783   5.3811   5.3911   5.4130   5.4172
     5.4718   5.4905   5.5244   5.5332   5.5521   5.5587   5.5935   5.6137
     5.6222   5.6250   5.6518   5.6682   5.7226   5.7260   5.7347   5.7560
     5.7704   5.7849   5.7894   5.8058   5.8192   5.8383   5.8687   5.9554
     5.9859   6.0087   6.0174   6.0608   6.0698   6.0765   6.0931   6.1316
     6.1583   6.1686   6.1762   6.2187   6.2257   6.2370   6.2446   6.2478
     6.2893   6.2945   6.3162   6.3235   6.3327   6.3588   6.3806   6.3922
     6.3987   6.4300   6.4585   6.4675   6.4696   6.4837   6.4941   6.5183
     6.5456   6.5537   6.5655   6.5695   6.5832   6.6136   6.6425   6.6881
     6.7195   6.7415   6.7756   6.7866   6.8087   6.8272   6.8303   6.8380
     6.8386   6.8669   6.8695   6.8724   6.9010   6.9096   6.9281   6.9451
     6.9873   6.9965   7.0050   7.0429   7.0436   7.0710   7.0755   7.1096
     7.1232   7.1295   7.1465   7.1814   7.1855   7.2147   7.2204   7.2315
     7.2436   7.2859   7.2996   7.3010   7.3446   7.3470   7.3653   7.3818
     7.4138   7.4269   7.4399   7.4447   7.4497   7.4786   7.5171   7.5228
     7.5263   7.5421   7.5454   7.5587   7.6084   7.6119   7.6311   7.6516
     7.6552   7.6652   7.6984   7.7356   7.7373   7.7773   7.7798   7.7819
     7.8129   7.8300   7.8432   7.8745   7.9079   7.9084   7.9181   7.9325
     7.9613   7.9765   8.0088   8.0145   8.0147   8.0385   8.0548   8.0584
     8.0606   8.0822   8.0986   8.1079   8.1769   8.1931   8.2087   8.2190
     8.2213   8.2522   8.2760   8.2942

          k = 0.0000 0.0000 0.0082 (147293 PWs)   bands (ev):

   -21.4310 -21.1500 -21.0693 -20.9438 -20.6607 -20.6596 -20.4278 -20.2186
   -20.1271 -20.0381 -19.8358 -19.7875 -19.6733 -19.4657 -19.3291 -19.2863
   -19.1746 -18.8994 -18.6959 -18.5345 -18.4486 -18.4195 -18.3745 -18.0242
   -17.9668 -17.8491 -17.7857 -17.7243 -17.5760 -17.4101 -17.2355 -17.1769
   -17.1055 -16.7753 -16.7633 -16.6812 -16.6800 -16.5598 -16.3195 -16.2488
   -16.1863 -16.0928 -15.8071 -15.6402 -15.5759 -15.1806 -15.0322 -14.8578
   -14.7431 -14.7322 -14.6743 -14.5286 -14.4861 -14.3165 -14.1023 -14.0245
   -13.9885 -13.7541 -13.6457 -13.5691 -13.3316 -13.3284 -13.1630 -13.0373
   -12.9872 -12.8103 -12.6166 -12.4218 -12.3544 -12.3094 -12.2331 -12.1699
   -12.0473 -11.9907 -11.9338 -11.6735 -11.4920 -11.3197 -11.2902 -11.1162
   -11.0542 -10.9273 -10.8725 -10.7475 -10.7431 -10.6159 -10.5413 -10.4331
   -10.3847 -10.2504 -10.1660 -10.0535  -9.9467  -9.8950  -9.8212  -9.8116
    -9.6257  -9.6180  -9.5067  -9.4306  -9.4078  -9.3002  -9.2251  -9.1704
    -9.1701  -9.1071  -9.0633  -9.0159  -8.9515  -8.9351  -8.8986  -8.8577
    -8.7966  -8.7310  -8.7024  -8.6361  -8.6224  -8.6160  -8.5494  -8.5087
    -8.4998  -8.4781  -8.4120  -8.3531  -8.3401  -8.3272  -8.2680  -8.1506
    -8.1007  -8.0706  -8.0558  -8.0383  -8.0179  -7.9171  -7.8957  -7.7922
    -7.7661  -7.6574  -7.5947  -7.5310  -7.4722  -7.4575  -7.4209  -7.2778
    -7.2559  -7.2491  -7.0937  -7.0830  -7.0567  -7.0471  -6.9451  -6.9421
    -6.9035  -6.8832  -6.8603  -6.6450  -6.6133  -6.4928  -6.4257  -6.3462
    -6.2294  -6.2043  -6.1944  -6.1780  -6.1121  -6.0094  -5.9904  -5.9363
    -5.8869  -5.7077  -5.5894  -5.4968  -5.4309  -5.4288  -5.3873  -5.3857
    -5.2977  -5.0823  -4.8723  -4.8317  -4.7648  -4.5832  -4.5743  -4.4400
    -4.4084  -4.3526  -4.2062  -4.0375  -3.8694  -3.6364  -3.4670  -3.3729
    -3.0210  -2.4344  -1.7712  -1.2085  -1.0152  -0.8439  -0.7445  -0.4471
    -0.3846  -0.3071  -0.1359  -0.0799   0.0053   0.1367   0.1573   0.4884
     0.4938   0.5372   0.8404   0.9189   0.9327   0.9786   1.1500   1.1611
     1.1852   1.2562   1.2731   1.3225   1.4716   1.5012   1.5286   1.5670
     1.5945   1.6195   1.7623   1.8607   1.9082   1.9540   1.9615   1.9952
     2.1073   2.1607   2.1641   2.2400   2.2508   2.3167   2.4235   2.4471
     2.4890   2.5027   2.5608   2.6129   2.6203   2.7470   2.7681   2.7701
     2.8357   2.8549   2.8576   2.8907   2.9524   2.9746   2.9926   3.0035
     3.0252   3.0343   3.1126   3.1736   3.2179   3.2457   3.2588   3.2749
     3.3604   3.3609   3.3954   3.4183   3.4477   3.5028   3.5115   3.5241
     3.5652   3.5788   3.5862   3.5976   3.6512   3.6517   3.7247   3.7769
     3.8293   3.8685   3.9047   3.9210   3.9250   3.9461   3.9672   3.9831
     4.0052   4.0200   4.0665   4.1313   4.1395   4.1451   4.2138   4.2509
     4.2870   4.3047   4.3094   4.3285   4.3603   4.4282   4.4309   4.4557
     4.4603   4.4818   4.5289   4.5596   4.5971   4.6244   4.6739   4.6859
     4.6942   4.6980   4.7193   4.7313   4.7937   4.8346   4.8456   4.8669
     4.8686   4.9250   4.9290   4.9427   4.9951   5.0055   5.0455   5.0593
     5.1149   5.1366   5.1373   5.1424   5.1854   5.2189   5.2360   5.2375
     5.2833   5.3007   5.3242   5.3769   5.3917   5.4125   5.4307   5.4488
     5.4614   5.4742   5.5206   5.5273   5.5518   5.5842   5.5886   5.5981
     5.6167   5.6306   5.6539   5.6642   5.6977   5.7112   5.7362   5.7369
     5.7843   5.7862   5.7898   5.7976   5.8091   5.8487   5.8718   5.9599
     5.9811   6.0089   6.0109   6.0528   6.0692   6.0741   6.1149   6.1403
     6.1710   6.1730   6.1778   6.2112   6.2255   6.2458   6.2525   6.2850
     6.2873   6.2960   6.3193   6.3349   6.3454   6.3652   6.3923   6.3959
     6.4031   6.4254   6.4368   6.4629   6.4649   6.4661   6.5000   6.5065
     6.5428   6.5526   6.5535   6.5821   6.5838   6.6379   6.6516   6.6951
     6.6985   6.7652   6.7806   6.7865   6.8073   6.8103   6.8126   6.8371
     6.8409   6.8510   6.8614   6.8664   6.9013   6.9061   6.9138   6.9347
     6.9566   6.9745   6.9878   7.0399   7.0469   7.0644   7.0864   7.1101
     7.1183   7.1367   7.1422   7.1794   7.2001   7.2111   7.2230   7.2403
     7.2538   7.2695   7.2922   7.3077   7.3462   7.3519   7.3589   7.3803
     7.4167   7.4323   7.4476   7.4481   7.4552   7.4642   7.5033   7.5239
     7.5250   7.5632   7.5707   7.5845   7.6085   7.6225   7.6273   7.6512
     7.6575   7.6627   7.7041   7.7354   7.7545   7.7905   7.7913   7.8050
     7.8108   7.8348   7.8639   7.9007   7.9113   7.9207   7.9291   7.9343
     7.9363   7.9763   7.9781   8.0099   8.0214   8.0424   8.0594   8.0617
     8.0678   8.0737   8.1019   8.1038   8.1582   8.1755   8.2034   8.2037
     8.2294   8.2631   8.2864   8.2872

          k = 0.0000 0.0000 0.0094 (147291 PWs)   bands (ev):

   -21.4293 -21.1606 -21.0689 -20.9292 -20.6638 -20.6603 -20.4210 -20.2354
   -20.1257 -20.0448 -19.8430 -19.7730 -19.6616 -19.4746 -19.3313 -19.2825
   -19.1562 -18.8987 -18.7070 -18.5377 -18.4479 -18.4098 -18.4089 -18.0242
   -17.9888 -17.8314 -17.7605 -17.7156 -17.5747 -17.4117 -17.2230 -17.1933
   -17.1049 -16.7663 -16.7621 -16.6786 -16.6705 -16.5631 -16.3366 -16.2558
   -16.1909 -16.0862 -15.8248 -15.6645 -15.5621 -15.2061 -15.0040 -14.8460
   -14.7382 -14.7173 -14.6768 -14.5058 -14.4672 -14.3155 -14.1268 -14.0244
   -13.9974 -13.7335 -13.6388 -13.5685 -13.3565 -13.3276 -13.1845 -13.0725
   -13.0271 -12.7914 -12.6348 -12.4243 -12.3441 -12.2947 -12.1856 -12.1444
   -12.0352 -11.9872 -11.9179 -11.6716 -11.5096 -11.3322 -11.2936 -11.1417
   -11.0500 -10.9343 -10.8678 -10.7546 -10.7376 -10.6046 -10.5407 -10.4276
   -10.3811 -10.2406 -10.1646 -10.0713  -9.9869  -9.8923  -9.8240  -9.8140
    -9.6098  -9.6075  -9.5046  -9.4353  -9.3993  -9.2854  -9.2362  -9.1832
    -9.1811  -9.1066  -9.0616  -8.9856  -8.9413  -8.9175  -8.9155  -8.8874
    -8.8005  -8.7314  -8.7033  -8.6353  -8.6292  -8.6215  -8.5558  -8.5116
    -8.4999  -8.4766  -8.4088  -8.3444  -8.3286  -8.3002  -8.2642  -8.1467
    -8.1162  -8.0727  -8.0541  -8.0336  -8.0163  -7.9083  -7.9078  -7.7892
    -7.7651  -7.6660  -7.5840  -7.5331  -7.4679  -7.4529  -7.4224  -7.2785
    -7.2743  -7.2587  -7.0914  -7.0751  -7.0565  -7.0476  -6.9453  -6.9428
    -6.8926  -6.8845  -6.8555  -6.6432  -6.6353  -6.4906  -6.4330  -6.3423
    -6.2335  -6.2224  -6.1747  -6.1737  -6.1056  -6.0489  -5.9846  -5.9280
    -5.8778  -5.7069  -5.6085  -5.4920  -5.4342  -5.3936  -5.3910  -5.3837
    -5.2941  -5.0897  -4.8579  -4.8433  -4.7646  -4.5832  -4.5738  -4.4412
    -4.4148  -4.3367  -4.2162  -4.0336  -3.8695  -3.6219  -3.4714  -3.3886
    -3.0171  -2.4680  -1.7386  -1.2158  -1.0019  -0.8330  -0.7513  -0.4386
    -0.3831  -0.3038  -0.1341  -0.0800  -0.0055   0.1368   0.1427   0.4912
     0.5072   0.5321   0.8301   0.9216   0.9305   0.9810   1.1092   1.1370
     1.1844   1.2475   1.2725   1.3099   1.4831   1.5279   1.5349   1.5514
     1.6054   1.6141   1.7712   1.8735   1.9290   1.9408   1.9583   2.0043
     2.1441   2.1657   2.1701   2.2451   2.2517   2.3242   2.4264   2.4494
     2.4908   2.4950   2.5600   2.5984   2.6198   2.7466   2.7565   2.7683
     2.8402   2.8449   2.8494   2.8936   2.9293   2.9728   3.0067   3.0128
     3.0175   3.0381   3.1019   3.1588   3.2178   3.2297   3.2710   3.2788
     3.3437   3.3688   3.4122   3.4313   3.4407   3.5071   3.5146   3.5294
     3.5610   3.5706   3.6063   3.6082   3.6407   3.6734   3.7360   3.7563
     3.8486   3.8797   3.8918   3.9252   3.9361   3.9396   3.9721   3.9815
     4.0065   4.0141   4.0727   4.1154   4.1489   4.1668   4.1910   4.2221
     4.2836   4.2977   4.3088   4.3235   4.3459   4.4107   4.4227   4.4409
     4.4748   4.4852   4.5041   4.5306   4.6092   4.6416   4.6838   4.6927
     4.6936   4.6936   4.7373   4.7403   4.7839   4.8489   4.8521   4.8657
     4.9001   4.9141   4.9187   4.9420   4.9804   5.0129   5.0529   5.0678
     5.0948   5.1304   5.1408   5.1426   5.1983   5.2344   5.2434   5.2449
     5.2457   5.2792   5.3242   5.3748   5.4044   5.4235   5.4403   5.4510
     5.4591   5.4781   5.5156   5.5400   5.5453   5.5761   5.5820   5.6175
     5.6191   5.6388   5.6504   5.6613   5.6794   5.6851   5.7158   5.7316
     5.7802   5.7854   5.7939   5.8125   5.8143   5.8566   5.8813   5.9520
     5.9612   6.0070   6.0118   6.0488   6.0564   6.0730   6.1283   6.1529
     6.1692   6.1857   6.1903   6.2079   6.2304   6.2536   6.2597   6.2831
     6.2992   6.3216   6.3246   6.3426   6.3470   6.3759   6.3983   6.4094
     6.4105   6.4186   6.4264   6.4478   6.4499   6.4582   6.5092   6.5109
     6.5300   6.5514   6.5529   6.5864   6.5993   6.6539   6.6613   6.6770
     6.7016   6.7563   6.7828   6.7851   6.7884   6.7979   6.8150   6.8303
     6.8324   6.8519   6.8599   6.8653   6.8861   6.8971   6.9063   6.9109
     6.9608   6.9610   6.9762   7.0363   7.0520   7.0553   7.0873   7.0980
     7.1059   7.1491   7.1636   7.1762   7.1980   7.2121   7.2321   7.2381
     7.2495   7.2651   7.2854   7.3110   7.3287   7.3687   7.3697   7.3738
     7.4163   7.4331   7.4449   7.4563   7.4612   7.4708   7.4918   7.5329
     7.5346   7.5702   7.5765   7.5887   7.6075   7.6170   7.6525   7.6533
     7.6640   7.6876   7.7091   7.7384   7.7585   7.7973   7.7974   7.8141
     7.8368   7.8386   7.8825   7.8962   7.9030   7.9126   7.9385   7.9406
     7.9406   7.9677   7.9777   8.0075   8.0334   8.0518   8.0652   8.0694
     8.0704   8.0810   8.0929   8.1040   8.1182   8.1768   8.1917   8.2023
     8.2305   8.2709   8.2740   8.2913

          k = 0.0000 0.0000 0.0106 (147327 PWs)   bands (ev):

   -21.4274 -21.1711 -21.0685 -20.9143 -20.6682 -20.6597 -20.4138 -20.2535
   -20.1241 -20.0503 -19.8509 -19.7611 -19.6471 -19.4831 -19.3334 -19.2784
   -19.1372 -18.8977 -18.7191 -18.5414 -18.4471 -18.4424 -18.3998 -18.0241
   -18.0108 -17.8223 -17.7266 -17.7075 -17.5730 -17.4138 -17.2104 -17.2094
   -17.1041 -16.7607 -16.7577 -16.6770 -16.6586 -16.5668 -16.3602 -16.2602
   -16.1948 -16.0771 -15.8430 -15.6895 -15.5486 -15.2349 -14.9705 -14.8340
   -14.7333 -14.7050 -14.6776 -14.4815 -14.4462 -14.3139 -14.1510 -14.0243
   -14.0065 -13.7138 -13.6318 -13.5676 -13.3861 -13.3231 -13.2165 -13.0977
   -13.0683 -12.7713 -12.6543 -12.4268 -12.3345 -12.2806 -12.1438 -12.1174
   -12.0156 -11.9865 -11.8979 -11.6696 -11.5276 -11.3473 -11.2975 -11.1669
   -11.0456 -10.9402 -10.8626 -10.7657 -10.7325 -10.6010 -10.5300 -10.4257
   -10.3781 -10.2298 -10.1617 -10.0906 -10.0245  -9.8893  -9.8259  -9.8164
    -9.6005  -9.5890  -9.5023  -9.4408  -9.3902  -9.2743  -9.2496  -9.1961
    -9.1903  -9.1061  -9.0600  -8.9546  -8.9503  -8.9183  -8.9115  -8.8997
    -8.8047  -8.7283  -8.7038  -8.6365  -8.6343  -8.6271  -8.5628  -8.5149
    -8.5023  -8.4758  -8.4084  -8.3352  -8.3192  -8.2739  -8.2531  -8.1441
    -8.1338  -8.0751  -8.0519  -8.0286  -8.0145  -7.9181  -7.8987  -7.7859
    -7.7639  -7.6755  -7.5757  -7.5354  -7.4782  -7.4312  -7.4250  -7.3014
    -7.2724  -7.2679  -7.0889  -7.0682  -7.0539  -7.0476  -6.9514  -6.9401
    -6.9023  -6.8650  -6.8498  -6.6555  -6.6410  -6.4893  -6.4410  -6.3389
    -6.2397  -6.2379  -6.1712  -6.1546  -6.0989  -6.0877  -5.9769  -5.9235
    -5.8654  -5.7060  -5.6289  -5.4873  -5.4378  -5.4007  -5.3817  -5.3564
    -5.2867  -5.0967  -4.8561  -4.8440  -4.7643  -4.5832  -4.5734  -4.4423
    -4.4213  -4.3190  -4.2281  -4.0295  -3.8696  -3.6055  -3.4766  -3.4057
    -3.0129  -2.5024  -1.7051  -1.2230  -0.9887  -0.8202  -0.7592  -0.4314
    -0.3809  -0.2981  -0.1321  -0.0801  -0.0172   0.1285   0.1358   0.4879
     0.5260   0.5266   0.8213   0.9247   0.9277   0.9837   1.0550   1.1238
     1.1824   1.2403   1.2751   1.2974   1.4944   1.5362   1.5405   1.5548
     1.6082   1.6176   1.7802   1.8828   1.9281   1.9431   1.9594   2.0132
     2.1702   2.1708   2.1866   2.2519   2.2569   2.3320   2.4297   2.4525
     2.4791   2.5011   2.5590   2.5834   2.6197   2.7439   2.7455   2.7695
     2.8347   2.8386   2.8425   2.8962   2.9056   2.9685   3.0014   3.0222
     3.0284   3.0525   3.0889   3.1448   3.2128   3.2167   3.2823   3.2839
     3.3318   3.3740   3.4307   3.4326   3.4412   3.5022   3.5033   3.5447
     3.5497   3.5787   3.6260   3.6261   3.6317   3.6899   3.7407   3.7473
     3.8675   3.8807   3.8881   3.9286   3.9348   3.9441   3.9758   3.9830
     3.9977   4.0220   4.0785   4.1000   4.1539   4.1749   4.1888   4.1933
     4.2650   4.2763   4.3111   4.3318   4.3462   4.3876   4.3937   4.4510
     4.4566   4.4686   4.5132   4.5224   4.6197   4.6594   4.6821   4.6908
     4.6925   4.7019   4.7445   4.7617   4.7778   4.8301   4.8630   4.8703
     4.8977   4.9344   4.9410   4.9417   4.9569   5.0172   5.0500   5.0774
     5.0818   5.1248   5.1453   5.1489   5.1771   5.2327   5.2361   5.2537
     5.2629   5.2734   5.3227   5.3724   5.4090   5.4232   5.4338   5.4412
     5.4621   5.4818   5.5365   5.5394   5.5588   5.5627   5.5757   5.6177
     5.6266   5.6511   5.6528   5.6586   5.6592   5.6761   5.6994   5.7183
     5.7724   5.7882   5.8057   5.8173   5.8364   5.8597   5.8892   5.9235
     5.9606   6.0096   6.0108   6.0400   6.0425   6.0670   6.1331   6.1488
     6.1582   6.2081   6.2111   6.2150   6.2422   6.2559   6.2663   6.2791
     6.3060   6.3325   6.3389   6.3466   6.3544   6.3798   6.3891   6.3900
     6.4172   6.4320   6.4408   6.4435   6.4435   6.4624   6.5195   6.5202
     6.5209   6.5484   6.5533   6.5928   6.6150   6.6537   6.6557   6.6715
     6.7113   6.7530   6.7568   6.7597   6.7700   6.8067   6.8170   6.8176
     6.8269   6.8461   6.8601   6.8649   6.8712   6.8840   6.8856   6.9207
     6.9472   6.9770   6.9849   7.0313   7.0350   7.0542   7.0645   7.1053
     7.1099   7.1478   7.1728   7.1822   7.1852   7.2183   7.2183   7.2419
     7.2548   7.2786   7.2859   7.3096   7.3147   7.3555   7.3732   7.3884
     7.4103   7.4271   7.4346   7.4635   7.4825   7.4847   7.5016   7.5363
     7.5453   7.5480   7.5828   7.5946   7.6116   7.6275   7.6507   7.6663
     7.6790   7.7194   7.7195   7.7428   7.7541   7.7868   7.7933   7.8254
     7.8496   7.8676   7.8918   7.8955   7.8975   7.8978   7.9040   7.9517
     7.9650   7.9806   7.9886   8.0207   8.0415   8.0587   8.0630   8.0645
     8.0792   8.0905   8.0939   8.0964   8.0993   8.1750   8.1776   8.2163
     8.2228   8.2551   8.2768   8.2947

          k = 0.0000 0.0000 0.0117 (147325 PWs)   bands (ev):

   -21.4253 -21.1813 -21.0681 -20.8992 -20.6726 -20.6591 -20.4062 -20.2727
   -20.1222 -20.0547 -19.8596 -19.7516 -19.6301 -19.4910 -19.3354 -19.2741
   -19.1179 -18.8965 -18.7321 -18.5455 -18.4746 -18.4462 -18.3898 -18.0327
   -18.0240 -17.8169 -17.7002 -17.6892 -17.5705 -17.4165 -17.2280 -17.1950
   -17.1032 -16.7590 -16.7498 -16.6754 -16.6454 -16.5708 -16.3888 -16.2624
   -16.1982 -16.0659 -15.8622 -15.7146 -15.5356 -15.2652 -14.9340 -14.8221
   -14.7286 -14.6971 -14.6746 -14.4560 -14.4239 -14.3110 -14.1749 -14.0243
   -14.0155 -13.6954 -13.6249 -13.5662 -13.4172 -13.3180 -13.2568 -13.1141
   -13.1104 -12.7506 -12.6749 -12.4292 -12.3255 -12.2664 -12.1123 -12.0897
   -11.9874 -11.9848 -11.8748 -11.6672 -11.5456 -11.3645 -11.3021 -11.1918
   -11.0412 -10.9449 -10.8571 -10.7799 -10.7276 -10.6046 -10.5109 -10.4284
   -10.3754 -10.2195 -10.1572 -10.1142 -10.0525  -9.8860  -9.8283  -9.8189
    -9.5905  -9.5709  -9.4997  -9.4468  -9.3805  -9.2664  -9.2649  -9.2087
    -9.1982  -9.1056  -9.0582  -8.9672  -8.9522  -8.9223  -8.8979  -8.8818
    -8.8093  -8.7209  -8.7039  -8.6441  -8.6331  -8.6328  -8.5705  -8.5183
    -8.5062  -8.4755  -8.4105  -8.3256  -8.3127  -8.2486  -8.2352  -8.1531
    -8.1426  -8.0778  -8.0490  -8.0230  -8.0124  -7.9267  -7.8883  -7.7821
    -7.7625  -7.6859  -7.5690  -7.5379  -7.4882  -7.4296  -7.4079  -7.3235
    -7.2766  -7.2721  -7.0866  -7.0653  -7.0469  -7.0464  -6.9603  -6.9371
    -6.9121  -6.8454  -6.8437  -6.6736  -6.6382  -6.4892  -6.4497  -6.3356
    -6.2557  -6.2425  -6.1676  -6.1376  -6.1259  -6.0920  -5.9669  -5.9213
    -5.8511  -5.7051  -5.6502  -5.4823  -5.4419  -5.4086  -5.3797  -5.3307
    -5.2703  -5.1032  -4.8698  -4.8308  -4.7640  -4.5832  -4.5729  -4.4432
    -4.4281  -4.2997  -4.2415  -4.0254  -3.8697  -3.5874  -3.4828  -3.4236
    -3.0086  -2.5374  -1.6712  -1.2300  -0.9759  -0.8053  -0.7683  -0.4262
    -0.3783  -0.2891  -0.1299  -0.0803  -0.0297   0.1151   0.1336   0.4836
     0.5210   0.5448   0.8143   0.9245   0.9280   0.9868   1.0002   1.1104
     1.1785   1.2353   1.2792   1.2850   1.5049   1.5219   1.5455   1.5818
     1.6019   1.6307   1.7896   1.8869   1.9162   1.9528   1.9666   2.0212
     2.1664   2.1743   2.2323   2.2607   2.2659   2.3399   2.4333   2.4565
     2.4681   2.5072   2.5577   2.5682   2.6201   2.7323   2.7437   2.7713
     2.8245   2.8260   2.8372   2.8893   2.8982   2.9628   2.9910   3.0312
     3.0499   3.0672   3.0748   3.1320   3.1958   3.2117   3.2851   3.2973
     3.3271   3.3777   3.4238   3.4455   3.4491   3.4899   3.5000   3.5311
     3.5632   3.5876   3.6255   3.6441   3.6497   3.6944   3.7371   3.7598
     3.8734   3.8848   3.8895   3.9326   3.9390   3.9454   3.9644   3.9962
     3.9981   4.0279   4.0840   4.0858   4.1368   4.1649   4.1846   4.2103
     4.2312   4.2684   4.3156   4.3181   4.3523   4.3689   4.3773   4.4267
     4.4384   4.4606   4.5274   4.5358   4.6283   4.6734   4.6777   4.6859
     4.6946   4.7098   4.7531   4.7732   4.7825   4.7999   4.8643   4.8826
     4.8933   4.9287   4.9398   4.9716   4.9737   5.0153   5.0360   5.0666
     5.0962   5.1216   5.1388   5.1498   5.1562   5.2310   5.2318   5.2596
     5.2690   5.3033   5.3212   5.3698   5.3913   5.4169   5.4327   5.4368
     5.4685   5.4727   5.5343   5.5489   5.5692   5.5698   5.5842   5.6017
     5.6166   5.6357   5.6555   5.6579   5.6781   5.6783   5.6910   5.7190
     5.7645   5.7917   5.8179   5.8227   5.8609   5.8614   5.8622   5.9310
     5.9592   6.0074   6.0140   6.0211   6.0315   6.0575   6.1279   6.1427
     6.1529   6.2118   6.2222   6.2391   6.2497   6.2639   6.2724   6.2760
     6.3188   6.3292   6.3378   6.3403   6.3517   6.3678   6.3941   6.4026
     6.4225   6.4233   6.4394   6.4622   6.4685   6.4833   6.5128   6.5299
     6.5361   6.5460   6.5514   6.5983   6.6300   6.6354   6.6402   6.6814
     6.7212   6.7258   6.7305   6.7497   6.7595   6.8044   6.8098   6.8142
     6.8178   6.8279   6.8497   6.8581   6.8596   6.8728   6.9119   6.9326
     6.9334   6.9865   7.0002   7.0120   7.0251   7.0524   7.0547   7.1110
     7.1216   7.1228   7.1631   7.1696   7.2036   7.2158   7.2235   7.2522
     7.2535   7.2917   7.2947   7.3050   7.3106   7.3414   7.3617   7.3977
     7.4031   7.4123   7.4377   7.4770   7.4934   7.5079   7.5109   7.5248
     7.5586   7.5629   7.5847   7.5925   7.6078   7.6431   7.6503   7.6661
     7.6911   7.7304   7.7447   7.7457   7.7461   7.7845   7.7881   7.8336
     7.8676   7.8713   7.8720   7.8742   7.8938   7.9126   7.9212   7.9659
     7.9848   7.9907   7.9958   8.0248   8.0466   8.0548   8.0560   8.0653
     8.0794   8.0876   8.1048   8.1065   8.1164   8.1589   8.1759   8.2138
     8.2327   8.2397   8.2747   8.2931

          k = 0.0000 0.0000 0.0129 (147299 PWs)   bands (ev):

   -21.4230 -21.1913 -21.0676 -20.8838 -20.6769 -20.6583 -20.3985 -20.2926
   -20.1200 -20.0584 -19.8690 -19.7442 -19.6111 -19.4984 -19.3372 -19.2694
   -19.0984 -18.8950 -18.7462 -18.5503 -18.5052 -18.4452 -18.3798 -18.0544
   -18.0239 -17.8128 -17.6933 -17.6513 -17.5665 -17.4197 -17.2458 -17.1804
   -17.1019 -16.7571 -16.7426 -16.6737 -16.6311 -16.5751 -16.4207 -16.2632
   -16.2011 -16.0529 -15.8825 -15.7389 -15.5233 -15.2965 -14.8953 -14.8103
   -14.7241 -14.6946 -14.6664 -14.4297 -14.4018 -14.3060 -14.1980 -14.0267
   -14.0221 -13.6784 -13.6185 -13.5643 -13.4498 -13.3124 -13.3011 -13.1529
   -13.1253 -12.7300 -12.6963 -12.4317 -12.3170 -12.2519 -12.0914 -12.0620
   -11.9891 -11.9430 -11.8497 -11.6647 -11.5633 -11.3835 -11.3074 -11.2160
   -11.0372 -10.9483 -10.8513 -10.7964 -10.7230 -10.6118 -10.4884 -10.4368
   -10.3723 -10.2125 -10.1512 -10.1425 -10.0660  -9.8824  -9.8312  -9.8214
    -9.5801  -9.5542  -9.4969  -9.4529  -9.3701  -9.2819  -9.2613  -9.2209
    -9.2047  -9.1050  -9.0563  -8.9831  -8.9830  -8.8963  -8.8832  -8.8638
    -8.8145  -8.7082  -8.7039  -8.6519  -8.6384  -8.6317  -8.5788  -8.5217
    -8.5111  -8.4757  -8.4142  -8.3159  -8.3080  -8.2245  -8.2131  -8.1738
    -8.1421  -8.0809  -8.0457  -8.0171  -8.0099  -7.9339  -7.8774  -7.7780
    -7.7607  -7.6972  -7.5636  -7.5405  -7.4978  -7.4376  -7.3837  -7.3431
    -7.2846  -7.2733  -7.0848  -7.0651  -7.0448  -7.0356  -6.9718  -6.9337
    -6.9216  -6.8375  -6.8261  -6.6894  -6.6347  -6.4907  -6.4590  -6.3325
    -6.2702  -6.2475  -6.1637  -6.1632  -6.1234  -6.0852  -5.9546  -5.9205
    -5.8359  -5.7042  -5.6722  -5.4770  -5.4463  -5.4172  -5.3776  -5.3172
    -5.2415  -5.1093  -4.8844  -4.8186  -4.7636  -4.5832  -4.5723  -4.4440
    -4.4350  -4.2787  -4.2565  -4.0213  -3.8698  -3.5676  -3.4909  -3.4413
    -3.0042  -2.5728  -1.6371  -1.2368  -0.9638  -0.7882  -0.7785  -0.4230
    -0.3758  -0.2761  -0.1274  -0.0805  -0.0431   0.1024   0.1300   0.4782
     0.5158   0.5632   0.8094   0.9207   0.9317   0.9455   0.9900   1.0968
     1.1726   1.2328   1.2728   1.2844   1.5040   1.5191   1.5500   1.5953
     1.6085   1.6443   1.7992   1.8860   1.9051   1.9595   1.9798   2.0279
     2.1584   2.1777   2.2719   2.2773   2.2789   2.3471   2.4374   2.4586
     2.4615   2.5134   2.5529   2.5560   2.6213   2.7219   2.7416   2.7730
     2.8039   2.8144   2.8336   2.8784   2.8992   2.9562   2.9862   3.0389
     3.0606   3.0719   3.0816   3.1214   3.1792   3.2018   3.2865   3.3108
     3.3299   3.3803   3.4146   3.4429   3.4656   3.4741   3.5030   3.5210
     3.5732   3.5924   3.6260   3.6600   3.6634   3.7001   3.7419   3.7740
     3.8729   3.8852   3.8979   3.9358   3.9427   3.9519   3.9543   3.9980
     4.0127   4.0307   4.0733   4.0884   4.1173   4.1379   4.1974   4.2019
     4.2289   4.2622   4.3049   4.3185   4.3222   4.3614   4.3855   4.4023
     4.4061   4.4689   4.5336   4.5604   4.6352   4.6583   4.6820   4.6961
     4.6996   4.7162   4.7628   4.7669   4.7679   4.8042   4.8479   4.8988
     4.9017   4.9068   4.9397   5.0057   5.0074   5.0077   5.0142   5.0647
     5.0876   5.1098   5.1347   5.1545   5.1647   5.2162   5.2295   5.2600
     5.2881   5.3220   5.3319   5.3650   5.3691   5.4106   5.4260   5.4435
     5.4622   5.4689   5.5298   5.5476   5.5613   5.5794   5.5882   5.5892
     5.6151   5.6285   5.6527   5.6631   5.6795   5.6902   5.6983   5.7455
     5.7568   5.7952   5.8157   5.8267   5.8414   5.8630   5.8860   5.9481
     5.9578   6.0009   6.0018   6.0152   6.0212   6.0454   6.1224   6.1252
     6.1626   6.2105   6.2241   6.2346   6.2648   6.2731   6.2782   6.2809
     6.3006   6.3219   6.3274   6.3443   6.3467   6.3717   6.4083   6.4219
     6.4252   6.4326   6.4407   6.4772   6.4924   6.5096   6.5110   6.5363
     6.5455   6.5492   6.5572   6.6006   6.6168   6.6234   6.6425   6.6893
     6.6913   6.7064   6.7281   6.7300   6.7689   6.7729   6.7937   6.8144
     6.8199   6.8315   6.8378   6.8482   6.8564   6.8726   6.9193   6.9396
     6.9436   6.9614   6.9988   7.0155   7.0409   7.0487   7.0500   7.0885
     7.1219   7.1320   7.1405   7.1675   7.2057   7.2172   7.2409   7.2483
     7.2625   7.2905   7.2985   7.3103   7.3232   7.3328   7.3422   7.3831
     7.3982   7.4181   7.4421   7.4953   7.4963   7.4969   7.5319   7.5527
     7.5704   7.5733   7.5857   7.5873   7.6073   7.6499   7.6537   7.6648
     7.6928   7.7009   7.7367   7.7584   7.7815   7.7820   7.7977   7.8309
     7.8497   7.8575   7.8750   7.8889   7.8998   7.9222   7.9444   7.9845
     7.9866   7.9906   8.0055   8.0210   8.0506   8.0531   8.0551   8.0690
     8.0792   8.0934   8.1186   8.1279   8.1417   8.1512   8.1725   8.2082
     8.2089   8.2465   8.2664   8.2893

          k = 0.0000 0.0000 0.0141 (147253 PWs)   bands (ev):

   -21.4206 -21.2009 -21.0672 -20.8684 -20.6812 -20.6573 -20.3907 -20.3129
   -20.1174 -20.0615 -19.8790 -19.7382 -19.5909 -19.5051 -19.3388 -19.2642
   -19.0790 -18.8932 -18.7614 -18.5556 -18.5341 -18.4442 -18.3699 -18.0755
   -18.0238 -17.8093 -17.6870 -17.6163 -17.5585 -17.4232 -17.2636 -17.1660
   -17.1001 -16.7548 -16.7363 -16.6722 -16.6161 -16.5793 -16.4548 -16.2632
   -16.2039 -16.0381 -15.9044 -15.7620 -15.5116 -15.3283 -14.8556 -14.7985
   -14.7197 -14.6947 -14.6554 -14.4029 -14.3823 -14.2974 -14.2196 -14.0347
   -14.0227 -13.6631 -13.6132 -13.5617 -13.4837 -13.3460 -13.3069 -13.1952
   -13.1338 -12.7181 -12.7095 -12.4341 -12.3090 -12.2370 -12.0774 -12.0350
   -11.9907 -11.8945 -11.8231 -11.6618 -11.5801 -11.4039 -11.3137 -11.2391
   -11.0337 -10.9505 -10.8453 -10.8147 -10.7188 -10.6203 -10.4658 -10.4518
   -10.3676 -10.2128 -10.1697 -10.1439 -10.0658  -9.8784  -9.8348  -9.8240
    -9.5695  -9.5408  -9.4939  -9.4575  -9.3591  -9.3002  -9.2589  -9.2327
    -9.2100  -9.1044  -9.0545  -9.0135  -8.9968  -8.8754  -8.8686  -8.8458
    -8.8201  -8.7037  -8.6892  -8.6594  -8.6438  -8.6298  -8.5876  -8.5248
    -8.5166  -8.4763  -8.4190  -8.3061  -8.3041  -8.2018  -8.1956  -8.1892
    -8.1424  -8.0845  -8.0420  -8.0106  -8.0070  -7.9398  -7.8661  -7.7733
    -7.7584  -7.7091  -7.5590  -7.5434  -7.5072  -7.4506  -7.3595  -7.3586
    -7.2919  -7.2758  -7.0837  -7.0658  -7.0409  -7.0238  -6.9854  -6.9306
    -6.9295  -6.8316  -6.8074  -6.7029  -6.6304  -6.4942  -6.4692  -6.3295
    -6.2829  -6.2527  -6.1992  -6.1597  -6.1118  -6.0784  -5.9397  -5.9205
    -5.8204  -5.7032  -5.6947  -5.4714  -5.4510  -5.4266  -5.3755  -5.3108
    -5.2056  -5.1150  -4.8995  -4.8074  -4.7630  -4.5832  -4.5717  -4.4447
    -4.4422  -4.2725  -4.2560  -4.0175  -3.8698  -3.5464  -3.5024  -3.4571
    -2.9998  -2.6084  -1.6030  -1.2433  -0.9526  -0.7900  -0.7690  -0.4215
    -0.3739  -0.2589  -0.1248  -0.0806  -0.0574   0.0906   0.1250   0.4717
     0.5113   0.5810   0.8066   0.8913   0.9165   0.9358   0.9936   1.0830
     1.1649   1.2325   1.2608   1.2902   1.4907   1.5288   1.5543   1.5883
     1.6349   1.6580   1.8091   1.8819   1.8949   1.9643   1.9970   2.0329
     2.1479   2.1804   2.2855   2.2900   2.3248   2.3527   2.4417   2.4517
     2.4675   2.5195   2.5378   2.5539   2.6232   2.7128   2.7397   2.7675
     2.7847   2.8045   2.8320   2.8673   2.8987   2.9488   2.9877   3.0440
     3.0469   3.0935   3.0955   3.1145   3.1636   3.1885   3.2861   3.3236
     3.3383   3.3820   3.4055   3.4348   3.4573   3.4787   3.5102   3.5145
     3.5830   3.5898   3.6364   3.6555   3.6735   3.7212   3.7484   3.7899
     3.8785   3.8806   3.9037   3.9371   3.9418   3.9466   3.9714   4.0013
     4.0209   4.0282   4.0639   4.0885   4.1039   4.1163   4.1672   4.2202
     4.2351   4.2670   4.2870   4.2922   4.3316   4.3461   4.3640   4.3740
     4.4168   4.4749   4.5381   4.5858   4.6402   4.6407   4.6795   4.7067
     4.7129   4.7201   4.7365   4.7620   4.7706   4.8243   4.8322   4.8756
     4.9099   4.9216   4.9449   4.9864   4.9941   5.0410   5.0438   5.0509
     5.0683   5.1226   5.1393   5.1594   5.1743   5.2012   5.2287   5.2525
     5.3010   5.3223   5.3425   5.3516   5.3738   5.4132   5.4227   5.4459
     5.4519   5.4667   5.5246   5.5444   5.5507   5.5684   5.5733   5.5764
     5.6169   5.6515   5.6568   5.6644   5.6790   5.6942   5.7297   5.7467
     5.7809   5.7937   5.7986   5.8159   5.8605   5.8648   5.9112   5.9572
     5.9607   5.9802   5.9941   5.9968   6.0315   6.0318   6.1064   6.1204
     6.1743   6.2042   6.2115   6.2230   6.2619   6.2666   6.2837   6.2885
     6.2919   6.3195   6.3249   6.3323   6.3447   6.4052   6.4112   6.4358
     6.4398   6.4430   6.4455   6.4899   6.5114   6.5162   6.5301   6.5345
     6.5365   6.5619   6.5867   6.5986   6.6002   6.6122   6.6464   6.6619
     6.6914   6.6925   6.7147   6.7331   6.7337   6.7810   6.7842   6.8049
     6.8239   6.8271   6.8307   6.8519   6.8629   6.8769   6.9041   6.9222
     6.9517   6.9647   7.0053   7.0101   7.0441   7.0519   7.0540   7.0660
     7.1153   7.1357   7.1391   7.1668   7.1932   7.2247   7.2395   7.2618
     7.2721   7.2886   7.2911   7.3124   7.3205   7.3360   7.3440   7.3650
     7.3975   7.4332   7.4476   7.4902   7.4955   7.5147   7.5437   7.5757
     7.5780   7.5805   7.5812   7.5954   7.6122   7.6425   7.6606   7.6631
     7.6747   7.6902   7.7389   7.7549   7.7600   7.8096   7.8140   7.8224
     7.8557   7.8589   7.8753   7.8885   7.9253   7.9257   7.9566   7.9592
     7.9966   8.0069   8.0089   8.0406   8.0541   8.0554   8.0601   8.0619
     8.0666   8.1168   8.1271   8.1588   8.1631   8.1637   8.1713   8.1846
     8.2080   8.2086   8.2797   8.2828

          k = 0.0000 0.0000 0.0153 (147267 PWs)   bands (ev):

   -21.4180 -21.2102 -21.0667 -20.8529 -20.6854 -20.6561 -20.3830 -20.3337
   -20.1145 -20.0641 -19.8896 -19.7334 -19.5702 -19.5112 -19.3401 -19.2584
   -19.0599 -18.8910 -18.7781 -18.5615 -18.5608 -18.4431 -18.3604 -18.0960
   -18.0237 -17.8060 -17.6812 -17.5916 -17.5393 -17.4270 -17.2813 -17.1524
   -17.0974 -16.7521 -16.7310 -16.6715 -16.6025 -16.5812 -16.4899 -16.2626
   -16.2064 -16.0219 -15.9280 -15.7833 -15.5006 -15.3604 -14.8158 -14.7868
   -14.7154 -14.6953 -14.6431 -14.3761 -14.3682 -14.2856 -14.2366 -14.0429
   -14.0224 -13.6500 -13.6100 -13.5581 -13.5186 -13.3896 -13.3032 -13.2354
   -13.1409 -12.7402 -12.6894 -12.4366 -12.3013 -12.2219 -12.0668 -12.0126
   -11.9886 -11.8434 -11.7955 -11.6587 -11.5953 -11.4253 -11.3215 -11.2606
   -11.0309 -10.9515 -10.8391 -10.8345 -10.7151 -10.6294 -10.4740 -10.4460
   -10.3598 -10.2230 -10.1895 -10.1354 -10.0547  -9.8743  -9.8389  -9.8267
    -9.5592  -9.5338  -9.4907  -9.4581  -9.3475  -9.3191  -9.2594  -9.2441
    -9.2142  -9.1038  -9.0537  -9.0410  -9.0083  -8.8614  -8.8544  -8.8280
    -8.8258  -8.7035  -8.6712  -8.6594  -8.6491  -8.6276  -8.5969  -8.5276
    -8.5223  -8.4774  -8.4241  -8.3003  -8.2964  -8.2183  -8.1806  -8.1652
    -8.1429  -8.0887  -8.0380  -8.0038  -8.0037  -7.9447  -7.8548  -7.7681
    -7.7554  -7.7217  -7.5551  -7.5464  -7.5164  -7.4692  -7.3689  -7.3356
    -7.2986  -7.2795  -7.0836  -7.0670  -7.0346  -7.0126  -7.0008  -6.9384
    -6.9245  -6.8264  -6.7897  -6.7138  -6.6251  -6.5000  -6.4804  -6.3266
    -6.2935  -6.2583  -6.2337  -6.1555  -6.1029  -6.0719  -5.9227  -5.9210
    -5.8050  -5.7173  -5.7022  -5.4655  -5.4560  -5.4367  -5.3734  -5.3069
    -5.1672  -5.1203  -4.9152  -4.7973  -4.7622  -4.5832  -4.5711  -4.4501
    -4.4453  -4.2893  -4.2319  -4.0139  -3.8699  -3.5238  -3.5188  -3.4694
    -2.9954  -2.6440  -1.5691  -1.2496  -0.9424  -0.8026  -0.7478  -0.4210
    -0.3729  -0.2379  -0.1222  -0.0808  -0.0725   0.0797   0.1187   0.4644
     0.5077   0.5978   0.8058   0.8383   0.9116   0.9401   0.9973   1.0691
     1.1560   1.2340   1.2492   1.2966   1.4770   1.5389   1.5585   1.5811
     1.6608   1.6716   1.8189   1.8767   1.8860   1.9677   2.0167   2.0358
     2.1358   2.1822   2.3017   2.3030   2.3558   2.3681   2.4465   2.4484
     2.4746   2.5229   2.5256   2.5514   2.6257   2.7049   2.7393   2.7422
     2.7842   2.7949   2.8320   2.8538   2.8966   2.9409   2.9943   3.0339
     3.0444   3.1085   3.1125   3.1132   3.1513   3.1741   3.2831   3.3351
     3.3493   3.3826   3.3975   3.4246   3.4406   3.4875   3.5112   3.5196
     3.5831   3.5933   3.6445   3.6526   3.6847   3.7238   3.7717   3.8058
[...]
    -7.3300  -7.1945  -7.1510  -7.1050  -7.0820  -7.0135  -6.9360  -6.8634
    -6.8132  -6.8017  -6.7377  -6.7080  -6.6777  -6.6301  -6.5315  -6.4116
    -6.3177  -6.3174  -6.3071  -6.1135  -6.0804  -6.0327  -5.9284  -5.8853
    -5.7507  -5.6985  -5.6958  -5.5448  -5.5033  -5.4164  -5.3587  -5.2827
    -5.1511  -5.0396  -4.8212  -4.7682  -4.7357  -4.6161  -4.5758  -4.5660
    -4.4485  -4.3961  -3.9953  -3.9669  -3.8705  -3.7714  -3.5084  -3.3044
    -2.9672  -2.9285  -1.3105  -1.2863  -0.9438  -0.8918  -0.5025  -0.4281
    -0.3787  -0.2674  -0.0885  -0.0861  -0.0072   0.0394   0.0981   0.3554
     0.4182   0.4944   0.7639   0.8396   0.8623   0.9443   0.9873   1.0330
     1.0737   1.1702   1.2743   1.3561   1.3778   1.5218   1.5892   1.6047
     1.7338   1.8070   1.8555   1.9033   1.9374   1.9761   1.9853   1.9984
     2.1315   2.2393   2.3355   2.3792   2.3798   2.4894   2.4909   2.5210
     2.5265   2.5378   2.5438   2.5596   2.5894   2.5901   2.6850   2.7021
     2.7142   2.8248   2.8385   2.8507   2.8739   2.9242   2.9420   3.0136
     3.0289   3.1193   3.1223   3.1350   3.2225   3.2427   3.2441   3.2976
     3.3060   3.3444   3.3490   3.4198   3.4644   3.5220   3.5448   3.5477
     3.5738   3.5902   3.6207   3.6819   3.6980   3.7528   3.8033   3.8143
     3.8271   3.8308   3.8493   3.8670   3.9076   4.0116   4.0291   4.0334
     4.0403   4.0489   4.1002   4.1127   4.1482   4.1497   4.1824   4.1963
     4.2092   4.2324   4.2548   4.2636   4.2930   4.3280   4.3469   4.4284
     4.4400   4.4553   4.4717   4.4928   4.5192   4.5687   4.5804   4.6145
     4.6743   4.6836   4.7169   4.7612   4.7972   4.8479   4.8691   4.8895
     4.9211   4.9470   4.9516   4.9774   5.0167   5.0336   5.0724   5.1157
     5.1310   5.1340   5.1517   5.1817   5.1860   5.1955   5.2542   5.2649
     5.2778   5.3182   5.3460   5.3524   5.3620   5.3808   5.3840   5.3943
     5.4482   5.4865   5.5232   5.5370   5.5387   5.5560   5.5730   5.5862
     5.6537   5.6724   5.6935   5.7180   5.7325   5.7472   5.7704   5.7873
     5.7980   5.8007   5.8093   5.8257   5.8541   5.8920   5.8976   5.9328
     5.9493   6.0236   6.0611   6.0638   6.0694   6.0742   6.1025   6.1148
     6.1291   6.1347   6.1406   6.1472   6.1678   6.2066   6.2230   6.2483
     6.2619   6.2835   6.3250   6.3273   6.3314   6.3473   6.3946   6.4190
     6.4416   6.4446   6.4548   6.4578   6.4815   6.4956   6.5019   6.5064
     6.5282   6.5509   6.5713   6.6071   6.6208   6.6733   6.6749   6.6813
     6.6847   6.7358   6.7461   6.7533   6.7562   6.7892   6.8187   6.8271
     6.8277   6.8416   6.8694   6.8895   6.9073   6.9083   6.9184   6.9341
     6.9386   6.9512   7.0078   7.0334   7.0773   7.0802   7.0967   7.1000
     7.1193   7.1276   7.1450   7.1529   7.1685   7.1838   7.2409   7.2551
     7.2587   7.2923   7.3097   7.3101   7.3107   7.3190   7.3533   7.3644
     7.4011   7.4250   7.4522   7.4671   7.4990   7.4995   7.5093   7.5405
     7.5541   7.5565   7.5831   7.6265   7.6505   7.6571   7.6757   7.6809
     7.6910   7.7113   7.7163   7.7253   7.7565   7.7730   7.7844   7.7906
     7.8327   7.8744   7.9215   7.9226   7.9491   7.9505   7.9627   7.9784
     8.0267   8.0289   8.0317   8.0445   8.0447   8.0560   8.0677   8.0888
     8.0966   8.1681   8.1721   8.2163   8.2174   8.2198   8.2401   8.2880
     8.2900   8.2925   8.3034   8.3342

          k = 0.0000 0.0000 0.0270 (147192 PWs)   bands (ev):

   -21.3929 -21.2734 -21.0632 -20.7342 -20.7118 -20.6003 -20.5351 -20.3287
   -20.0756 -20.0642 -19.9973 -19.7125 -19.5417 -19.4299 -19.3384 -19.1229
   -19.0208 -18.9476 -18.8210 -18.6928 -18.6439 -18.4327 -18.2991 -18.2299
   -18.0229 -17.7814 -17.6452 -17.5476 -17.4597 -17.4168 -17.1232 -17.1129
   -17.0244 -16.9422 -16.7060 -16.7026 -16.6610 -16.6165 -16.3637 -16.2493
   -16.2259 -16.2218 -15.8877 -15.7929 -15.6751 -15.4361 -14.7201 -14.7080
   -14.6371 -14.6209 -14.4654 -14.3288 -14.3271 -14.2228 -14.0508 -13.9919
   -13.9547 -13.9062 -13.7352 -13.6954 -13.6034 -13.5248 -13.5064 -13.1861
   -13.1799 -12.9284 -12.5454 -12.4641 -12.2474 -12.0956 -12.0319 -12.0069
   -11.7994 -11.7429 -11.6244 -11.6196 -11.5571 -11.4351 -11.3770 -11.2292
   -11.0404 -11.0260 -10.9772 -10.9388 -10.7952 -10.6907 -10.6425 -10.4116
   -10.3171 -10.2649 -10.2005  -9.9774  -9.8989  -9.8751  -9.8156  -9.8024
    -9.6914  -9.5029  -9.4598  -9.4595  -9.4371  -9.3577  -9.3214  -9.2261
    -9.2122  -9.1477  -9.0995  -9.0421  -9.0366  -8.9121  -8.8426  -8.7576
    -8.7148  -8.7128  -8.7084  -8.6823  -8.6821  -8.5517  -8.5431  -8.5380
    -8.5213  -8.4507  -8.4484  -8.2932  -8.2732  -8.2288  -8.1921  -8.1633
    -8.0636  -8.0202  -7.9896  -7.9656  -7.9491  -7.9042  -7.8466  -7.8117
    -7.7334  -7.6717  -7.6579  -7.6145  -7.5888  -7.5342  -7.3683  -7.3332
    -7.3320  -7.1891  -7.1601  -7.1070  -7.0830  -7.0151  -6.9352  -6.8344
    -6.8134  -6.7872  -6.7373  -6.7086  -6.7061  -6.6446  -6.5234  -6.4162
    -6.3225  -6.3171  -6.3063  -6.1103  -6.0802  -6.0311  -5.9288  -5.8941
    -5.7386  -5.6955  -5.6932  -5.5539  -5.5064  -5.4139  -5.3580  -5.2807
    -5.1524  -5.0464  -4.7869  -4.7680  -4.7340  -4.6422  -4.5780  -4.5657
    -4.4486  -4.3991  -3.9947  -3.9346  -3.8705  -3.8036  -3.5096  -3.2878
    -2.9660  -2.9472  -1.2951  -1.2878  -0.9549  -0.8900  -0.4779  -0.4285
    -0.3792  -0.2896  -0.0862  -0.0861  -0.0038   0.0343   0.1342   0.3084
     0.4167   0.4940   0.7775   0.8286   0.8720   0.9323   0.9914   1.0353
     1.0681   1.1663   1.2781   1.3598   1.3719   1.5183   1.5908   1.6078
     1.7338   1.8040   1.8694   1.9160   1.9452   1.9761   1.9762   1.9828
     2.1260   2.2629   2.3347   2.3602   2.3825   2.4937   2.5006   2.5099
     2.5270   2.5434   2.5544   2.5621   2.5826   2.6005   2.6865   2.6900
     2.7054   2.8275   2.8360   2.8421   2.8792   2.9163   2.9404   3.0238
     3.0474   3.1128   3.1326   3.1373   3.1979   3.2459   3.2610   3.2923
     3.2998   3.3442   3.3638   3.4049   3.4500   3.5321   3.5441   3.5643
     3.5702   3.6011   3.6094   3.6760   3.6769   3.7587   3.7915   3.8124
     3.8221   3.8222   3.8673   3.8900   3.9072   3.9829   4.0109   4.0330
     4.0439   4.0478   4.1049   4.1180   4.1540   4.1585   4.1913   4.2001
     4.2375   4.2410   4.2773   4.2811   4.2941   4.3112   4.3718   4.4065
     4.4070   4.4340   4.4376   4.4743   4.5313   4.5714   4.5773   4.6450
     4.6592   4.6846   4.7101   4.7577   4.7960   4.8402   4.8596   4.8983
     4.9461   4.9557   4.9647   4.9716   5.0208   5.0276   5.0788   5.1060
     5.1219   5.1288   5.1497   5.1790   5.1841   5.1960   5.2575   5.2630
     5.2810   5.3175   5.3396   5.3430   5.3573   5.3813   5.3855   5.3957
     5.4447   5.5201   5.5238   5.5355   5.5708   5.5719   5.5719   5.5861
     5.6532   5.6744   5.6888   5.7009   5.7104   5.7320   5.7605   5.7649
     5.7859   5.7920   5.8496   5.8582   5.8636   5.8915   5.8955   5.9417
     5.9443   6.0117   6.0492   6.0497   6.0700   6.0973   6.1044   6.1159
     6.1323   6.1399   6.1414   6.1483   6.1547   6.2157   6.2365   6.2390
     6.2653   6.2716   6.3256   6.3337   6.3341   6.3475   6.3986   6.4181
     6.4212   6.4401   6.4416   6.4466   6.4698   6.4795   6.4861   6.5146
     6.5538   6.5559   6.5744   6.6059   6.6207   6.6730   6.6741   6.6761
     6.6878   6.7327   6.7380   6.7440   6.7485   6.7956   6.8123   6.8223
     6.8456   6.8477   6.8685   6.9065   6.9160   6.9216   6.9220   6.9489
     6.9500   6.9510   7.0292   7.0343   7.0573   7.0737   7.0773   7.1057
     7.1216   7.1304   7.1345   7.1751   7.1820   7.1889   7.2432   7.2441
     7.2785   7.2907   7.2972   7.3015   7.3193   7.3214   7.3472   7.3626
     7.3959   7.4203   7.4457   7.4665   7.4975   7.5065   7.5196   7.5198
     7.5429   7.5544   7.5702   7.6175   7.6395   7.6475   7.6765   7.6811
     7.6863   7.6940   7.7116   7.7393   7.7534   7.7807   7.7919   7.8125
     7.8408   7.8902   7.9336   7.9368   7.9501   7.9607   7.9646   7.9852
     8.0203   8.0207   8.0241   8.0279   8.0520   8.0600   8.0708   8.0870
     8.0915   8.1527   8.1691   8.2175   8.2198   8.2255   8.2380   8.2678
     8.2939   8.2960   8.3128   8.3363

          k = 0.0000 0.0000 0.0282 (147224 PWs)   bands (ev):

   -21.3920 -21.2751 -21.0631 -20.7311 -20.7124 -20.5871 -20.5520 -20.3273
   -20.0758 -20.0600 -20.0031 -19.7121 -19.5423 -19.4272 -19.3379 -19.0995
   -19.0471 -18.9460 -18.8157 -18.6950 -18.6485 -18.4324 -18.2976 -18.2332
   -18.0229 -17.7806 -17.6443 -17.5460 -17.4607 -17.4211 -17.1127 -17.0820
   -17.0219 -16.9828 -16.7058 -16.6974 -16.6669 -16.6163 -16.3412 -16.2486
   -16.2462 -16.2267 -15.8897 -15.7659 -15.7039 -15.4346 -14.7194 -14.7082
   -14.6309 -14.6189 -14.4734 -14.3290 -14.2987 -14.2267 -14.0497 -13.9970
   -13.9664 -13.8730 -13.7468 -13.7288 -13.6039 -13.5241 -13.5048 -13.1809
   -13.1809 -12.9354 -12.5409 -12.4657 -12.2459 -12.0912 -12.0331 -12.0057
   -11.7934 -11.7445 -11.6267 -11.6202 -11.5558 -11.4287 -11.3868 -11.1723
   -11.0681 -11.0329 -11.0052 -10.9384 -10.7941 -10.6922 -10.6416 -10.4116
   -10.3194 -10.2663 -10.1963  -9.9567  -9.9142  -9.8761  -9.8127  -9.7901
    -9.7005  -9.5033  -9.4631  -9.4584  -9.4472  -9.3550  -9.3235  -9.2215
    -9.2113  -9.1481  -9.0994  -9.0419  -9.0367  -8.9150  -8.8434  -8.7549
    -8.7157  -8.7144  -8.7061  -8.6842  -8.6831  -8.5520  -8.5407  -8.5256
    -8.5217  -8.4700  -8.4486  -8.2725  -8.2638  -8.2271  -8.2132  -8.1640
    -8.0612  -8.0188  -7.9867  -7.9659  -7.9452  -7.8954  -7.8523  -7.8160
    -7.7424  -7.6597  -7.6522  -7.6257  -7.5925  -7.5337  -7.3671  -7.3352
    -7.3327  -7.1858  -7.1658  -7.1083  -7.0837  -7.0161  -6.9347  -6.8136
    -6.8048  -6.7767  -6.7394  -6.7370  -6.7050  -6.6550  -6.5182  -6.4190
    -6.3256  -6.3169  -6.3057  -6.1083  -6.0801  -6.0302  -5.9290  -5.8996
    -5.7307  -5.6953  -5.6899  -5.5601  -5.5083  -5.4123  -5.3576  -5.2794
    -5.1531  -5.0507  -4.7679  -4.7564  -4.7329  -4.6684  -4.5788  -4.5655
    -4.4487  -4.4008  -3.9944  -3.9022  -3.8705  -3.8358  -3.5104  -3.2769
    -2.9653  -2.9595  -1.2887  -1.2852  -0.9622  -0.8890  -0.4594  -0.4287
    -0.3795  -0.3066  -0.0861  -0.0847  -0.0026   0.0311   0.1742   0.2627
     0.4159   0.4938   0.7904   0.8173   0.8805   0.9225   0.9943   1.0368
     1.0644   1.1638   1.2806   1.3621   1.3682   1.5161   1.5919   1.6096
     1.7336   1.8022   1.8793   1.9286   1.9503   1.9686   1.9692   1.9761
     2.1221   2.2860   2.3294   2.3449   2.3842   2.4955   2.5032   2.5063
     2.5287   2.5482   2.5619   2.5634   2.5766   2.6087   2.6816   2.6877
     2.6986   2.8293   2.8346   2.8362   2.8831   2.9113   2.9372   3.0207
     3.0794   3.1087   3.1389   3.1395   3.1731   3.2482   3.2752   3.2890
     3.2942   3.3410   3.3839   3.3913   3.4335   3.5438   3.5462   3.5566
     3.5908   3.5932   3.6086   3.6557   3.6797   3.7631   3.7826   3.8026
     3.8160   3.8242   3.8910   3.9071   3.9115   3.9555   3.9887   4.0354
     4.0458   4.0489   4.1000   4.1313   4.1540   4.1652   4.1972   4.1974
     4.2467   4.2693   4.2876   4.2917   4.3089   4.3112   4.3770   4.3907
     4.3927   4.3954   4.4238   4.4539   4.5403   4.5665   4.5905   4.6413
     4.6653   4.6915   4.7072   4.7526   4.7957   4.8170   4.8692   4.9038
     4.9582   4.9642   4.9664   4.9776   5.0128   5.0384   5.0751   5.0957
     5.1119   5.1277   5.1622   5.1772   5.1832   5.1961   5.2310   5.2703
     5.2921   5.3214   5.3299   5.3413   5.3538   5.3811   5.3890   5.3969
     5.4418   5.5182   5.5336   5.5575   5.5621   5.5744   5.5998   5.6116
     5.6509   5.6749   5.6768   5.6804   5.6866   5.7318   5.7330   5.7554
     5.7798   5.7938   5.8699   5.8848   5.8908   5.8919   5.8963   5.9352
     5.9509   5.9929   6.0193   6.0352   6.0748   6.1033   6.1178   6.1275
     6.1356   6.1362   6.1396   6.1549   6.1640   6.2084   6.2172   6.2318
     6.2676   6.3014   6.3264   6.3378   6.3472   6.3529   6.3799   6.4009
     6.4180   6.4220   6.4380   6.4401   6.4596   6.4782   6.4798   6.5216
     6.5559   6.5759   6.5807   6.6039   6.6212   6.6690   6.6706   6.6776
     6.6903   6.7108   6.7400   6.7425   6.7430   6.7996   6.8030   6.8270
     6.8518   6.8551   6.8689   6.9041   6.9231   6.9359   6.9404   6.9501
     6.9600   6.9601   7.0199   7.0351   7.0563   7.0683   7.0746   7.1040
     7.1189   7.1239   7.1383   7.1614   7.1922   7.2079   7.2476   7.2507
     7.2755   7.2907   7.2984   7.3018   7.3228   7.3359   7.3405   7.3669
     7.3714   7.4108   7.4446   7.4563   7.4996   7.5112   7.5167   7.5293
     7.5367   7.5543   7.5627   7.6034   7.6244   7.6447   7.6724   7.6735
     7.6832   7.6950   7.7172   7.7493   7.7520   7.7738   7.7876   7.8485
     7.8549   7.8983   7.9340   7.9394   7.9465   7.9491   7.9718   8.0014
     8.0039   8.0255   8.0274   8.0363   8.0524   8.0613   8.0750   8.0845
     8.0862   8.1307   8.1769   8.2099   8.2127   8.2136   8.2284   8.2711
     8.3073   8.3112   8.3155   8.3242

          k = 0.0000 0.0000-0.0293 (147164 PWs)   bands (ev):

   -21.3916 -21.2757 -21.0631 -20.7301 -20.7126 -20.5773 -20.5630 -20.3269
   -20.0759 -20.0583 -20.0053 -19.7120 -19.5425 -19.4263 -19.3377 -19.0799
   -19.0678 -18.9454 -18.8138 -18.6958 -18.6502 -18.4322 -18.2971 -18.2343
   -18.0228 -17.7804 -17.6440 -17.5454 -17.4610 -17.4225 -17.1126 -17.0556
   -17.0210 -17.0091 -16.7057 -16.6950 -16.6694 -16.6162 -16.3304 -16.2576
   -16.2484 -16.2269 -15.8903 -15.7461 -15.7242 -15.4342 -14.7191 -14.7082
   -14.6287 -14.6182 -14.4762 -14.3290 -14.2868 -14.2298 -14.0494 -14.0020
   -13.9674 -13.8576 -13.7509 -13.7443 -13.6040 -13.5238 -13.5043 -13.1812
   -13.1791 -12.9378 -12.5393 -12.4663 -12.2454 -12.0897 -12.0334 -12.0053
   -11.7913 -11.7450 -11.6291 -11.6187 -11.5559 -11.4247 -11.3916 -11.1209
   -11.1131 -11.0352 -11.0112 -10.9382 -10.7938 -10.6927 -10.6413 -10.4117
   -10.3202 -10.2667 -10.1949  -9.9429  -9.9261  -9.8764  -9.8117  -9.7858
    -9.7036  -9.5037  -9.4642  -9.4580  -9.4506  -9.3541  -9.3242  -9.2200
    -9.2109  -9.1483  -9.0993  -9.0419  -9.0367  -8.9159  -8.8437  -8.7540
    -8.7160  -8.7150  -8.7053  -8.6849  -8.6833  -8.5521  -8.5394  -8.5275
    -8.5121  -8.4806  -8.4487  -8.2723  -8.2389  -8.2352  -8.2265  -8.1642
    -8.0604  -8.0183  -7.9857  -7.9661  -7.9437  -7.8919  -7.8544  -7.8181
    -7.7454  -7.6530  -7.6500  -7.6321  -7.5940  -7.5336  -7.3667  -7.3359
    -7.3329  -7.1848  -7.1677  -7.1088  -7.0839  -7.0165  -6.9345  -6.8137
    -6.7820  -6.7727  -6.7626  -6.7369  -6.7046  -6.6590  -6.5165  -6.4198
    -6.3267  -6.3168  -6.3056  -6.1076  -6.0800  -6.0299  -5.9291  -5.9014
    -5.7279  -5.6952  -5.6888  -5.5623  -5.5090  -5.4118  -5.3574  -5.2789
    -5.1534  -5.0521  -4.7678  -4.7404  -4.7326  -4.6830  -4.5790  -4.5655
    -4.4487  -4.4014  -3.9942  -3.8751  -3.8705  -3.8629  -3.5106  -3.2730
    -2.9651  -2.9637  -1.2890  -1.2818  -0.9647  -0.8887  -0.4522  -0.4288
    -0.3796  -0.3133  -0.0861  -0.0842  -0.0023   0.0300   0.2104   0.2247
     0.4156   0.4937   0.7993   0.8088   0.8845   0.9181   0.9953   1.0373
     1.0631   1.1630   1.2815   1.3628   1.3669   1.5154   1.5922   1.6103
     1.7335   1.8016   1.8830   1.9358   1.9520   1.9609   1.9665   1.9761
     2.1207   2.3025   2.3174   2.3413   2.3847   2.4962   2.5010   2.5079
     2.5297   2.5503   2.5639   2.5647   2.5740   2.6119   2.6786   2.6882
     2.6960   2.8298   2.8341   2.8342   2.8846   2.9095   2.9359   3.0196
     3.0959   3.1073   3.1394   3.1420   3.1593   3.2491   3.2811   3.2878
     3.2921   3.3400   3.3855   3.3961   3.4224   3.5498   3.5506   3.5512
     3.5844   3.6016   3.6113   3.6449   3.6815   3.7649   3.7792   3.7991
     3.8138   3.8245   3.9070   3.9074   3.9226   3.9382   3.9774   4.0362
     4.0464   4.0494   4.0983   4.1364   4.1536   4.1680   4.1955   4.1988
     4.2510   4.2836   4.2848   4.2920   4.3123   4.3482   4.3522   4.3637
     4.3847   4.4096   4.4183   4.4406   4.5432   4.5650   4.5999   4.6303
     4.6700   4.6996   4.7064   4.7487   4.7956   4.8075   4.8731   4.9057
     4.9591   4.9640   4.9710   4.9824   5.0101   5.0485   5.0632   5.0952
     5.1080   5.1273   5.1725   5.1765   5.1830   5.1961   5.2163   5.2734
     5.2961   5.3229   5.3261   5.3407   5.3524   5.3810   5.3908   5.3973
     5.4407   5.5176   5.5325   5.5587   5.5746   5.5750   5.6134   5.6305
     5.6432   5.6598   5.6699   5.6750   5.6859   5.7187   5.7317   5.7534
     5.7780   5.7943   5.8719   5.8910   5.8975   5.9016   5.9108   5.9324
     5.9485   5.9831   6.0035   6.0300   6.0763   6.1134   6.1157   6.1184
     6.1340   6.1356   6.1628   6.1652   6.1730   6.1759   6.2160   6.2290
     6.2684   6.3267   6.3314   6.3392   6.3400   6.3557   6.3791   6.3874
     6.4017   6.4221   6.4374   6.4395   6.4582   6.4776   6.4778   6.5244
     6.5567   6.5763   6.5951   6.5994   6.6215   6.6679   6.6696   6.6781
     6.6914   6.7001   6.7407   6.7409   6.7420   6.7998   6.8009   6.8289
     6.8533   6.8574   6.8696   6.9034   6.9232   6.9464   6.9467   6.9486
     6.9628   6.9788   6.9911   7.0353   7.0663   7.0693   7.0856   7.0892
     7.1144   7.1256   7.1395   7.1530   7.1960   7.2113   7.2511   7.2592
     7.2683   7.2870   7.3110   7.3171   7.3173   7.3371   7.3435   7.3453
     7.3709   7.4055   7.4446   7.4519   7.5025   7.5110   7.5213   7.5228
     7.5439   7.5543   7.5603   7.5950   7.6177   7.6437   7.6708   7.6728
     7.6787   7.6985   7.7203   7.7473   7.7609   7.7668   7.7849   7.8523
     7.8928   7.8996   7.9052   7.9298   7.9487   7.9537   7.9774   7.9953
     8.0070   8.0272   8.0409   8.0420   8.0585   8.0590   8.0647   8.0851
     8.0900   8.1147   8.1869   8.1989   8.2006   8.2116   8.2288   8.2777
     8.3146   8.3169   8.3194   8.3252

     the Fermi energy is    -2.2034 ev

     Writing output data file ls1.save/

     init_run     :     21.94s CPU     22.95s WALL (       1 calls)
     electrons    :  11893.66s CPU  12038.84s WALL (       1 calls)

     Called by init_run:
     wfcinit      :      0.00s CPU      0.01s WALL (       1 calls)
     potinit      :      1.37s CPU      1.51s WALL (       1 calls)
     hinit0       :     16.30s CPU     16.43s WALL (       1 calls)

     Called by electrons:
     c_bands      :  11893.64s CPU  12038.49s WALL (       1 calls)
     v_of_rho     :      1.05s CPU      1.12s WALL (       1 calls)
     newd         :      1.06s CPU      1.51s WALL (       1 calls)

     Called by c_bands:
     init_us_2    :      1.53s CPU      1.76s WALL (      26 calls)
     cegterg      :  11608.85s CPU  11739.25s WALL (      77 calls)

     Called by sum_band:

     Called by *egterg:
     h_psi        :   4223.89s CPU   4288.59s WALL (    1188 calls)
     s_psi        :    548.97s CPU    551.87s WALL (    1188 calls)
     g_psi        :     19.21s CPU     19.40s WALL (    1085 calls)
     cdiaghg      :   3281.19s CPU   3294.27s WALL (    1111 calls)

     Called by h_psi:
     h_psi:pot    :   4201.73s CPU   4257.90s WALL (    1188 calls)
     h_psi:calbec :    507.70s CPU    514.52s WALL (    1188 calls)
     vloc_psi     :   3147.94s CPU   3194.15s WALL (    1188 calls)
     add_vuspsi   :    546.07s CPU    549.16s WALL (    1188 calls)

     General routines
     calbec       :    507.70s CPU    514.43s WALL (    1188 calls)
     fft          :      1.04s CPU      1.14s WALL (      14 calls)
     ffts         :      0.01s CPU      0.01s WALL (       1 calls)
     fftw         :   2485.27s CPU   2520.86s WALL (  566332 calls)
     interpolate  :      0.07s CPU      0.08s WALL (       1 calls)
     davcio       :      0.00s CPU      9.97s WALL (      52 calls)

     Parallel routines
     fft_scatt_xy :    527.15s CPU    534.45s WALL (  566347 calls)
     fft_scatt_yz :    384.89s CPU    395.58s WALL (  566347 calls)

     PWSCF        :     3h18m CPU       18h 3m WALL

      27h

   This run was terminated on:   7:54: 8  16Apr2021            

=------------------------------------------------------------------------------=
   JOB DONE.
=------------------------------------------------------------------------------=
