
     Program PWSCF v.6.3 starts on 19Apr2021 at 21:28:12 

     This program is part of the open-source Quantum ESPRESSO suite
     for quantum simulation of materials; please cite
         "P. Giannozzi et al., J. Phys.:Condens. Matter 21 395502 (2009);
         "P. Giannozzi et al., J. Phys.:Condens. Matter 29 465901 (2017);
          URL http://www.quantum-espresso.org", 
     in publications or presentations arising from this work. More details at
     http://www.quantum-espresso.org/quote

     Parallel version (MPI), running on    16 processors
     R & G space division:  proc/nbgrp/npool/nimage =      16
     Waiting for input...
     Reading input from standard input
     Message from routine read_cards :
     DEPRECATED: no units specified in CELL_PARAMETERS card

     Current dimensions of program PWSCF are:
     Max number of different atomic species (ntypx) = 10
     Max number of k-points (npk) =  40000
     Max angular momentum in pseudopotentials (lmaxx) =  3

     Atomic positions and unit cell read from directory:
     /home/zfwang/scratch/GNRDATASET/AGNR/F7/F7.save/


     Subspace diagonalization in iterative solution of the eigenvalue problem:
     a serial algorithm will be used


     Parallelization info
     --------------------
     sticks:   dense  smooth     PW     G-vecs:    dense   smooth      PW
     Min        1658     553    156                62113    11954    1786
     Max        1660     555    157                62114    11955    1787
     Sum       26547    8857   2503               993815   191277   28583



     bravais-lattice index     =            0
     lattice parameter (alat)  =       1.8897  a.u.
     unit-cell volume          =    5597.2171 (a.u.)^3
     number of atoms/cell      =           18
     number of atomic types    =            2
     number of electrons       =        84.00
     number of Kohn-Sham states=          500
     kinetic-energy cutoff     =      40.0000  Ry
     charge density cutoff     =     480.0000  Ry
     Exchange-correlation      = PBE ( 1  4  3  4 0 0)

     celldm(1)=  18.897261  celldm(2)=   1.947000  celldm(3)=   0.426000
     celldm(4)=   0.000000  celldm(5)=   0.000000  celldm(6)=   0.000000

     crystal axes: (cart. coord. in units of alat)
               a(1) = (  10.000000   0.000000   0.000000 )  
               a(2) = (   0.000000  19.470000   0.000000 )  
               a(3) = (   0.000000   0.000000   4.260000 )  

     reciprocal axes: (cart. coord. in units 2 pi/alat)
               b(1) = (  0.100000  0.000000  0.000000 )  
               b(2) = (  0.000000  0.051361  0.000000 )  
               b(3) = (  0.000000  0.000000  0.234742 )  


     PseudoPot. # 1 for C  read from file:
     /home/zfwang/hp_home/MySoftware/qe-6.3/pseudo/C.pbe-n-rrkjus_psl.0.1.UPF
     MD5 check sum: fff530ed632a789b3b184014e67dd7f1
     Pseudo is Ultrasoft + core correction, Zval =  4.0
     Generated using "atomic" code by A. Dal Corso v.5.0.2 svn rev. 9415
     Using radial grid of 1073 points,  4 beta functions with: 
                l(1) =   0
                l(2) =   0
                l(3) =   1
                l(4) =   1
     Q(r) pseudized with 0 coefficients 


     PseudoPot. # 2 for F  read from file:
     /home/zfwang/hp_home/MySoftware/qe-6.3/pseudo/F.pbe-n-rrkjus_psl.0.1.UPF
     MD5 check sum: 147397eca92fbb10e5415488e6f13084
     Pseudo is Ultrasoft + core correction, Zval =  7.0
     Generated using "atomic" code by A. Dal Corso v.5.0.2 svn rev. 9415
     Using radial grid of 1105 points,  4 beta functions with: 
                l(1) =   0
                l(2) =   0
                l(3) =   1
                l(4) =   1
     Q(r) pseudized with 0 coefficients 


     atomic species   valence    mass     pseudopotential
        C              4.00    12.01070     C ( 1.00)
        F              7.00    18.99840     F ( 1.00)

     No symmetry found



   Cartesian axes

     site n.     atom                  positions (alat units)
         1           C   tau(   1) = (   5.0000030   6.0965724   2.8042416  )
         2           C   tau(   2) = (   5.0000001   7.2729250   3.5545734  )
         3           C   tau(   3) = (   4.9999959   6.0965736   1.4557587  )
         4           C   tau(   4) = (   4.9999994   8.5010354   2.8393230  )
         5           C   tau(   5) = (   5.0000013   9.7349084   3.5537327  )
         6           C   tau(   6) = (   4.9999989   7.2729254   0.7054281  )
         7           C   tau(   7) = (   5.0000002   8.5010351   1.4206797  )
         8           C   tau(   8) = (   5.0000003  10.9688457   2.8392762  )
         9           C   tau(   9) = (   5.0000017  12.1970552   3.5545937  )
        10           C   tau(  10) = (   5.0000015   9.7349087   0.7062716  )
        11           C   tau(  11) = (   4.9999998  10.9688454   1.4207285  )
        12           C   tau(  12) = (   5.0000035  13.3734803   2.8040861  )
        13           C   tau(  13) = (   4.9999998  12.1970540   0.7054087  )
        14           C   tau(  14) = (   4.9999996  13.3734789   1.4559123  )
        15           F   tau(  15) = (   5.0000080   4.8341770   3.2315251  )
        16           F   tau(  16) = (   4.9999834   4.8341798   1.0284723  )
        17           F   tau(  17) = (   5.0000072  14.6359995   3.2315210  )
        18           F   tau(  18) = (   4.9999968  14.6359957   1.0284687  )

     number of k points=    26  Marzari-Vanderbilt smearing, width (Ry)=  0.0100
                       cart. coord. in units 2pi/alat
        k(    1) = (   0.0000000   0.0000000   0.0000000), wk =   0.0400000
        k(    2) = (   0.0000000   0.0000000   0.0046948), wk =   0.0800000
        k(    3) = (   0.0000000   0.0000000   0.0093897), wk =   0.0800000
        k(    4) = (   0.0000000   0.0000000   0.0140845), wk =   0.0800000
        k(    5) = (   0.0000000   0.0000000   0.0187793), wk =   0.0800000
        k(    6) = (   0.0000000   0.0000000   0.0234742), wk =   0.0800000
        k(    7) = (   0.0000000   0.0000000   0.0281690), wk =   0.0800000
        k(    8) = (   0.0000000   0.0000000   0.0328638), wk =   0.0800000
        k(    9) = (   0.0000000   0.0000000   0.0375587), wk =   0.0800000
        k(   10) = (   0.0000000   0.0000000   0.0422535), wk =   0.0800000
        k(   11) = (   0.0000000   0.0000000   0.0469484), wk =   0.0800000
        k(   12) = (   0.0000000   0.0000000   0.0516432), wk =   0.0800000
        k(   13) = (   0.0000000   0.0000000   0.0563380), wk =   0.0800000
        k(   14) = (   0.0000000   0.0000000   0.0610329), wk =   0.0800000
        k(   15) = (   0.0000000   0.0000000   0.0657277), wk =   0.0800000
        k(   16) = (   0.0000000   0.0000000   0.0704225), wk =   0.0800000
        k(   17) = (   0.0000000   0.0000000   0.0751174), wk =   0.0800000
        k(   18) = (   0.0000000   0.0000000   0.0798122), wk =   0.0800000
        k(   19) = (   0.0000000   0.0000000   0.0845070), wk =   0.0800000
        k(   20) = (   0.0000000   0.0000000   0.0892019), wk =   0.0800000
        k(   21) = (   0.0000000   0.0000000   0.0938967), wk =   0.0800000
        k(   22) = (   0.0000000   0.0000000   0.0985915), wk =   0.0800000
        k(   23) = (   0.0000000   0.0000000   0.1032864), wk =   0.0800000
        k(   24) = (   0.0000000   0.0000000   0.1079812), wk =   0.0800000
        k(   25) = (   0.0000000   0.0000000   0.1126761), wk =   0.0800000
        k(   26) = (   0.0000000   0.0000000  -0.1173709), wk =   0.0400000

     Dense  grid:   993815 G-vectors     FFT dimensions: ( 135, 270,  60)

     Smooth grid:   191277 G-vectors     FFT dimensions: (  80, 150,  36)

     Estimated max dynamical RAM per process >     356.09 MB

     Estimated total dynamical RAM >       5.56 GB

     Check: negative/imaginary core charge=   -0.000006    0.000000

     The potential is recalculated from file :
     /home/zfwang/scratch/GNRDATASET/AGNR/F7/F7.save/charge-density.dat


     negative rho (up, down):  1.831E-03 0.000E+00
     Starting wfcs are   72 randomized atomic wfcs +  428 random wfcs

     Band Structure Calculation
     Davidson diagonalization with overlap

     ethr =  1.19E-08,  avg # of iterations = 16.5

     total cpu time spent up to now is     1806.1 secs

     End of band structure calculation

          k = 0.0000 0.0000 0.0000 ( 23825 PWs)   bands (ev):

   -30.1485 -30.1456 -28.5666 -28.5634 -21.9692 -21.1971 -19.6546 -17.7680
   -16.7684 -16.5706 -16.1763 -15.9441 -15.6510 -14.8389 -13.5226 -13.2204
   -13.1750 -12.6339 -12.1591 -11.8699 -10.9097 -10.8382 -10.8133 -10.8009
   -10.5243  -9.5694  -9.4799  -9.0781  -8.5713  -8.5687  -8.4603  -8.3628
    -7.3600  -6.9156  -6.7397  -6.3266  -6.0004  -5.9073  -4.8068  -4.5717
    -3.5240  -2.9683  -1.7218  -1.6979  -1.1339   0.6161   0.6980   1.0225
     1.4384   2.2108   2.3101   2.3738   2.7687   2.7834   2.8614   3.1325
     3.4674   3.5049   3.6783   4.0992   4.1118   4.1379   4.5274   4.5400
     4.9088   5.1436   5.2786   5.9477   5.9668   5.9692   6.1440   6.1641
     6.4254   6.6039   6.7053   7.1403   7.2967   7.5642   7.7001   7.8261
     7.8346   8.1138   8.1234   8.1690   8.2315   8.2542   8.3646   8.6376
     8.7937   8.8194   8.8475   8.8942   9.0118   9.1351   9.1793   9.2334
     9.3118   9.3972   9.5384   9.6135   9.6658   9.6865   9.7912   9.9675
    10.0307  10.0974  10.1335  10.3616  10.3629  10.4686  10.5155  10.5509
    10.6466  10.8110  10.8685  10.8982  10.9280  10.9608  11.0025  11.0559
    11.1198  11.2478  11.3157  11.3814  11.5212  11.5256  11.6567  11.7308
    11.7949  12.0320  12.1309  12.1339  12.1587  12.1997  12.2476  12.2502
    12.3117  12.3197  12.4024  12.4170  12.5401  12.8419  12.9897  13.0429
    13.0482  13.0916  13.0945  13.1664  13.2148  13.6898  13.8761  13.9540
    13.9790  13.9885  14.1283  14.2256  14.3542  14.5176  14.6021  14.8328
    14.8493  14.8833  14.9840  14.9909  15.1221  15.1854  15.2013  15.2081
    15.3923  15.5289  15.6168  15.6929  15.7315  15.7347  15.7900  15.9274
    15.9495  16.0714  16.0795  16.1943  16.2616  16.2748  16.2845  16.5299
    16.5381  16.5384  16.5801  16.6377  16.6886  16.6964  16.8436  16.8592
    16.8604  16.9353  17.0098  17.0223  17.0735  17.2023  17.2212  17.3158
    17.3175  17.4116  17.4798  17.5112  17.6502  17.6956  17.7181  17.9497
    18.0368  18.1012  18.1361  18.3009  18.5236  18.6132  18.6165  18.6198
    18.7200  18.7567  19.0369  19.1419  19.1523  19.1799  19.2160  19.2920
    19.3825  19.5400  19.7203  19.7591  19.7879  19.8446  19.8863  19.9672
    20.0476  20.1168  20.2140  20.2188  20.2193  20.4667  20.5300  20.5581
    20.6147  20.6562  20.7729  20.7831  21.0023  21.2942  21.3313  21.4072
    21.4219  21.4866  21.4946  21.5102  21.5432  21.6197  21.6946  21.7030
    21.7334  21.7660  21.7673  21.8377  21.9129  22.0092  22.2237  22.2402
    22.2561  22.2914  22.5051  22.8081  22.8979  23.0024  23.0746  23.0774
    23.0898  23.2582  23.2961  23.3455  23.3833  23.3899  23.4435  23.5982
    23.6505  23.7001  23.7608  23.8105  23.9243  23.9439  23.9666  24.0690
    24.0936  24.1733  24.4496  24.5548  24.7352  24.7408  24.7759  24.8516
    24.8585  24.8912  24.9353  24.9457  25.2336  25.4200  25.4935  25.5546
    25.5771  25.6553  25.6800  25.6908  25.6961  25.7539  25.8078  26.0144
    26.0482  26.0877  26.1695  26.1837  26.5221  26.5975  26.7650  26.7811
    26.8586  26.8903  26.9120  26.9822  26.9927  27.0520  27.0647  27.0880
    27.1362  27.1764  27.2218  27.2448  27.3881  27.4266  27.6345  27.7238
    27.7877  27.8331  27.8576  27.9558  27.9569  28.2093  28.2298  28.4485
    28.4542  28.5320  28.5329  28.6299  28.6355  28.7552  28.8280  28.9817
    29.0522  29.0900  29.3050  29.3209  29.3628  29.5440  29.5905  29.6508
    29.9171  29.9274  29.9873  30.0778  30.2474  30.2486  30.3113  30.3655
    30.3744  30.4908  30.6053  30.6743  30.6992  30.7239  30.8102  30.8368
    30.8929  30.9840  31.0241  31.1336  31.2473  31.3523  31.3527  31.4159
    31.8269  31.8770  31.9031  31.9417  32.1027  32.1348  32.1352  32.1806
    32.2515  32.2841  32.4794  32.5714  32.6196  32.6669  32.7234  32.7521
    32.7892  32.8661  33.2122  33.2461  33.3230  33.3516  33.5187  33.5315
    33.5481  33.6645  33.7845  33.7968  33.8168  33.9084  33.9874  34.0197
    34.1201  34.1595  34.2053  34.2116  34.3103  34.3589  34.3681  34.4505
    34.5610  34.5770  34.6323  34.6360  34.6505  34.6932  34.7776  34.8679
    34.8718  34.8739  34.9189  34.9321  34.9332  34.9915  35.0034  35.0259
    35.0754  35.0798  35.1887  35.2546  35.3427  35.4225  35.4619  35.4805
    35.5072  35.6277  35.6871  35.7107  35.8071  35.8531  35.8670  35.8758
    35.8983  35.9490  35.9832  36.0433  36.1098  36.1655  36.1657  36.2357
    36.2613  36.2874  36.4154  36.4349  36.4378  36.4651  36.4854  36.5394
    36.5996  36.6543  36.6864  36.7316  36.7523  36.7832  36.8130  36.9235
    36.9332  36.9849  36.9962  37.0705  37.2133  37.2858  37.3644  37.3691
    37.3729  37.3754  37.4083  37.4446  37.4573  37.5406  37.6254  37.6671
    37.6843  37.7661  37.7746  37.8421

          k = 0.0000 0.0000 0.0047 ( 23847 PWs)   bands (ev):

   -30.1473 -30.1443 -28.5684 -28.5652 -21.9668 -21.1948 -19.6524 -17.7668
   -16.8381 -16.5286 -16.2565 -15.8658 -15.6256 -14.8440 -13.5253 -13.2102
   -13.1754 -12.6296 -12.1515 -11.8742 -10.9077 -10.8365 -10.8091 -10.8085
   -10.5167  -9.5670  -9.4755  -9.0862  -8.5736  -8.5710  -8.4545  -8.3606
    -7.3655  -6.9201  -6.7376  -6.3372  -5.9998  -5.9083  -4.8058  -4.5887
    -3.5475  -2.9815  -1.6962  -1.6853  -1.1134   0.6192   0.6939   1.0256
     1.4415   2.2134   2.3133   2.3769   2.7719   2.7864   2.8641   3.1356
     3.4605   3.5081   3.6805   4.1024   4.1156   4.1408   4.5306   4.5434
     4.9113   5.1410   5.2777   5.9514   5.9582   5.9726   6.1367   6.1638
     6.4277   6.6033   6.7090   7.1436   7.2999   7.5674   7.6902   7.8291
     7.8388   8.0890   8.1149   8.1595   8.2366   8.2577   8.3211   8.5601
     8.6314   8.8468   8.9212   9.0116   9.0766   9.1408   9.1772   9.2316
     9.2359   9.3194   9.4941   9.5366   9.7068   9.7589   9.7761   9.8768
    10.0820  10.1292  10.2005  10.2557  10.3870  10.4337  10.5076  10.5714
    10.7200  10.7602  10.8013  10.9017  10.9378  10.9613  10.9922  11.0133
    11.1064  11.2515  11.3523  11.3945  11.4274  11.4508  11.7361  11.9073
    11.9255  11.9431  11.9854  12.0665  12.1658  12.1740  12.1745  12.2812
    12.3557  12.3850  12.4446  12.4638  12.6957  12.6971  12.9064  13.0423
    13.0509  13.0625  13.2489  13.2532  13.3845  13.6407  13.8223  13.8405
    13.8973  14.1142  14.2102  14.2268  14.3269  14.4965  14.5967  14.7920
    14.8447  14.8778  14.9338  15.0248  15.1080  15.2042  15.2313  15.2953
    15.3803  15.4032  15.5845  15.6554  15.7284  15.7819  15.8587  15.8881
    15.9733  15.9872  16.0539  16.2380  16.2455  16.3873  16.4240  16.4664
    16.5077  16.5702  16.6207  16.6310  16.6848  16.6937  16.7692  16.7697
    16.8386  16.9241  16.9869  16.9903  17.0517  17.1659  17.2617  17.3164
    17.3595  17.3857  17.4312  17.6392  17.7083  17.7821  17.7856  17.9873
    18.0289  18.0971  18.2188  18.2547  18.4748  18.5859  18.6418  18.6426
    18.7065  18.7377  18.9582  19.0195  19.1478  19.1945  19.2639  19.4269
    19.5430  19.5541  19.6450  19.7546  19.8251  19.8860  19.8904  19.9493
    19.9697  20.0043  20.2059  20.2745  20.3630  20.4492  20.4535  20.5108
    20.5505  20.6353  20.8153  20.9138  21.0520  21.2352  21.2369  21.3910
    21.4443  21.4477  21.4889  21.5338  21.6408  21.6651  21.6807  21.7331
    21.7590  21.7940  21.8067  21.8681  21.9177  22.0144  22.2332  22.2615
    22.2694  22.2964  22.5014  22.7105  22.8970  22.9815  22.9925  22.9999
    23.0732  23.0835  23.2648  23.3557  23.4255  23.4314  23.5327  23.5896
    23.6683  23.7117  23.7967  23.8389  23.8464  23.9400  23.9411  24.0784
    24.1903  24.2838  24.3286  24.5899  24.6495  24.6618  24.7560  24.8307
    24.9012  24.9298  24.9714  25.2118  25.2388  25.3568  25.4756  25.5780
    25.5902  25.6238  25.6708  25.6916  25.7040  25.7759  25.8273  26.0337
    26.0481  26.1246  26.1878  26.1906  26.3733  26.5651  26.6755  26.8404
    26.8405  26.8947  26.9209  26.9404  26.9637  27.0276  27.0523  27.0606
    27.2226  27.2402  27.2701  27.3227  27.3941  27.4459  27.5799  27.6770
    27.7396  27.8639  27.8871  27.9694  28.0767  28.2132  28.2152  28.2836
    28.4092  28.5192  28.5213  28.6111  28.7174  28.8622  28.8759  28.9902
    29.0362  29.1199  29.3254  29.3356  29.3713  29.5418  29.5775  29.5790
    29.7646  29.9333  30.0366  30.0807  30.1191  30.2843  30.3259  30.3489
    30.3826  30.5447  30.6157  30.6664  30.6787  30.7177  30.7376  30.9583
    30.9901  31.0317  31.1011  31.1572  31.1715  31.2702  31.4199  31.6360
    31.7559  31.7652  31.9354  31.9449  32.0380  32.0907  32.1423  32.1979
    32.2779  32.3230  32.5363  32.6142  32.6253  32.6352  32.7118  32.7315
    32.8326  32.8777  33.0233  33.2219  33.3109  33.3507  33.3725  33.4571
    33.5495  33.5659  33.7427  33.7993  33.8018  33.8147  33.9140  33.9214
    34.0499  34.1474  34.2093  34.2218  34.2652  34.2911  34.5051  34.5239
    34.5416  34.5744  34.6104  34.6569  34.6785  34.7062  34.7069  34.7127
    34.7798  34.7964  34.8292  34.8928  34.9930  35.0017  35.0314  35.0475
    35.0961  35.1437  35.1586  35.1646  35.2458  35.2534  35.4125  35.5305
    35.5676  35.6180  35.6321  35.6454  35.7024  35.7255  35.7915  35.9381
    35.9636  36.0026  36.0084  36.0387  36.0902  36.0951  36.1669  36.1844
    36.2912  36.3502  36.3520  36.4155  36.4623  36.4961  36.5334  36.5369
    36.5700  36.6528  36.6985  36.7523  36.7939  36.8151  36.8361  36.9290
    36.9557  36.9785  37.0259  37.0659  37.0855  37.1872  37.1896  37.2683
    37.3738  37.4910  37.4913  37.5071  37.5190  37.6881  37.6992  37.7205
    37.7632  37.8199  37.8819  37.9500

          k = 0.0000 0.0000 0.0094 ( 23853 PWs)   bands (ev):

   -30.1435 -30.1406 -28.5738 -28.5706 -21.9598 -21.1881 -19.6461 -17.7633
   -16.9750 -16.4720 -16.3980 -15.7298 -15.5532 -14.8577 -13.5353 -13.1804
   -13.1737 -12.6168 -12.1296 -11.8864 -10.9020 -10.8312 -10.8294 -10.7967
   -10.4959  -9.5599  -9.4625  -9.1095  -8.5803  -8.5777  -8.4381  -8.3541
    -7.3820  -6.9335  -6.7315  -6.3678  -5.9985  -5.9110  -4.8030  -4.6384
    -3.6141  -3.0197  -1.6490  -1.6231  -1.0533   0.6286   0.6820   1.0348
     1.4506   2.2212   2.3229   2.3861   2.7814   2.7955   2.8722   3.1449
     3.4401   3.5177   3.6874   4.1119   4.1268   4.1495   4.5402   4.5534
     4.9184   5.1321   5.2768   5.9336   5.9622   5.9829   6.1151   6.1634
     6.4341   6.6007   6.7197   7.1533   7.3095   7.5769   7.6606   7.8381
     7.8510   7.9848   8.0898   8.1293   8.2148   8.2518   8.2678   8.3996
     8.6114   8.8040   8.9355   9.0091   9.1309   9.1373   9.1628   9.2232
     9.2436   9.3293   9.3721   9.4306   9.6293   9.7317   9.8126   9.9948
    10.0565  10.0691  10.1307  10.1714  10.4660  10.5412  10.5831  10.5980
    10.6069  10.6600  10.7958  10.8285  10.8384  10.9363  10.9472  11.0340
    11.1321  11.1723  11.3065  11.4016  11.5147  11.5424  11.7435  11.8018
    11.8733  11.8757  11.9607  12.1639  12.2183  12.2288  12.2392  12.2584
    12.3887  12.4249  12.5665  12.6317  12.6336  12.6385  12.9701  13.0669
    13.1065  13.1428  13.3483  13.4147  13.5141  13.6581  13.6590  13.7395
    13.9226  14.2243  14.2287  14.2600  14.2870  14.4366  14.5675  14.7250
    14.7380  14.8773  14.9629  15.0497  15.0787  15.2148  15.2990  15.2997
    15.3792  15.3841  15.5457  15.5670  15.6883  15.7684  15.7707  15.9408
    15.9976  16.0333  16.0788  16.3409  16.3447  16.3858  16.4596  16.4719
    16.4871  16.5287  16.5713  16.6186  16.6917  16.6930  16.7069  16.7863
    16.7971  16.8560  16.8906  16.8974  17.1009  17.1371  17.1849  17.3338
    17.4454  17.5316  17.5907  17.6414  17.7651  17.9215  17.9685  18.0334
    18.0884  18.0927  18.2004  18.3386  18.3738  18.5074  18.5871  18.7100
    18.7223  18.7893  18.9535  18.9858  19.0360  19.1531  19.4352  19.5187
    19.5247  19.6646  19.7119  19.7379  19.8087  19.8368  19.9297  19.9334
    19.9967  20.0358  20.1720  20.2207  20.3341  20.3688  20.4898  20.5200
    20.6157  20.6475  20.8852  20.8944  21.0959  21.1779  21.2302  21.3232
    21.4003  21.4810  21.4855  21.6357  21.6836  21.7359  21.7680  21.7829
    21.7900  21.8303  21.9024  21.9330  21.9684  22.0307  22.2852  22.3102
    22.3108  22.3188  22.4877  22.4962  22.8206  22.8388  22.8698  22.8964
    22.9929  23.0417  23.1532  23.2710  23.3631  23.4019  23.5841  23.6820
    23.6849  23.7251  23.7949  23.8557  23.9014  23.9085  23.9358  24.1696
    24.2477  24.3062  24.3434  24.5270  24.6786  24.7434  24.7869  24.8201
    24.8352  25.0257  25.0616  25.2464  25.4213  25.4678  25.4681  25.4823
    25.6010  25.6312  25.6372  25.6958  25.7135  25.7890  25.9309  26.0472
    26.0668  26.1669  26.1808  26.2010  26.3458  26.4179  26.5224  26.6959
    26.8183  26.8846  26.9132  26.9513  26.9600  27.0253  27.0844  27.1132
    27.2306  27.3205  27.3451  27.3813  27.3904  27.4039  27.5163  27.7049
    27.9061  27.9608  27.9630  28.0063  28.0636  28.0777  28.1659  28.2150
    28.3279  28.4013  28.6032  28.6231  28.8712  28.8825  28.9727  29.0244
    29.0653  29.1626  29.3763  29.3802  29.3871  29.4717  29.5254  29.5969
    29.5979  29.7099  29.9020  30.1293  30.1459  30.1517  30.3030  30.3811
    30.4537  30.5241  30.6269  30.7250  30.7478  30.7698  30.7808  30.9438
    31.0753  31.1277  31.1797  31.2486  31.3404  31.3642  31.5372  31.5374
    31.6157  31.8676  31.8680  31.9139  32.0424  32.0964  32.1345  32.1926
    32.2936  32.3241  32.3980  32.5561  32.6375  32.6792  32.7534  32.7609
    32.8207  32.9532  32.9536  33.1444  33.1504  33.2419  33.3165  33.3541
    33.3736  33.4276  33.5331  33.5760  33.6411  33.6723  33.7649  33.8735
    33.9865  34.0210  34.1135  34.1506  34.1938  34.3026  34.3037  34.4483
    34.4593  34.4893  34.5530  34.5814  34.6046  34.6105  34.6730  34.6755
    34.7247  34.7276  34.7699  34.7861  34.8575  34.9625  35.0133  35.0232
    35.0931  35.0960  35.1267  35.1532  35.1534  35.1594  35.2047  35.2509
    35.5529  35.5634  35.5691  35.6016  35.7086  35.7893  35.8989  35.9116
    35.9164  35.9671  35.9830  36.0345  36.0972  36.1121  36.1830  36.2180
    36.2823  36.3237  36.3452  36.3890  36.4062  36.4256  36.4498  36.5283
    36.5443  36.5581  36.6504  36.6578  36.8144  36.8235  36.8684  36.8842
    36.9618  37.0557  37.0670  37.0897  37.2437  37.2676  37.3325  37.4052
    37.4245  37.5485  37.5578  37.6322  37.6582  37.7516  37.7704  37.8705
    37.8971  37.9809  37.9833  38.0582

          k = 0.0000 0.0000 0.0141 ( 23869 PWs)   bands (ev):

   -30.1373 -30.1344 -28.5828 -28.5796 -21.9482 -21.1768 -19.6355 -17.7577
   -17.1338 -16.5501 -16.4379 -15.5868 -15.4455 -14.8738 -13.5576 -13.1627
   -13.1339 -12.5961 -12.0953 -11.9055 -10.8926 -10.8604 -10.8225 -10.7765
   -10.4654  -9.5480  -9.4410  -9.1455  -8.5913  -8.5887  -8.4142  -8.3431
    -7.4088  -6.9561  -6.7214  -6.4157  -5.9992  -5.9157  -4.7985  -4.7174
    -3.7148  -3.0790  -1.5926  -1.5116  -0.9568   0.6443   0.6625   1.0501
     1.4658   2.2342   2.3389   2.4014   2.7974   2.8107   2.8855   3.1601
     3.4069   3.5337   3.6987   4.1277   4.1452   4.1638   4.5562   4.5701
     4.9297   5.1148   5.2792   5.8957   5.9801   5.9991   6.0802   6.1629
     6.4425   6.5944   6.7364   7.1693   7.3254   7.5927   7.6122   7.7754
     7.8531   7.8703   8.0490   8.0736   8.1075   8.2765   8.2841   8.3265
     8.5740   8.6471   8.9230   8.9859   8.9874   9.0804   9.1719   9.2113
     9.2554   9.2562   9.3474   9.5025   9.6626   9.6822   9.7108   9.8251
     9.9124  10.1248  10.2358  10.3096  10.3428  10.3729  10.5904  10.6090
    10.6365  10.6643  10.7246  10.7368  10.8540  10.8664  10.9856  11.0700
    11.0936  11.2194  11.2293  11.4000  11.5161  11.5333  11.6317  11.7085
    11.8242  11.8457  12.0378  12.2063  12.2066  12.2830  12.3271  12.4199
    12.4534  12.5582  12.6120  12.6364  12.7919  12.8526  13.0132  13.0907
    13.1275  13.3103  13.3432  13.3793  13.4957  13.4959  13.8986  13.9223
    13.9910  14.0812  14.2339  14.3274  14.3551  14.3667  14.5102  14.6501
    14.7024  14.8419  14.8749  15.0198  15.0749  15.2364  15.2679  15.3556
    15.3915  15.3995  15.4001  15.6464  15.7453  15.7610  15.8202  15.8596
    15.9066  16.0884  16.1146  16.2866  16.3424  16.3624  16.3753  16.4944
    16.5038  16.5204  16.5230  16.5956  16.6504  16.6717  16.7398  16.7445
    16.7729  16.8047  16.8776  17.1050  17.1582  17.1952  17.2272  17.3246
    17.5413  17.6433  17.7011  17.7352  17.7906  17.9263  18.0304  18.0496
    18.1419  18.1678  18.1974  18.2051  18.4514  18.4964  18.7278  18.8138
    18.8315  18.8555  18.9750  18.9821  19.0051  19.1393  19.4071  19.4120
    19.4971  19.6083  19.7211  19.7507  19.8128  19.9660  19.9676  20.0728
    20.0762  20.0896  20.1545  20.1633  20.3506  20.3746  20.4293  20.6087
    20.6527  20.7334  20.7701  20.9594  21.0669  21.1557  21.2721  21.3151
    21.3414  21.4684  21.6405  21.6516  21.7093  21.7886  21.8065  21.8361
    21.8575  21.9451  21.9563  21.9649  22.0803  22.1168  22.2309  22.3588
    22.3617  22.3898  22.3974  22.5170  22.6066  22.6097  22.7862  22.8994
    22.9464  22.9768  23.0659  23.2242  23.2333  23.3667  23.4879  23.5161
    23.6589  23.6835  23.8587  23.8684  23.9204  23.9337  23.9499  24.1315
    24.3783  24.4464  24.5228  24.6102  24.7256  24.7274  24.7887  24.8960
    24.9112  25.0664  25.1062  25.2531  25.2640  25.4446  25.4927  25.6108
    25.6181  25.6759  25.7160  25.7263  25.7776  25.8484  25.9808  26.0434
    26.1270  26.1577  26.1813  26.2226  26.3146  26.4132  26.5178  26.5881
    26.6684  26.7785  26.9550  26.9553  26.9785  27.0613  27.0714  27.1562
    27.1915  27.2021  27.2552  27.3796  27.4153  27.5365  27.6472  27.8959
    27.9301  27.9540  27.9797  28.0406  28.0515  28.0967  28.1403  28.2293
    28.2757  28.3327  28.6323  28.6723  28.9157  28.9601  28.9782  29.0863
    29.1236  29.1970  29.3257  29.3671  29.3809  29.4490  29.4544  29.5688
    29.5746  29.6900  29.7529  29.9697  30.0005  30.1693  30.2869  30.4601
    30.4854  30.6502  30.6767  30.6836  30.8024  30.8351  30.8510  31.1544
    31.1673  31.2014  31.2273  31.3266  31.3695  31.4013  31.5182  31.5506
    31.6388  31.7868  31.7871  31.9055  31.9524  32.0807  32.1380  32.1673
    32.2669  32.4006  32.4774  32.5323  32.6246  32.6531  32.6600  32.6932
    32.7799  32.8454  32.9611  33.0330  33.1122  33.1132  33.1968  33.2624
    33.3001  33.3361  33.3599  33.4575  33.5304  33.5994  33.6765  33.6828
    33.7126  33.7511  33.7872  33.9487  34.0779  34.0781  34.1194  34.1274
    34.2491  34.2493  34.3711  34.3964  34.4178  34.4961  34.5052  34.5601
    34.5607  34.6852  34.7312  34.7780  34.7816  34.8092  34.8483  34.9200
    35.0110  35.0262  35.1310  35.1373  35.1649  35.2347  35.2839  35.3137
    35.3624  35.3892  35.4219  35.4534  35.5724  35.6239  35.7569  35.8129
    35.9180  35.9663  35.9785  36.1017  36.1902  36.1909  36.2229  36.2557
    36.2874  36.3386  36.3743  36.3841  36.4074  36.4106  36.5102  36.5483
    36.5583  36.5720  36.6988  36.7059  36.7367  36.7765  36.8814  36.9813
    37.0195  37.0988  37.1219  37.1239  37.2227  37.2331  37.2781  37.3771
    37.4862  37.5776  37.5811  37.7393  37.8226  37.8516  38.0674  38.0863
    38.0980  38.1243  38.1670  38.2536

          k = 0.0000 0.0000 0.0188 ( 23871 PWs)   bands (ev):

   -30.1287 -30.1257 -28.5952 -28.5920 -21.9318 -21.1610 -19.6206 -17.7509
   -17.3024 -16.7037 -16.4280 -15.4452 -15.3220 -14.8801 -13.5959 -13.1353
   -13.0743 -12.5686 -12.0513 -11.9292 -10.8984 -10.8794 -10.8104 -10.7490
   -10.4281  -9.5315  -9.4116  -9.1912  -8.6067  -8.6041  -8.3858  -8.3279
    -7.4448  -6.9880  -6.7072  -6.4781  -6.0040  -5.9223  -4.8213  -4.7926
    -3.8395  -3.1549  -1.5206  -1.3717  -0.8286   0.6359   0.6662   1.0716
     1.4871   2.2523   2.3613   2.4227   2.8197   2.8319   2.9041   3.1807
     3.3627   3.5561   3.7147   4.1498   4.1704   4.1835   4.5787   4.5935
     4.9442   5.0880   5.2877   5.8487   6.0050   6.0087   6.0451   6.1625
     6.4469   6.5851   6.7580   7.1908   7.3475   7.5045   7.5722   7.6148
     7.8740   7.8942   7.9082   7.9940   8.1018   8.2552   8.3063   8.3103
     8.4536   8.5136   8.7848   8.8241   8.9352   9.0177   9.1867   9.2384
     9.2519   9.2734   9.3570   9.3904   9.5308   9.5791   9.6045   9.8196
    10.0160  10.0803  10.1545  10.1708  10.3289  10.4343  10.4637  10.5297
    10.5522  10.6688  10.7602  10.7825  10.8675  11.0001  11.0046  11.0277
    11.0484  11.1811  11.2199  11.3121  11.3325  11.3993  11.5963  11.8301
    11.8919  11.9382  11.9669  12.1687  12.2330  12.3545  12.4296  12.4756
    12.5588  12.7490  12.8205  12.8479  12.9428  13.0429  13.0498  13.1104
    13.1195  13.1543  13.1655  13.4070  13.6247  13.6278  13.8006  14.1021
    14.1447  14.1818  14.2639  14.2845  14.3426  14.3456  14.4481  14.7037
    14.7444  14.7944  14.8282  14.8880  15.0009  15.0901  15.2523  15.4089
    15.4566  15.4969  15.5128  15.5523  15.7687  15.7967  15.8173  15.8375
    15.8790  15.9491  16.1354  16.2039  16.2336  16.2621  16.3180  16.3497
    16.3557  16.5373  16.5871  16.6152  16.6520  16.7017  16.7780  16.8619
    16.8733  16.9127  17.0266  17.1451  17.2157  17.2997  17.3502  17.3593
    17.6218  17.6735  17.7112  17.7341  17.8712  17.9206  18.0189  18.0203
    18.0492  18.0930  18.3771  18.3951  18.4297  18.6980  18.8825  18.8887
    18.9219  18.9278  19.0314  19.0363  19.1012  19.1906  19.2703  19.3062
    19.3449  19.5525  19.7161  19.7579  19.8781  19.9075  20.0107  20.0585
    20.1356  20.2467  20.2786  20.3533  20.3893  20.3983  20.5116  20.6066
    20.6403  20.6677  20.8363  21.0156  21.0706  21.1792  21.2858  21.3383
    21.3560  21.4624  21.5708  21.6593  21.7838  21.8316  21.8368  21.8723
    21.9011  21.9578  21.9624  21.9625  22.1795  22.2093  22.2940  22.3858
    22.4005  22.4104  22.4355  22.4455  22.5126  22.5909  22.7505  22.8156
    22.9037  22.9067  23.0629  23.1194  23.2506  23.2546  23.3954  23.4471
    23.5232  23.6240  23.6535  23.8363  23.8912  23.8961  24.0560  24.3815
    24.4344  24.5671  24.6121  24.6611  24.7920  24.8147  24.8393  24.9493
    25.0359  25.0766  25.1027  25.2340  25.2628  25.2864  25.5011  25.6204
    25.6361  25.6798  25.7088  25.9164  25.9180  25.9517  25.9871  26.0403
    26.1881  26.1955  26.2087  26.2722  26.3028  26.4927  26.5339  26.5501
    26.5708  26.7112  26.9208  26.9680  26.9813  27.0475  27.0606  27.0738
    27.1451  27.1947  27.2745  27.3844  27.4242  27.6195  27.8049  27.8245
    27.8580  27.9540  28.0185  28.0495  28.0921  28.1235  28.2383  28.2987
    28.3046  28.4816  28.5503  28.7089  28.9197  28.9422  29.0238  29.0986
    29.1660  29.1885  29.1959  29.2295  29.3444  29.4517  29.5242  29.5533
    29.5653  29.6014  29.8903  29.9135  29.9403  30.2042  30.2181  30.3765
    30.4519  30.7381  30.8228  30.8641  30.8703  30.9130  30.9477  30.9993
    31.1015  31.1410  31.2577  31.2821  31.3550  31.4531  31.5609  31.5650
    31.6321  31.7898  31.8005  31.8852  31.9930  32.0283  32.0805  32.2151
    32.2239  32.3439  32.4365  32.5188  32.5430  32.6645  32.6733  32.6865
    32.7421  32.7928  32.8534  32.8815  32.9419  33.0007  33.0835  33.1128
    33.2116  33.3068  33.3156  33.3590  33.3592  33.4597  33.4611  33.4771
    33.5224  33.6217  33.6222  33.6826  33.7234  33.7800  33.9740  33.9782
    33.9841  34.0327  34.0380  34.0630  34.1608  34.1970  34.2859  34.4137
    34.4707  34.5808  34.7007  34.7134  34.7290  34.7339  34.7372  34.7571
    34.7852  34.9068  34.9667  34.9876  35.0389  35.0393  35.2556  35.2916
    35.3118  35.3202  35.4191  35.4918  35.5455  35.5489  35.7133  35.7365
    35.7605  35.9006  36.0190  36.0417  36.1753  36.2338  36.2723  36.2801
    36.3211  36.3539  36.3583  36.3960  36.4453  36.5532  36.5811  36.5852
    36.6695  36.6774  36.6810  36.7445  36.8284  36.8421  36.8829  36.9363
    36.9923  37.0552  37.1367  37.1442  37.1490  37.2745  37.3051  37.3118
    37.4926  37.6011  37.6430  37.7193  37.9688  37.9863  38.0906  38.1068
    38.1445  38.2358  38.2716  38.2783

          k = 0.0000 0.0000 0.0235 ( 23879 PWs)   bands (ev):

   -30.1176 -30.1146 -28.6111 -28.6079 -21.9109 -21.1408 -19.6017 -17.7441
   -17.4759 -16.8554 -16.4387 -15.3078 -15.2137 -14.8510 -13.6500 -13.0888
   -13.0056 -12.5362 -11.9998 -11.9546 -10.9418 -10.8624 -10.7948 -10.7149
   -10.3860  -9.5101  -9.3749  -9.2439  -8.6263  -8.6237  -8.3563  -8.3082
    -7.4890  -7.0294  -6.6890  -6.5531  -6.0143  -5.9317  -4.9452  -4.7860
    -3.9793  -3.2432  -1.4371  -1.2119  -0.6736   0.6032   0.6943   1.0991
     1.5143   2.2756   2.3901   2.4497   2.8483   2.8592   2.9277   3.2033
     3.3114   3.5849   3.7352   4.1781   4.2022   4.2083   4.6075   4.6234
     4.9604   5.0526   5.3033   5.7976   5.9585   6.0368   6.0636   6.1618
     6.4324   6.5817   6.7830   7.2040   7.2645   7.3754   7.5066   7.6430
     7.7246   7.9005   7.9010   7.9438   8.0999   8.1360   8.2657   8.3343
     8.3514   8.4256   8.5917   8.6330   8.9577   8.9842   9.0835   9.1840
     9.2451   9.2475   9.2947   9.3786   9.4681   9.4872   9.4935   9.8243
     9.8484   9.9536  10.0383  10.1960  10.3008  10.3315  10.5397  10.5403
    10.5616  10.6734  10.7651  10.8676  10.9113  10.9290  10.9641  10.9915
    10.9989  11.0447  11.0671  11.2052  11.3510  11.4242  11.7051  11.7867
    11.9823  11.9864  11.9995  12.2652  12.2757  12.4144  12.4318  12.4937
    12.7652  12.8469  12.9591  12.9632  12.9719  13.0543  13.0748  13.1307
    13.1753  13.2967  13.3073  13.4159  13.5723  13.6674  13.8905  14.0362
    14.0633  14.2068  14.3379  14.3460  14.4326  14.4829  14.5235  14.6774
    14.6816  14.7806  14.8112  14.9111  15.0478  15.1038  15.2757  15.3415
    15.4463  15.4761  15.5262  15.5924  15.7399  15.7409  15.7749  15.8019
    15.8505  15.9418  16.0203  16.1096  16.1328  16.1396  16.1909  16.3273
    16.4493  16.4495  16.6642  16.7132  16.7334  16.7530  16.8225  16.9226
    16.9499  17.1180  17.1385  17.2577  17.2699  17.3431  17.4050  17.4266
    17.6241  17.6334  17.6520  17.6866  17.7814  17.9796  18.0983  18.1079
    18.1601  18.2144  18.4766  18.4811  18.4956  18.8010  18.8475  18.9433
    19.0090  19.0269  19.1049  19.1126  19.1247  19.1852  19.3159  19.3571
    19.3734  19.5048  19.6259  19.7876  19.9173  19.9375  20.0517  20.1313
    20.1597  20.2798  20.3664  20.3923  20.4166  20.5535  20.5807  20.6664
    20.7059  20.7503  20.9007  21.0345  21.0784  21.2184  21.2890  21.3749
    21.4369  21.4745  21.4837  21.6559  21.7483  21.7588  21.8138  21.8306
    21.8641  21.9379  21.9562  21.9687  22.1671  22.3249  22.3365  22.3726
    22.3992  22.4429  22.5303  22.5685  22.5943  22.6761  22.6824  22.7563
    22.8810  22.8821  22.9819  23.1150  23.2067  23.2265  23.3315  23.3745
    23.4331  23.5874  23.5914  23.8167  23.8197  23.9205  24.0835  24.3018
    24.5642  24.5651  24.6656  24.6822  24.7291  24.8514  24.9840  25.0425
    25.1034  25.1506  25.1893  25.1931  25.2949  25.3141  25.6115  25.6209
    25.6673  25.7096  25.7236  25.7502  25.9629  26.0363  26.0959  26.1307
    26.1486  26.2083  26.2655  26.3691  26.3764  26.4835  26.5473  26.5731
    26.5903  26.7965  26.8943  26.9318  26.9908  27.0108  27.0704  27.1176
    27.1532  27.1988  27.3025  27.3469  27.4263  27.6650  27.7556  27.8451
    27.8577  28.0110  28.0128  28.0241  28.1294  28.2060  28.2386  28.3030
    28.4000  28.5970  28.7227  28.7287  28.8164  28.8450  29.0026  29.0455
    29.0643  29.1229  29.1536  29.3018  29.3131  29.3924  29.4751  29.5543
    29.6553  29.6675  29.9400  29.9417  30.0043  30.2488  30.2688  30.3280
    30.4111  30.5254  30.7517  30.7887  30.9036  30.9727  31.0185  31.0453
    31.0637  31.0688  31.1046  31.3089  31.3136  31.5120  31.5130  31.5298
    31.6625  31.8172  31.8260  31.8738  31.9440  32.0530  32.1285  32.1504
    32.1823  32.3621  32.4147  32.4168  32.4358  32.5918  32.6191  32.6854
    32.6912  32.7122  32.7649  32.7661  32.7840  32.8506  32.9245  32.9523
    32.9743  33.0369  33.1407  33.2030  33.2536  33.2904  33.3129  33.3185
    33.4291  33.4778  33.5050  33.5118  33.5551  33.7066  33.7206  33.7526
    33.7607  33.8382  33.9114  33.9187  33.9660  34.0625  34.1398  34.1560
    34.2286  34.2342  34.4150  34.4564  34.5354  34.5678  34.5873  34.6463
    34.6539  34.7502  34.7823  34.8788  34.8857  35.1239  35.1789  35.1852
    35.3377  35.4129  35.4758  35.4788  35.5809  35.6148  35.6597  35.7146
    35.7350  35.8143  35.8336  35.9010  35.9100  36.0058  36.2429  36.2805
    36.3177  36.3325  36.3961  36.4186  36.4641  36.5290  36.5351  36.5785
    36.5992  36.6723  36.7497  36.8567  36.8808  36.9930  37.0084  37.0299
    37.1081  37.1144  37.1236  37.2015  37.2106  37.2952  37.3497  37.4211
    37.4525  37.5867  37.7111  37.8263  37.8515  37.9033  37.9579  37.9942
    38.1014  38.1411  38.2049  38.2658

          k = 0.0000 0.0000 0.0282 ( 23882 PWs)   bands (ev):

   -30.1041 -30.1011 -28.6302 -28.6270 -21.8852 -21.1160 -19.5785 -17.7396
   -17.6512 -17.0015 -16.4670 -15.1766 -15.1546 -14.7555 -13.7161 -13.0240
   -12.9322 -12.5017 -11.9769 -11.9429 -10.9898 -10.8419 -10.7760 -10.6751
   -10.3403  -9.4841  -9.3320  -9.3016  -8.6498  -8.6472  -8.3281  -8.2841
    -7.5401  -7.0803  -6.6670  -6.6390  -6.0307  -5.9442  -5.0845  -4.7799
    -4.1272  -3.3405  -1.3452  -1.0387  -0.4965   0.5654   0.7287   1.1326
     1.5475   2.3039   2.4252   2.4823   2.8832   2.8926   2.9564   3.2030
     3.2793   3.6200   3.7602   4.2126   4.2377   4.2404   4.6427   4.6598
     4.9767   5.0106   5.3256   5.7475   5.8842   6.0753   6.1007   6.1601
     6.3832   6.5961   6.8097   6.9816   7.2592   7.4062   7.4570   7.5345
     7.6773   7.8266   7.9286   7.9322   7.9556   8.0858   8.1337   8.3046
     8.3539   8.3697   8.4025   8.5253   8.8347   8.9288   8.9889   8.9978
     9.2489   9.2681   9.3170   9.3861   9.3983   9.4159   9.4169   9.6274
     9.7643   9.7744   9.9331  10.1048  10.2282  10.5111  10.5384  10.5447
    10.5892  10.6474  10.7204  10.7763  10.7958  10.8769  10.8849  10.8997
    10.9333  11.0841  11.1800  11.1954  11.3301  11.4540  11.7393  11.9254
    11.9755  11.9918  12.0944  12.3069  12.4158  12.4398  12.5069  12.5225
    12.5629  12.8410  12.8937  13.0858  13.0963  13.1367  13.2119  13.3026
    13.3063  13.3110  13.4716  13.6053  13.6094  13.6571  13.8640  13.8907
    14.1342  14.1746  14.3204  14.3214  14.3591  14.5977  14.6027  14.7286
    14.8213  14.8231  14.9693  15.0327  15.1113  15.2058  15.2660  15.3019
    15.3663  15.4218  15.4921  15.5595  15.6365  15.6631  15.7048  15.8080
    15.8508  15.8684  15.8852  16.0189  16.0460  16.1038  16.2835  16.3674
    16.3721  16.6288  16.7092  16.7253  16.8062  16.8701  16.9308  16.9497
    16.9777  17.1464  17.1888  17.3062  17.3157  17.3612  17.4895  17.4955
    17.5710  17.6202  17.6356  17.6682  17.8465  18.1183  18.1950  18.2421
    18.3182  18.3874  18.4557  18.5140  18.5520  18.7729  18.8317  18.9764
    19.0304  19.0368  19.0562  19.1839  19.2082  19.2490  19.3577  19.4550
    19.5022  19.6634  19.7815  19.8528  19.9160  19.9515  20.1056  20.1810
    20.1937  20.3610  20.3941  20.4199  20.4498  20.5957  20.6033  20.7217
    20.8895  20.9109  20.9605  21.0393  21.1000  21.2068  21.3148  21.4007
    21.4254  21.4790  21.5528  21.5979  21.6012  21.6986  21.7556  21.8683
    21.8707  21.9169  21.9187  21.9492  22.0414  22.3074  22.3593  22.3997
    22.4016  22.5317  22.5877  22.6337  22.6773  22.7031  22.7880  22.8255
    22.8502  22.8609  22.9531  23.0998  23.1159  23.1744  23.3141  23.3983
    23.5339  23.6125  23.6935  23.7318  23.8057  23.9518  24.0358  24.2942
    24.3317  24.4251  24.5508  24.6754  24.8353  24.8592  25.0359  25.1295
    25.1466  25.2044  25.2732  25.3859  25.4058  25.5051  25.5360  25.5719
    25.6992  25.7447  25.8125  25.8741  25.9494  25.9519  26.0262  26.1556
    26.2046  26.2059  26.3259  26.3428  26.4079  26.5512  26.5854  26.7199
    26.7472  26.8447  26.8508  26.9943  27.0150  27.0303  27.1101  27.1762
    27.1906  27.2799  27.3383  27.3662  27.4067  27.6726  27.7601  27.8032
    27.8258  28.0462  28.0463  28.0995  28.1031  28.1833  28.2864  28.3239
    28.4681  28.4980  28.6545  28.7876  28.8473  28.9092  28.9291  28.9405
    29.0487  29.1296  29.1388  29.2352  29.2789  29.4350  29.4927  29.6046
    29.7427  29.7865  29.8240  29.9420  29.9901  30.2254  30.3034  30.3665
    30.3917  30.4290  30.5088  30.6394  30.7955  30.8323  30.9070  31.0326
    31.0901  31.1133  31.1408  31.2957  31.3109  31.3484  31.5079  31.5649
    31.7054  31.7722  31.7773  31.7947  31.9090  32.0485  32.0815  32.1313
    32.1763  32.2541  32.2622  32.2899  32.3831  32.4229  32.5104  32.5168
    32.5447  32.5484  32.6095  32.6612  32.6906  32.6934  32.7604  32.7626
    32.8244  33.0317  33.0560  33.0818  33.1074  33.1965  33.2138  33.2212
    33.2427  33.3294  33.3829  33.3954  33.5004  33.5556  33.5643  33.5967
    33.6393  33.6710  33.7064  33.7128  33.7148  33.9270  33.9878  33.9890
    34.0347  34.1068  34.2117  34.2210  34.2649  34.4199  34.4564  34.5377
    34.6686  34.7095  34.7561  34.8087  34.8668  35.1036  35.1248  35.1585
    35.2440  35.3354  35.3553  35.3787  35.4132  35.4937  35.5807  35.5981
    35.6180  35.7030  35.7488  35.8921  35.9201  36.0729  36.0880  36.1098
    36.1508  36.2028  36.2570  36.2611  36.4363  36.4450  36.5720  36.5976
    36.6682  36.6866  36.8258  36.8862  36.9002  36.9560  37.0548  37.1277
    37.1799  37.1822  37.2006  37.2887  37.3005  37.3272  37.4657  37.4766
    37.4885  37.5467  37.6277  37.6522  37.8788  37.8820  37.9032  37.9341
    38.0129  38.1406  38.2393  38.2453

          k = 0.0000 0.0000 0.0329 ( 23894 PWs)   bands (ev):

   -30.0882 -30.0852 -28.6525 -28.6493 -21.8550 -21.0868 -19.5514 -17.8266
   -17.7422 -17.1367 -16.5107 -15.1373 -15.0531 -14.6026 -13.7892 -12.9430
   -12.8586 -12.4687 -11.9903 -11.8820 -11.0416 -10.8179 -10.7539 -10.6303
   -10.2917  -9.4532  -9.3626  -9.2839  -8.6772  -8.6746  -8.3034  -8.2557
    -7.5968  -7.1404  -6.7347  -6.6411  -6.0532  -5.9602  -5.2350  -4.7771
    -4.2763  -3.4441  -1.2473  -0.8570  -0.3015   0.5239   0.7694   1.1720
     1.5866   2.3373   2.4667   2.5201   2.9245   2.9321   2.9898   3.1436
     3.3037   3.6615   3.7897   4.2533   4.2711   4.2848   4.6843   4.7026
     4.9641   4.9907   5.3542   5.7033   5.7973   6.1204   6.1456   6.1561
     6.2992   6.6271   6.7272   6.8336   7.2968   7.3306   7.4144   7.4602
     7.7111   7.7159   7.7278   7.9094   7.9432   7.9659   8.1504   8.1607
     8.1621   8.4066   8.4089   8.4555   8.5771   8.7988   8.8448   9.0244
     9.2561   9.2758   9.2972   9.3040   9.3297   9.3808   9.4271   9.4551
     9.5351   9.5951   9.8865  10.1253  10.2566  10.3195  10.4207  10.5340
    10.5522  10.5562  10.6321  10.6409  10.7990  10.8601  10.8906  10.9689
    10.9695  11.1192  11.1537  11.3731  11.4294  11.4655  11.7161  11.9070
    11.9505  12.0043  12.2028  12.3799  12.4044  12.4259  12.4733  12.5625
    12.6932  12.7742  12.8690  13.0342  13.1256  13.2187  13.2851  13.4004
    13.4114  13.5286  13.5790  13.6366  13.7472  13.8010  13.8506  13.9169
    14.1032  14.1348  14.2672  14.2685  14.2861  14.6478  14.8022  14.8400
    14.9040  14.9483  15.0888  15.1188  15.1778  15.2582  15.2754  15.3037
    15.3061  15.3421  15.5036  15.5461  15.5532  15.6150  15.7226  15.7671
    15.7893  15.8041  15.9005  15.9717  16.0050  16.1800  16.1814  16.3934
    16.6010  16.6576  16.7498  16.7769  16.8113  16.8971  16.9157  17.0162
    17.0963  17.1380  17.1536  17.1625  17.3600  17.4575  17.4609  17.5087
    17.6219  17.6963  17.7427  17.9305  17.9602  18.1714  18.2086  18.3261
    18.3490  18.4220  18.5225  18.6208  18.7065  18.7071  18.8385  18.9789
    19.0229  19.0637  19.0733  19.1748  19.3352  19.3753  19.4145  19.5230
    19.6351  19.7882  19.9596  20.0048  20.0486  20.0810  20.2038  20.2138
    20.2501  20.3358  20.3965  20.5099  20.5106  20.6584  20.7227  20.7400
    20.8703  20.9418  20.9763  21.0624  21.1097  21.2069  21.3323  21.3847
    21.4240  21.4799  21.5130  21.6010  21.6074  21.6988  21.7271  21.7902
    21.9081  21.9113  21.9466  21.9760  22.0167  22.2457  22.3458  22.4243
    22.4315  22.4457  22.5490  22.6040  22.6388  22.7970  22.8247  22.8462
    22.8589  22.8661  23.1083  23.1579  23.1585  23.2517  23.3975  23.4456
    23.5804  23.6543  23.7491  23.8070  23.8092  24.0055  24.0488  24.1158
    24.2081  24.3796  24.4324  24.5481  24.8119  24.9110  25.0184  25.1123
    25.1289  25.2485  25.3086  25.5214  25.5362  25.5767  25.6419  25.7089
    25.7208  25.7853  25.8136  25.8752  25.9197  25.9695  26.0425  26.2078
    26.2230  26.2464  26.2859  26.4290  26.5420  26.6025  26.6369  26.6773
    26.8094  26.8541  26.8697  27.1018  27.1032  27.1863  27.2140  27.2755
    27.2994  27.3604  27.3868  27.3972  27.4556  27.6175  27.7182  27.8429
    27.8619  27.9686  27.9885  28.1793  28.1987  28.2309  28.2399  28.3564
    28.3753  28.4892  28.5760  28.6302  28.6721  28.9403  28.9577  28.9625
    29.0235  29.0953  29.1702  29.3469  29.3616  29.4196  29.4203  29.5406
    29.6411  29.8393  29.9012  29.9303  30.0348  30.1556  30.2217  30.2724
    30.3267  30.3286  30.3912  30.6197  30.6207  30.7544  30.7787  31.0425
    31.1138  31.1280  31.1711  31.2020  31.2127  31.2711  31.2847  31.4996
    31.5020  31.5606  31.7250  31.7296  31.8703  31.9105  31.9687  32.0181
    32.0413  32.0515  32.1838  32.1885  32.2342  32.2776  32.3539  32.3653
    32.3928  32.4753  32.4901  32.5453  32.6636  32.6752  32.6885  32.7428
    32.7905  32.8595  32.9379  32.9424  32.9817  33.0739  33.1181  33.1599
    33.2195  33.2388  33.2455  33.2711  33.2726  33.3357  33.3778  33.4289
    33.4466  33.5361  33.6098  33.6316  33.6698  33.6979  33.7966  33.8288
    34.0279  34.1237  34.1480  34.1641  34.3319  34.3362  34.3956  34.5386
    34.5490  34.6690  34.6758  34.7739  34.8678  34.9464  34.9962  35.0173
    35.0728  35.1061  35.1736  35.2206  35.3532  35.3870  35.4327  35.4995
    35.5907  35.5920  35.6497  35.7465  35.8436  35.8451  35.9590  35.9854
    36.1509  36.2083  36.2728  36.3573  36.3628  36.3764  36.4827  36.5317
    36.6562  36.6771  36.7397  36.7448  36.9200  36.9562  36.9938  37.0244
    37.0873  37.1080  37.1512  37.3109  37.3324  37.3436  37.3470  37.6583
    37.6591  37.6864  37.7063  37.7262  37.7343  37.7980  37.9002  37.9103
    37.9844  38.0314  38.0982  38.1096

          k = 0.0000 0.0000 0.0376 ( 23890 PWs)   bands (ev):

   -30.0700 -30.0671 -28.6777 -28.6746 -21.8201 -21.0532 -19.5203 -18.0009
   -17.7605 -17.2519 -16.5682 -15.1340 -14.9397 -14.4213 -13.8641 -12.8484
   -12.7912 -12.4386 -11.9881 -11.8181 -11.0967 -10.7905 -10.7287 -10.5814
   -10.2407  -9.4257  -9.4177  -9.2322  -8.7082  -8.7057  -8.2836  -8.2229
    -7.6579  -7.2091  -6.8394  -6.6116  -6.0809  -5.9804  -5.3936  -4.7846
    -4.4170  -3.5522  -1.1451  -0.6710  -0.0919   0.4809   0.8163   1.2173
     1.6315   2.3755   2.5145   2.5629   2.9721   2.9777   3.0280   3.0625
     3.3482   3.7091   3.8236   4.2999   4.3076   4.3355   4.7320   4.7517
     4.9147   5.0007   5.3885   5.6683   5.6996   6.1480   6.1719   6.1860
     6.1974   6.4848   6.6693   6.8397   7.1721   7.3179   7.3594   7.5013
     7.5305   7.6105   7.7344   7.7525   7.8080   7.9505   8.0518   8.0670
     8.1869   8.2541   8.3197   8.4482   8.5104   8.6218   8.7423   9.0607
     9.1298   9.1558   9.2216   9.2272   9.3249   9.3445   9.3929   9.4107
     9.4519   9.4975   9.7497  10.0771  10.1390  10.2664  10.3089  10.4441
    10.4503  10.4675  10.5424  10.5983  10.8017  10.8021  10.8854  11.0142
    11.0983  11.2574  11.2847  11.4553  11.4847  11.5140  11.7287  11.7882
    11.9018  12.0180  12.0413  12.3219  12.3979  12.4371  12.5740  12.7311
    12.7711  12.7764  12.8759  13.0079  13.1138  13.2700  13.2953  13.3045
    13.5256  13.6589  13.7083  13.7466  13.7613  13.8053  13.8902  14.0068
    14.1931  14.2313  14.2517  14.3173  14.3195  14.6475  14.8791  14.9416
    14.9563  14.9597  15.0304  15.0966  15.2285  15.2539  15.2901  15.2966
    15.3672  15.3717  15.5256  15.5593  15.6078  15.6826  15.7202  15.8228
    15.8313  15.8990  15.9390  15.9653  15.9899  16.1424  16.2533  16.4464
    16.5463  16.6981  16.8063  16.8267  16.8729  16.8913  16.8948  16.9560
    17.0210  17.1020  17.1457  17.2663  17.4398  17.4994  17.5588  17.6412
    17.6813  17.8008  17.8067  18.0547  18.0651  18.1702  18.2190  18.3011
    18.3569  18.5171  18.5552  18.6227  18.8137  18.8755  18.9497  19.0160
    19.0538  19.1179  19.1480  19.1822  19.3712  19.4383  19.5627  19.6350
    19.7957  19.8321  20.0190  20.1660  20.1894  20.2005  20.3024  20.3805
    20.3857  20.4074  20.4750  20.5286  20.6023  20.6705  20.7635  20.7856
    20.7974  20.9304  20.9774  21.0972  21.1168  21.1660  21.2055  21.2576
    21.4320  21.4949  21.5563  21.5575  21.6039  21.6248  21.8417  21.9284
    21.9445  21.9768  21.9803  22.0193  22.1204  22.1288  22.2423  22.3208
    22.4270  22.4360  22.5442  22.5551  22.6058  22.7039  22.8764  22.9271
    22.9345  22.9487  23.2133  23.2444  23.3011  23.3314  23.4411  23.5478
    23.6329  23.6474  23.7177  23.8278  23.8635  24.0642  24.0909  24.1195
    24.2931  24.3499  24.4430  24.4567  24.6776  24.8830  24.9742  25.0945
    25.1069  25.1561  25.2541  25.4706  25.5203  25.6451  25.6830  25.7840
    25.8263  25.8368  25.9128  25.9334  25.9559  26.0281  26.1574  26.2496
    26.2741  26.2988  26.3326  26.5457  26.5821  26.6023  26.7453  26.7854
    26.8451  26.8882  26.9272  27.1673  27.1713  27.2445  27.2609  27.3255
    27.3712  27.4487  27.5187  27.5398  27.5909  27.6599  27.7042  27.7260
    27.9212  27.9392  27.9525  28.2478  28.2663  28.2870  28.3002  28.3224
    28.3744  28.4139  28.4215  28.5029  28.5865  28.6309  28.8330  28.9684
    29.0712  29.1112  29.1765  29.1824  29.3864  29.4439  29.4909  29.6268
    29.6435  29.7523  29.8718  30.0068  30.0108  30.0391  30.0394  30.0960
    30.2440  30.2781  30.3322  30.6680  30.6827  30.7011  30.7037  30.8070
    30.9125  30.9757  30.9841  31.0575  31.1360  31.1510  31.3024  31.3117
    31.3444  31.3457  31.4826  31.5996  31.6279  31.7239  31.7831  31.8635
    31.9074  31.9138  32.0507  32.1231  32.1445  32.2071  32.2329  32.2796
    32.3585  32.4009  32.4379  32.5445  32.5497  32.5766  32.6540  32.6626
    32.6918  32.7173  32.8150  32.8312  32.8333  32.9873  32.9891  33.0123
    33.0356  33.0566  33.0619  33.0886  33.1270  33.2604  33.3099  33.4125
    33.4995  33.5341  33.6094  33.6405  33.6509  33.7416  33.8158  33.9177
    33.9438  34.0683  34.0728  34.0865  34.1325  34.1742  34.2244  34.3532
    34.5474  34.5640  34.7160  34.7970  34.8512  34.8615  34.8870  34.9250
    34.9352  34.9364  35.0930  35.1108  35.1633  35.1799  35.3336  35.4007
    35.5154  35.5351  35.5608  35.6424  35.7070  35.7823  35.8715  35.9475
    35.9687  36.0095  36.1186  36.1924  36.2298  36.3793  36.4195  36.4544
    36.5252  36.6902  36.7469  36.7870  36.8804  36.8851  36.9375  36.9586
    37.0319  37.0502  37.0703  37.1976  37.2288  37.3043  37.4076  37.4489
    37.4849  37.5541  37.6215  37.7500  37.7595  37.7821  37.7833  37.8681
    38.0537  38.0606  38.0857  38.1678

          k = 0.0000 0.0000 0.0423 ( 23886 PWs)   bands (ev):

   -30.0496 -30.0467 -28.7058 -28.7026 -21.7805 -21.0151 -19.4854 -18.1731
   -17.8071 -17.3343 -16.6382 -15.1300 -14.8402 -14.2272 -13.9342 -12.7425
   -12.7406 -12.4064 -11.9663 -11.7520 -11.1542 -10.7599 -10.7005 -10.5297
   -10.1875  -9.4894  -9.3776  -9.1786  -8.7426  -8.7401  -8.2700  -8.1857
    -7.7218  -7.2857  -6.9527  -6.5785  -6.1132  -6.0046  -5.5575  -4.8207
    -4.5290  -3.6633  -1.0398  -0.4853   0.1294   0.4399   0.8694   1.2683
     1.6821   2.4186   2.5685   2.6103   2.9720   3.0260   3.0294   3.0709
     3.4015   3.7629   3.8618   4.3462   4.3524   4.3923   4.7851   4.8069
     4.8644   5.0058   5.4279   5.5924   5.6429   6.0419   6.1319   6.2297
     6.2557   6.2681   6.7199   6.7914   7.0853   7.1446   7.3903   7.4704
     7.4763   7.5167   7.5744   7.5939   7.7853   7.8197   8.0286   8.0356
     8.0663   8.0812   8.2407   8.4519   8.4880   8.5596   8.6511   8.9187
     8.9433   9.1187   9.1334   9.1374   9.2570   9.2641   9.4135   9.4210
     9.4565   9.5309   9.6538   9.8426   9.9144  10.1239  10.3197  10.3650
    10.3655  10.4146  10.5660  10.6157  10.7192  10.8375  10.9227  11.0662
    11.1618  11.3925  11.4261  11.4563  11.4658  11.5779  11.7026  11.7778
    11.8335  11.8429  12.0368  12.2339  12.4477  12.4501  12.5284  12.5798
    12.7892  12.9012  13.0660  13.1303  13.1432  13.1570  13.3294  13.3578
    13.5330  13.5454  13.5968  13.6225  13.9580  13.9936  14.1003  14.1343
    14.1608  14.1724  14.3030  14.5720  14.5836  14.6455  14.7786  14.7836
    14.8351  15.0657  15.0694  15.1041  15.1640  15.2161  15.3666  15.3949
    15.3996  15.4520  15.6234  15.6575  15.6810  15.6940  15.8072  15.9018
    15.9377  15.9850  16.0030  16.0168  16.0374  16.2466  16.2831  16.5213
    16.5681  16.6601  16.6905  16.7629  16.8726  16.8831  16.9523  16.9885
    17.0851  17.0942  17.1916  17.3327  17.5667  17.6042  17.6090  17.7006
    17.7899  17.8378  17.8799  18.0194  18.0479  18.0649  18.3118  18.3404
    18.4321  18.5909  18.7205  18.8064  18.8259  18.9130  18.9407  19.1081
    19.1205  19.1341  19.3602  19.4045  19.4141  19.4897  19.6692  19.8188
    19.8770  20.0273  20.0795  20.0870  20.1253  20.3139  20.3757  20.4721
    20.5282  20.5311  20.6119  20.6586  20.6646  20.6999  20.7524  20.7670
    20.9084  20.9126  21.0627  21.0642  21.1125  21.1162  21.1299  21.2760
    21.4112  21.4690  21.4898  21.5033  21.5679  21.6410  21.9326  21.9333
    21.9939  22.0272  22.0451  22.0952  22.1672  22.1776  22.2223  22.2872
    22.3329  22.3656  22.5274  22.5830  22.5937  22.8323  22.9634  23.0002
    23.0467  23.0510  23.1511  23.2873  23.3564  23.3778  23.4253  23.4385
    23.6593  23.7141  23.7555  23.8735  23.9833  24.2121  24.2198  24.3035
    24.3217  24.3236  24.4930  24.5644  24.6297  24.7321  24.9017  25.0420
    25.0615  25.1466  25.2124  25.2879  25.4283  25.6421  25.7087  25.7337
    25.8547  25.8777  25.9742  25.9814  26.0284  26.1264  26.2454  26.3431
    26.3507  26.4527  26.5794  26.6088  26.6131  26.6424  26.8475  26.9087
    26.9676  26.9855  27.0530  27.1876  27.1882  27.2385  27.2771  27.3635
    27.3803  27.4323  27.5387  27.5480  27.6302  27.7473  27.7612  27.8865
    27.9136  28.0218  28.0382  28.1075  28.1440  28.2453  28.3122  28.3415
    28.3466  28.3940  28.4108  28.4461  28.4731  28.5142  28.8203  28.8842
    28.9402  29.0447  29.1068  29.2473  29.2596  29.3301  29.5288  29.6169
    29.6800  29.7404  29.7426  29.8496  29.9098  29.9999  30.0641  30.1065
    30.1670  30.2244  30.2369  30.3953  30.4212  30.5772  30.6209  30.7552
    30.7899  30.8248  30.8547  30.9175  30.9350  31.0356  31.0431  31.1470
    31.2033  31.2892  31.4387  31.4420  31.4628  31.5655  31.6412  31.6671
    31.6703  31.7504  31.8950  31.9803  32.0385  32.0773  32.0942  32.0998
    32.2809  32.3191  32.3376  32.3681  32.4500  32.4877  32.5823  32.6283
    32.6512  32.6656  32.7140  32.7844  32.8104  32.8643  32.8648  32.8998
    32.9374  32.9430  33.0797  33.0817  33.0821  33.2389  33.2988  33.4434
    33.4447  33.5966  33.6019  33.6110  33.6774  33.7298  33.8185  33.8191
    33.9034  33.9239  34.0061  34.0160  34.0926  34.1027  34.1707  34.2142
    34.3632  34.4024  34.6040  34.6061  34.6474  34.7228  34.7312  34.8910
    34.9793  35.0466  35.0755  35.0807  35.1294  35.1888  35.3076  35.3120
    35.4089  35.4795  35.4903  35.5002  35.5339  35.5447  35.6620  35.8059
    35.8585  35.8838  36.0562  36.0771  36.1001  36.2386  36.3269  36.4212
    36.4248  36.5196  36.6142  36.6705  36.6844  36.8363  36.8429  36.8879
    36.9559  36.9646  37.0156  37.0850  37.2046  37.2247  37.3124  37.4404
    37.4570  37.5211  37.5820  37.6521  37.7524  37.7891  37.8063  37.8636
    37.8872  37.9505  37.9515  38.0106

          k = 0.0000 0.0000 0.0469 ( 23896 PWs)   bands (ev):

   -30.0271 -30.0241 -28.7365 -28.7333 -21.7364 -20.9725 -19.4470 -18.3425
   -17.8893 -17.3764 -16.7189 -15.1202 -14.7606 -14.0275 -13.9912 -12.7194
   -12.6279 -12.3587 -11.9258 -11.6849 -11.2128 -10.7262 -10.6694 -10.4771
   -10.1325  -9.5524  -9.3328  -9.1250  -8.7801  -8.7776  -8.2634  -8.1442
    -7.7874  -7.3695  -7.0743  -6.5423  -6.1497  -6.0336  -5.7243  -4.9092
    -4.5875  -3.7763  -0.9322  -0.3074   0.3600   0.4075   0.9286   1.3251
     1.7380   2.4662   2.6283   2.6616   2.8754   3.0861   3.0871   3.1185
     3.4621   3.8223   3.9040   4.3855   4.4103   4.4553   4.8046   4.8524
     4.8674   5.0072   5.4709   5.4770   5.6237   5.8609   6.0936   6.1020
     6.2936   6.3204   6.6924   6.7759   6.9166   7.0781   7.3010   7.3685
     7.3769   7.4159   7.4794   7.5915   7.6281   7.8184   7.8189   7.8654
     7.9557   8.1349   8.2417   8.3141   8.5083   8.5851   8.6128   8.6671
     8.7521   9.0437   9.0762   9.1351   9.1682   9.1686   9.4602   9.4787
     9.4919   9.5110   9.6064   9.6424   9.6733   9.9740  10.1841  10.2906
    10.3010  10.4169  10.6276  10.6634  10.7182  10.8923  10.9539  11.1242
    11.2166  11.3809  11.3905  11.4481  11.5355  11.5531  11.6123  11.6728
    11.7900  11.9911  12.0438  12.1544  12.3223  12.4376  12.5069  12.5519
    12.7910  12.9305  13.0505  13.0692  13.2413  13.2444  13.2581  13.4695
    13.4931  13.5547  13.5865  13.6432  13.9528  14.0464  14.0815  14.1753
    14.2285  14.3593  14.5283  14.5729  14.6038  14.6387  14.7211  14.8585
    14.9090  14.9666  14.9741  15.1666  15.1781  15.3989  15.4004  15.4545
    15.4768  15.6074  15.6085  15.7257  15.7777  15.7920  15.8605  15.9066
    16.0140  16.0209  16.0545  16.0785  16.2268  16.3125  16.4043  16.5677
    16.5972  16.6614  16.7023  16.8550  16.8841  16.8919  16.9313  17.0790
    17.1261  17.1661  17.2585  17.3470  17.6100  17.6430  17.6726  17.8195
    17.8426  17.8698  17.8761  17.8940  17.9377  18.1976  18.4238  18.4430
    18.4717  18.7195  18.7955  18.8714  18.9470  18.9693  18.9840  19.1184
    19.1934  19.3304  19.4470  19.4847  19.7442  19.7525  19.7682  19.8765
    19.8871  19.9711  20.1330  20.1610  20.1700  20.2852  20.4813  20.5036
    20.5121  20.5496  20.5756  20.6167  20.6826  20.7505  20.7652  21.0069
    21.0069  21.0110  21.0631  21.1272  21.1584  21.1741  21.2341  21.3751
    21.3780  21.3923  21.4753  21.5230  21.5685  21.7367  21.7879  21.8707
    21.9758  21.9759  22.0597  22.0766  22.1362  22.2179  22.2711  22.3852
    22.4832  22.5356  22.5546  22.5555  22.6103  22.8724  23.0235  23.0794
    23.1390  23.1700  23.1813  23.1851  23.3005  23.4729  23.4828  23.5191
    23.6275  23.6461  23.6830  24.1006  24.1979  24.2155  24.2168  24.4022
    24.4314  24.5368  24.5807  24.5838  24.6382  24.7799  24.8119  24.9855
    25.0428  25.1151  25.2102  25.2560  25.3196  25.5889  25.6684  25.7294
    25.7640  25.9232  25.9434  25.9935  26.0192  26.1814  26.4082  26.4327
    26.5699  26.5965  26.6354  26.6558  26.7235  26.9120  26.9455  26.9953
    27.0324  27.0482  27.1429  27.1870  27.2011  27.3041  27.3140  27.3467
    27.3511  27.4124  27.4545  27.5375  27.6572  27.7152  27.7400  27.8122
    27.9334  27.9518  28.0394  28.0601  28.0901  28.1812  28.2059  28.3474
    28.4167  28.5029  28.5094  28.5121  28.5182  28.5855  28.6017  28.7023
    29.0096  29.0411  29.0417  29.1344  29.2390  29.3325  29.3809  29.4033
    29.5843  29.6698  29.6973  29.7008  29.7839  29.8260  29.8457  29.9073
    30.1492  30.1969  30.2298  30.2435  30.2917  30.3732  30.3936  30.5113
    30.5278  30.6656  30.7182  30.8483  30.9900  31.0046  31.0714  31.0734
    31.1351  31.2163  31.2194  31.2357  31.3031  31.3086  31.3532  31.5249
    31.5556  31.6289  31.6671  31.7458  31.9391  31.9881  32.0239  32.0437
    32.1136  32.1763  32.2541  32.3001  32.3047  32.4458  32.5165  32.5197
    32.6400  32.6428  32.6475  32.7247  32.7628  32.7908  32.8030  32.8635
    32.9391  32.9479  32.9649  32.9769  33.1872  33.1951  33.2307  33.3615
    33.3785  33.5239  33.5594  33.5685  33.6605  33.6817  33.7307  33.7384
    33.8697  33.9525  33.9538  33.9644  34.0514  34.1422  34.1666  34.1816
    34.2384  34.3366  34.4196  34.4541  34.5487  34.7030  34.7220  34.7239
    34.7823  34.9456  35.0330  35.0566  35.0704  35.1268  35.1312  35.1761
    35.2208  35.3281  35.4373  35.4882  35.5439  35.6055  35.6634  35.8148
    35.8219  35.8608  35.8986  35.9543  35.9806  36.0511  36.1712  36.2141
    36.2220  36.2518  36.3986  36.4733  36.5425  36.6425  36.6897  36.8059
    36.8964  36.9811  37.0957  37.1210  37.2087  37.2108  37.3368  37.3501
    37.3818  37.3893  37.4566  37.4857  37.5115  37.5355  37.7460  37.7848
    37.8026  37.8543  37.9146  37.9894

          k = 0.0000 0.0000 0.0516 ( 23914 PWs)   bands (ev):

   -30.0024 -29.9995 -28.7696 -28.7664 -21.6876 -20.9256 -19.4057 -18.5081
   -18.0000 -17.3852 -16.8085 -15.1030 -14.7103 -14.0241 -13.8262 -12.7314
   -12.5070 -12.2872 -11.8713 -11.6199 -11.2691 -10.6896 -10.6357 -10.4263
   -10.0755  -9.6124  -9.2836  -9.0740  -8.8205  -8.8177  -8.2640  -8.0983
    -7.8530  -7.4592  -7.2038  -6.5034  -6.1886  -6.0670  -5.8919  -5.0393
    -4.6023  -3.8903  -0.8230  -0.1523   0.3987   0.5981   0.9939   1.3874
     1.7992   2.5181   2.6900   2.7165   2.7780   3.1508   3.1525   3.1709
     3.5295   3.8865   3.9504   4.4234   4.4730   4.5244   4.7534   4.9163
     4.9311   5.0096   5.3548   5.5082   5.6014   5.6631   5.9576   6.0548
     6.3636   6.3910   6.6034   6.6747   6.8472   7.0714   7.0802   7.2134
     7.2352   7.3899   7.4041   7.5066   7.5786   7.6221   7.6941   7.7875
     7.9583   8.0792   8.1963   8.3409   8.4179   8.4883   8.5514   8.5514
     8.6355   8.9966   9.0167   9.0273   9.0816   9.2184   9.3651   9.3730
     9.4489   9.5211   9.5452   9.5730   9.6888   9.8745  10.0212  10.2291
    10.2440  10.4446  10.6291  10.6374  10.8212  10.9599  10.9750  11.1877
    11.2365  11.3134  11.3202  11.3668  11.4073  11.5992  11.6026  11.6465
    11.7907  11.9873  12.0755  12.1167  12.2637  12.3240  12.5740  12.6103
    12.7417  12.9279  13.0133  13.0137  13.1034  13.1160  13.3085  13.4362
    13.5641  13.6190  13.7105  13.8237  13.8662  14.0238  14.0465  14.3362
    14.3549  14.3559  14.4904  14.5071  14.5252  14.6496  14.6674  14.9796
    15.0186  15.0889  15.1374  15.1660  15.3410  15.3545  15.4522  15.5286
    15.5328  15.7393  15.7550  15.7632  15.8394  15.8737  15.8898  15.9033
    16.0409  16.0847  16.0934  16.1918  16.3059  16.3484  16.4781  16.6584
    16.6904  16.6928  16.8297  16.8872  16.9848  16.9987  17.1336  17.1612
    17.2009  17.2347  17.3174  17.3382  17.5926  17.5999  17.7379  17.7531
    17.7848  17.8347  17.8693  17.9911  18.0923  18.3265  18.4590  18.5709
    18.5797  18.7948  18.8342  18.8522  18.8708  19.0428  19.1458  19.3052
    19.4282  19.5375  19.5698  19.6247  19.7378  19.8180  19.8572  19.9093
    19.9512  20.0361  20.1660  20.1835  20.2324  20.4030  20.4187  20.4734
    20.5283  20.5661  20.5691  20.5790  20.6334  20.7811  20.8353  20.8879
    21.0890  21.0962  21.1307  21.2774  21.2932  21.3083  21.3529  21.3966
    21.4154  21.5564  21.5612  21.6000  21.6598  21.6744  21.6908  21.8291
    21.9231  21.9671  22.0382  22.0667  22.2223  22.2822  22.2932  22.4790
    22.4797  22.5458  22.6289  22.6409  22.7268  22.7424  22.9328  23.2209
    23.2246  23.2702  23.3227  23.3237  23.3952  23.4772  23.5224  23.6015
    23.6021  23.6412  23.7854  24.0476  24.1064  24.1747  24.3371  24.5146
    24.5198  24.5787  24.6876  24.7192  24.7443  24.7911  24.8597  24.9200
    25.1644  25.1919  25.2227  25.2915  25.3445  25.5374  25.5595  25.6928
    25.7674  25.9174  25.9432  26.0084  26.0344  26.2073  26.4552  26.4568
    26.5822  26.6803  26.7594  26.8169  26.8634  26.9192  26.9580  26.9891
    27.0128  27.0748  27.1717  27.1958  27.2319  27.2759  27.2993  27.3700
    27.3789  27.4523  27.4713  27.4933  27.7264  27.7497  27.7749  27.7921
    27.8336  27.8601  27.9117  27.9823  27.9941  28.0118  28.2020  28.3425
    28.3559  28.4848  28.5288  28.5844  28.6991  28.7466  28.7832  28.8241
    28.8702  28.8731  28.9524  29.0869  29.1506  29.1977  29.2325  29.3548
    29.4065  29.4277  29.5327  29.5615  29.5763  29.6050  29.7936  29.7943
    29.9041  29.9855  30.0093  30.1216  30.1348  30.2658  30.4341  30.4372
    30.4427  30.6062  30.6244  30.6404  30.6507  30.9036  31.0276  31.0420
    31.0520  31.0740  31.1052  31.1526  31.2081  31.2136  31.2619  31.3226
    31.3988  31.4972  31.6581  31.6586  31.8055  31.9250  31.9552  32.0019
    32.0342  32.0514  32.1394  32.1568  32.2695  32.3040  32.3536  32.3780
    32.4873  32.5581  32.5652  32.6048  32.6901  32.7323  32.8026  32.8284
    32.8661  32.9076  32.9766  32.9962  33.1354  33.1560  33.1886  33.3027
    33.3608  33.3795  33.4209  33.4382  33.6086  33.6736  33.7138  33.7343
    33.8587  33.8941  33.9190  34.0126  34.0232  34.1347  34.1752  34.2261
    34.2714  34.3157  34.3294  34.3680  34.4534  34.4883  34.5194  34.5615
    34.6263  34.7290  34.8437  34.8908  35.0490  35.1182  35.1508  35.2123
    35.2653  35.2786  35.3455  35.4640  35.4863  35.5557  35.6600  35.6621
    35.6933  35.7568  35.7693  35.7698  35.8195  35.9361  36.1085  36.1274
    36.1850  36.1912  36.2489  36.4868  36.4962  36.5181  36.6137  36.6908
    36.7192  36.8393  36.8963  36.9148  37.0517  37.0814  37.1781  37.2224
    37.2893  37.3386  37.3546  37.3707  37.5105  37.5527  37.6664  37.7201
    37.7236  37.7598  37.8892  37.8939

          k = 0.0000 0.0000 0.0563 ( 23896 PWs)   bands (ev):

   -29.9758 -29.9728 -28.8048 -28.8017 -21.6343 -20.8744 -19.3624 -18.6688
   -18.1269 -17.3729 -16.9053 -15.0782 -14.6975 -14.0226 -13.6268 -12.7674
   -12.3825 -12.1945 -11.8082 -11.5658 -11.3131 -10.6504 -10.5996 -10.3813
   -10.0168  -9.6663  -9.2304  -9.0283  -8.8634  -8.8594  -8.2717  -8.0480
    -7.9172  -7.5535  -7.3411  -6.4635  -6.2289  -6.1046  -6.0575  -5.1863
    -4.5977  -4.0045  -0.7125  -0.0483   0.4419   0.8417   1.0652   1.4552
     1.8653   2.5741   2.6574   2.7742   2.7772   3.2203   3.2250   3.2282
     3.6034   3.9522   4.0028   4.4576   4.5388   4.5997   4.6988   4.9802
     4.9890   5.0333   5.2283   5.4115   5.5612   5.5951   5.8488   6.0003
     6.4393   6.4441   6.4671   6.5476   6.8520   6.9166   6.9602   7.0499
     7.1856   7.2164   7.3027   7.3618   7.4212   7.6143   7.6156   7.7667
     7.9151   8.0245   8.1734   8.2626   8.3491   8.3823   8.4178   8.4428
     8.6839   8.9436   8.9788   8.9939   9.0146   9.1479   9.1523   9.2120
     9.3303   9.5898   9.6188   9.6419   9.7390   9.8441   9.8786  10.1600
    10.1737  10.4512  10.6271  10.6529  10.8554  10.9368  11.0440  11.0693
    11.2352  11.2734  11.3046  11.3510  11.3690  11.5359  11.5988  11.6513
    11.8001  11.9374  11.9846  12.0361  12.2027  12.4798  12.6512  12.6594
    12.6801  12.7883  12.8182  13.0278  13.0845  13.1449  13.2198  13.4370
    13.5666  13.5980  13.6930  13.6976  14.0211  14.1611  14.1733  14.3371
    14.3461  14.3646  14.4654  14.4709  14.4736  14.5550  14.7039  15.0621
    15.1859  15.2080  15.2375  15.3235  15.3454  15.3998  15.5492  15.5738
    15.5999  15.7183  15.7959  15.8233  15.9169  15.9465  15.9864  16.0162
    16.0956  16.1284  16.2166  16.2313  16.3199  16.5068  16.5611  16.7057
    16.7360  16.8110  16.8636  17.0499  17.0734  17.1671  17.2199  17.2938
    17.3118  17.3759  17.3998  17.5204  17.5323  17.5885  17.6564  17.7018
    17.8055  17.8071  17.9585  18.1369  18.3086  18.4114  18.4874  18.5912
    18.6955  18.7221  18.7977  18.9000  18.9916  19.1021  19.4237  19.5240
    19.5874  19.5878  19.6097  19.6674  19.6782  19.8336  19.9429  19.9473
    19.9655  20.1310  20.1824  20.2945  20.3280  20.3577  20.3775  20.4524
    20.5114  20.5542  20.6753  20.7252  20.7280  20.7737  20.8078  20.8533
    21.0885  21.1445  21.2355  21.2402  21.3337  21.3940  21.4352  21.4388
    21.4840  21.6152  21.6516  21.6717  21.7164  21.7793  21.8700  21.9062
    21.9361  22.0629  22.0634  22.1696  22.2594  22.3126  22.3136  22.4064
    22.4724  22.5898  22.6131  22.7253  22.7487  22.8017  22.8480  23.3034
    23.3887  23.4160  23.4251  23.4303  23.4840  23.5092  23.5606  23.6099
    23.7118  23.7674  23.9505  23.9808  24.0929  24.1243  24.3085  24.4455
    24.5143  24.5684  24.5948  24.6068  25.0016  25.0507  25.0601  25.1172
    25.1819  25.2288  25.2294  25.3686  25.4418  25.5309  25.6899  25.7174
    25.7590  25.8707  25.9481  26.0102  26.0744  26.2521  26.3845  26.4459
    26.4817  26.6137  26.7084  26.7588  26.8180  26.8494  26.9006  26.9016
    26.9338  27.0370  27.1556  27.2364  27.3192  27.3828  27.3851  27.3968
    27.4516  27.4958  27.5077  27.5712  27.6086  27.7075  27.7451  27.8074
    27.8139  27.8896  27.8954  27.9285  27.9574  28.0423  28.1642  28.2752
    28.3243  28.3669  28.4688  28.5117  28.6308  28.6752  28.6901  28.8948
    28.9025  28.9402  29.0070  29.0077  29.0205  29.0863  29.1464  29.1466
    29.1610  29.2403  29.3672  29.3689  29.5123  29.6610  29.7052  29.7585
    29.7663  29.8767  29.9023  30.0200  30.0758  30.1112  30.1480  30.3074
    30.3151  30.3365  30.3584  30.5171  30.6201  30.7788  30.8082  30.8684
    31.0047  31.0391  31.0464  31.1517  31.1567  31.2103  31.3194  31.3816
    31.4031  31.4064  31.5010  31.5847  31.5989  31.7606  31.8238  31.9301
    31.9638  31.9711  32.0623  32.1102  32.1263  32.1339  32.2217  32.3118
    32.3876  32.3996  32.4002  32.4661  32.5089  32.5662  32.7357  32.7917
    32.8633  32.9050  32.9861  33.0078  33.0445  33.1181  33.2113  33.2549
    33.2879  33.3430  33.3873  33.3995  33.5585  33.6372  33.7013  33.7307
    33.7853  33.8204  33.8936  33.9388  33.9659  33.9767  34.0781  34.1273
    34.1293  34.2157  34.2731  34.3823  34.3969  34.4368  34.4524  34.5286
    34.5767  34.6752  34.6924  34.8284  34.9411  35.0105  35.1497  35.1787
    35.1911  35.2267  35.2751  35.3980  35.4051  35.5006  35.5260  35.5438
    35.6191  35.6641  35.6930  35.7304  35.7890  35.9394  36.0265  36.0868
    36.1330  36.1914  36.2148  36.3188  36.3308  36.5017  36.5765  36.5769
    36.6374  36.6406  36.7532  36.7877  36.9175  36.9811  37.0736  37.1565
    37.1715  37.2091  37.2242  37.2873  37.3910  37.4152  37.5337  37.6195
    37.6312  37.6940  37.7548  37.8083

          k = 0.0000 0.0000 0.0610 ( 23910 PWs)   bands (ev):

   -29.9473 -29.9443 -28.8420 -28.8388 -21.5763 -20.8188 -19.3200 -18.8214
   -18.2614 -17.3482 -17.0076 -15.0463 -14.7220 -13.9857 -13.4343 -12.8146
   -12.2576 -12.0860 -11.7408 -11.5468 -11.3193 -10.6088 -10.5612 -10.3480
    -9.9564  -9.7093  -9.1743  -8.9910  -8.9088  -8.9013  -8.2859  -7.9934
    -7.9784  -7.6508  -7.4858  -6.4304  -6.2701  -6.2125  -6.1462  -5.3384
    -4.5852  -4.1184  -0.6011  -0.0140   0.5556   1.0891   1.1424   1.5284
     1.9358   2.5516   2.6337   2.8338   2.8536   3.2908   3.2955   3.3037
     3.6839   4.0111   4.0670   4.4848   4.6035   4.6431   4.6812   4.9932
     5.0674   5.1009   5.1026   5.2104   5.4925   5.6285   5.7718   5.9598
     6.2192   6.5066   6.5191   6.5467   6.6267   6.8222   6.8796   6.9830
     6.9890   7.1000   7.1008   7.3154   7.3384   7.4217   7.6602   7.8003
     7.8465   7.9356   8.0986   8.1501   8.2695   8.2909   8.3517   8.4131
     8.7472   8.8481   8.8815   8.9276   8.9645   8.9956   9.0371   9.0738
     9.3752   9.6649   9.6986   9.7173   9.7657   9.7742   9.8764  10.0667
    10.0751  10.4404  10.6332  10.7033  10.8234  10.8277  10.9136  11.0581
    11.1844  11.3309  11.3353  11.3548  11.3988  11.4595  11.5325  11.6535
    11.7115  11.8765  11.9638  12.0806  12.1148  12.5730  12.5750  12.6541
    12.6574  12.7477  12.7499  13.0525  13.0662  13.0920  13.1699  13.3916
    13.5540  13.5769  13.5875  13.6299  14.0257  14.1880  14.1972  14.2324
    14.3117  14.4106  14.5244  14.5395  14.5650  14.5869  14.8976  14.9189
    15.1713  15.2760  15.3729  15.3896  15.4432  15.5172  15.5275  15.6130
    15.6959  15.7772  15.8199  15.8319  15.9639  15.9962  16.0046  16.1750
    16.2554  16.3049  16.3080  16.3177  16.4133  16.5944  16.6775  16.7637
    16.7930  16.9001  17.0375  17.0809  17.1153  17.2341  17.3489  17.3706
    17.3807  17.4079  17.5278  17.6595  17.6699  17.6746  17.6865  17.8505
    17.8627  17.8693  18.1284  18.2552  18.4655  18.4947  18.5212  18.5477
    18.6727  18.7833  18.8203  18.9241  19.0630  19.2357  19.4039  19.4804
    19.6020  19.6789  19.7183  19.7627  19.7790  19.7851  19.8927  20.0311
    20.0814  20.1995  20.2344  20.2868  20.2919  20.4117  20.4162  20.4557
    20.5844  20.7018  20.7261  20.7512  20.7518  20.7604  20.8900  21.0334
    21.0996  21.1533  21.1644  21.2539  21.3169  21.3782  21.4796  21.5802
    21.5854  21.6703  21.7021  21.7875  21.8187  21.8463  21.9526  21.9860
    22.0997  22.1251  22.1715  22.2051  22.2780  22.3714  22.4380  22.4827
    22.5668  22.5679  22.6939  22.7381  22.8083  22.8272  22.9184  23.3379
    23.3881  23.3993  23.4112  23.5224  23.5333  23.5773  23.6135  23.8569
    23.8675  23.9414  24.0705  24.0959  24.1077  24.1521  24.3242  24.3514
    24.3623  24.4960  24.5895  24.5967  25.0434  25.0537  25.1496  25.2349
    25.3249  25.3783  25.4453  25.4743  25.5076  25.6661  25.6952  25.7454
    25.8353  25.8727  25.9515  26.0568  26.0701  26.1392  26.3228  26.3945
    26.4861  26.4897  26.6021  26.6300  26.6773  26.6835  26.7198  26.7984
    26.9299  27.0990  27.1003  27.1527  27.2862  27.3209  27.4004  27.4135
    27.4600  27.4944  27.5889  27.6185  27.6338  27.6560  27.6706  27.8089
    27.8093  27.8767  27.8977  28.0316  28.0365  28.0503  28.1723  28.1952
    28.2675  28.2820  28.3282  28.4109  28.4701  28.5567  28.5762  28.6256
    28.7321  28.7448  28.8021  28.9453  28.9698  29.0257  29.0559  29.0747
    29.1775  29.2491  29.4123  29.4124  29.5027  29.5417  29.6389  29.6778
    29.7800  29.7992  29.8454  30.0048  30.0599  30.0646  30.1153  30.1322
    30.1474  30.1550  30.2240  30.3645  30.4961  30.5831  30.6989  30.8512
    30.9068  30.9498  31.0539  31.0542  31.0830  31.1341  31.2315  31.2380
    31.2849  31.3709  31.4344  31.4707  31.5725  31.7003  31.7461  31.8000
    31.8057  31.9148  31.9194  31.9875  32.0059  32.0621  32.0993  32.1791
    32.2309  32.2546  32.2875  32.3634  32.4619  32.4679  32.5795  32.7942
    32.8886  32.8974  32.9761  33.0152  33.0178  33.0731  33.1222  33.1469
    33.2790  33.2880  33.3301  33.4197  33.4532  33.5150  33.5916  33.6100
    33.7400  33.7786  33.8102  33.8320  33.8941  33.9067  33.9555  34.0289
    34.0664  34.1777  34.2205  34.2334  34.2468  34.2717  34.3051  34.5967
    34.6515  34.6959  34.7202  34.8219  34.8825  34.9360  35.0322  35.1185
    35.1334  35.2083  35.2405  35.2421  35.3366  35.3901  35.5301  35.5323
    35.5582  35.5705  35.6734  35.6850  35.8505  35.9049  35.9132  36.0689
    36.0914  36.1009  36.1985  36.2471  36.2490  36.3691  36.4600  36.4937
    36.6009  36.6209  36.6220  36.6794  36.7739  36.8822  36.9725  37.0579
    37.0631  37.1329  37.1703  37.2238  37.2469  37.3238  37.3938  37.4519
    37.4732  37.4825  37.4958  37.7130

          k = 0.0000 0.0000 0.0657 ( 23928 PWs)   bands (ev):

   -29.9171 -29.9141 -28.8808 -28.8776 -21.5138 -20.7589 -19.2873 -18.9572
   -18.3989 -17.3161 -17.1138 -15.0082 -14.7740 -13.9218 -13.2605 -12.8560
   -12.1360 -11.9653 -11.6718 -11.5770 -11.2718 -10.5652 -10.5210 -10.3337
    -9.8942  -9.7359  -9.1192  -8.9654  -8.9560  -8.9392  -8.3056  -8.0355
    -7.9344  -7.7487  -7.6377  -6.4595  -6.3112  -6.3006  -6.1911  -5.4911
    -4.5690  -4.2313  -0.4891  -0.0273   0.7181   1.2253   1.3379   1.6066
     2.0102   2.4430   2.6967   2.8945   2.9390   3.3588   3.3760   3.3884
     3.7708   4.0559   4.1461   4.5011   4.5862   4.6521   4.7689   4.9933
     4.9964   5.0135   5.1545   5.1825   5.4058   5.6218   5.7583   5.9425
     6.0085   6.4018   6.4309   6.5990   6.6161   6.7099   6.7252   6.7976
     6.8709   6.9155   7.0804   7.2182   7.2190   7.3819   7.6292   7.7116
     7.8073   7.9290   7.9621   8.0968   8.1073   8.1997   8.4196   8.4242
     8.6675   8.7003   8.7553   8.8225   8.8424   8.8921   9.0511   9.1504
     9.4402   9.6810   9.7458   9.7854   9.7985   9.8008   9.9434   9.9481
     9.9482  10.4211  10.6146  10.6507  10.7312  10.7727  10.9067  10.9305
    11.1989  11.2533  11.3295  11.3886  11.4496  11.4785  11.4923  11.5209
    11.7564  11.7778  11.9591  12.0897  12.1340  12.4517  12.4836  12.4941
    12.7588  12.7606  12.8618  12.9555  13.0634  13.0742  13.1300  13.2494
    13.4912  13.5765  13.5833  13.6489  14.0191  14.0194  14.0949  14.1491
    14.3183  14.3783  14.6185  14.6271  14.6917  14.7008  14.9107  15.0035
    15.2175  15.3090  15.4029  15.4147  15.4598  15.5425  15.5536  15.6517
    15.7118  15.8346  15.8472  15.8840  15.9913  16.0628  16.2563  16.2772
    16.2816  16.3584  16.4269  16.5085  16.5599  16.6747  16.8330  16.8716
    16.9295  17.0135  17.1260  17.1684  17.1925  17.2366  17.2657  17.3850
    17.4246  17.5977  17.6284  17.6578  17.8087  17.8685  17.8922  17.9541
    18.0713  18.1902  18.3449  18.3613  18.4759  18.5256  18.5683  18.6005
    18.7748  18.8366  18.8828  18.9527  19.0752  19.2057  19.2543  19.3405
    19.6078  19.6461  19.7303  19.8279  19.8884  19.9137  19.9369  20.1277
    20.1306  20.1371  20.2282  20.2687  20.4463  20.4799  20.4868  20.5520
    20.6477  20.6885  20.6941  20.7599  20.8910  20.9589  20.9745  21.0255
    21.0353  21.0536  21.2799  21.3729  21.4199  21.4811  21.5726  21.6119
    21.6538  21.6598  21.7677  21.7943  21.9234  21.9448  22.0294  22.0655
    22.1474  22.2101  22.2274  22.2727  22.3249  22.4907  22.5003  22.6024
    22.6785  22.7055  22.8413  22.8807  22.8816  22.9289  22.9922  23.3209
    23.3297  23.4165  23.4757  23.4811  23.5466  23.6133  23.6603  23.9619
    24.0529  24.1283  24.1553  24.1812  24.2234  24.2295  24.2651  24.2996
    24.4363  24.5544  24.6296  24.6633  24.8829  25.0640  25.1539  25.2052
    25.3328  25.3490  25.4933  25.5923  25.7008  25.7023  25.7446  25.8895
    25.8926  25.8946  25.9201  26.0034  26.0446  26.2005  26.2795  26.4107
    26.4234  26.4526  26.4669  26.5113  26.5435  26.6701  26.6894  26.7681
    26.8771  27.0094  27.0565  27.1087  27.1185  27.1251  27.2346  27.3080
    27.3291  27.4038  27.5056  27.5477  27.6111  27.6320  27.6795  27.8138
    27.8935  27.9036  27.9071  27.9420  27.9699  28.0553  28.1109  28.1160
    28.1315  28.1809  28.2637  28.4205  28.4256  28.4737  28.5563  28.5827
    28.5878  28.6509  28.6619  28.7337  28.8631  28.9266  28.9414  28.9671
    29.1158  29.2411  29.3023  29.4006  29.5426  29.5467  29.6239  29.7128
    29.7222  29.8661  29.9087  29.9229  29.9398  30.0393  30.1132  30.1408
    30.1997  30.2361  30.3225  30.3535  30.4438  30.5062  30.5600  30.6122
    30.6720  30.7610  30.7890  30.9346  30.9365  31.0878  31.1081  31.1603
    31.2304  31.3303  31.3338  31.3654  31.4723  31.5770  31.5915  31.6059
    31.7147  31.7183  31.7512  31.8242  31.9904  31.9908  32.0414  32.1008
    32.1745  32.2223  32.3256  32.3625  32.4217  32.4469  32.5203  32.5908
    32.6634  32.8945  32.9123  32.9604  32.9907  33.0723  33.0892  33.1109
    33.1691  33.2246  33.2269  33.3488  33.3732  33.4769  33.4847  33.5242
    33.5309  33.6512  33.6702  33.7437  33.7651  33.8153  33.8363  33.9568
    33.9745  34.1597  34.2412  34.2602  34.2958  34.3134  34.3964  34.4906
    34.5067  34.5756  34.6335  34.6514  34.9104  34.9355  34.9527  35.0747
    35.1363  35.1811  35.2137  35.2398  35.2683  35.3170  35.4212  35.4494
    35.5453  35.5632  35.5976  35.6570  35.8571  35.8660  35.9136  35.9687
    36.0758  36.1186  36.1500  36.2483  36.3524  36.4104  36.4342  36.4492
    36.4607  36.4790  36.5656  36.6073  36.6163  36.6656  36.7852  36.7989
    36.8682  37.0611  37.1242  37.1259  37.1424  37.2184  37.2877  37.3203
    37.3718  37.4482  37.4966  37.5433

          k = 0.0000 0.0000 0.0704 ( 23906 PWs)   bands (ev):

   -29.8853 -29.8823 -28.9208 -28.9177 -21.4468 -20.6949 -19.2956 -19.0445
   -18.5367 -17.2792 -17.2227 -14.9649 -14.8419 -13.8413 -13.1468 -12.8476
   -12.0232 -11.8350 -11.6308 -11.6025 -11.1922 -10.5201 -10.4793 -10.3439
    -9.8302  -9.7418  -9.0816  -9.0045  -8.9557  -8.9548  -8.3297  -8.0889
[...]
    13.4089  13.4318  13.5730  13.5930  13.6630  13.6784  14.0527  14.0825
    14.1670  14.3569  14.5321  14.5411  14.6584  14.6837  14.7142  14.7327
    14.9744  15.0802  15.1987  15.4031  15.4602  15.5201  15.6662  15.7375
    16.1037  16.1437  16.1550  16.2459  16.2560  16.4626  16.4809  16.6274
    16.7758  16.9433  16.9601  17.1455  17.2243  17.3163  17.3190  17.3993
    17.6640  17.7150  17.7496  18.0143  18.0213  18.0673  18.1581  18.1874
    18.2681  18.3380  18.3839  18.3853  18.5405  18.6361  18.6585  18.6853
    18.9017  18.9338  18.9724  18.9837  19.0456  19.2099  19.2600  19.3161
    19.4051  19.4859  19.4876  19.7234  19.7248  19.7444  19.8539  19.8723
    20.0183  20.0253  20.2365  20.2553  20.3008  20.3553  20.5492  20.5576
    20.5717  20.6400  20.6655  20.6767  20.7786  20.8196  20.8506  20.9527
    21.0212  21.0596  21.1969  21.2314  21.3509  21.4778  21.4880  21.5155
    21.5574  21.5805  21.6807  21.6878  21.7376  21.7726  21.7749  21.8074
    22.0118  22.0704  22.1373  22.1940  22.2102  22.2307  22.4039  22.5747
    22.6350  22.6627  22.7536  22.7936  22.8252  22.8799  22.8896  22.9748
    23.0222  23.1962  23.2314  23.2536  23.2721  23.3388  23.3626  23.4809
    23.6244  23.6735  23.7551  23.7783  23.7896  23.8167  23.8457  24.0744
    24.1073  24.1185  24.1891  24.2413  24.2856  24.2969  24.4012  24.4494
    24.4545  24.5019  24.5468  24.5489  24.6872  24.7306  24.7777  24.8271
    24.8274  24.9204  25.0750  25.0963  25.1758  25.2497  25.2990  25.3693
    25.3988  25.4034  25.4948  25.6857  25.7531  25.8432  25.8584  25.8671
    25.9785  25.9796  26.0896  26.2504  26.3766  26.3772  26.4267  26.4289
    26.4310  26.5455  26.5729  26.7681  26.8017  26.8396  26.8645  27.1274
    27.2619  27.3062  27.3253  27.3580  27.4899  27.5283  27.5591  27.5803
    27.6573  27.6989  27.8260  27.8496  27.9084  27.9445  27.9587  28.0024
    28.0649  28.2024  28.2493  28.3002  28.3849  28.4129  28.5154  28.5429
    28.5663  28.6511  28.6758  28.7060  28.7176  28.7474  28.7821  28.8677
    28.8985  28.9128  28.9606  29.0058  29.0939  29.1317  29.1620  29.2166
    29.3278  29.4138  29.4212  29.4278  29.4494  29.5033  29.6251  29.6606
    29.6745  29.7050  29.7301  29.8676  29.9158  29.9624  30.0276  30.0504
    30.1887  30.2295  30.2720  30.3059  30.3299  30.5744  30.6060  30.6498
    30.6743  30.7154  30.7448  30.8307  30.8910  30.8954  30.9328  30.9627
    31.0501  31.1402  31.2974  31.3271  31.5005  31.5094  31.5357  31.5590
    31.6938  31.7926  31.8913  32.0220  32.0255  32.0510  32.1139  32.2103
    32.2200  32.3784  32.3801  32.5030  32.5259  32.5497  32.5979  32.7670
    32.7885  32.8345  32.9735  33.0329  33.1985  33.2508  33.3010  33.3459
    33.3977  33.5436  33.5582  33.5775  33.6264  33.7042  33.7847  33.8171
    33.8605  34.0001  34.0184  34.0680  34.2894  34.3192  34.3223  34.3765
    34.4539  34.4667  34.4801  34.5408  34.5465  34.6409  34.6777  34.7328
    34.7667  34.8622  34.9673  34.9742  35.0275  35.1153  35.1409  35.2116
    35.2676  35.3137  35.3438  35.3857  35.4709  35.4911  35.5302  35.5789
    35.6296  35.7088  35.8284  35.8424  35.8871  36.0031  36.0176  36.0503
    36.0578  36.0843  36.1976  36.2970  36.3689  36.3742  36.4170  36.4568
    36.4788  36.5064  36.5101  36.5978  36.6011  36.7589  36.7659  36.7667
    36.8437  37.0068  37.0744  37.1502

          k = 0.0000 0.0000 0.1080 ( 23924 PWs)   bands (ev):

   -29.6244 -29.6214 -29.2264 -29.2233 -20.7529 -20.2873 -20.0581 -19.5311
   -18.5769 -18.0572 -16.9949 -15.3489 -14.5837 -13.5578 -13.1366 -12.2887
   -11.6457 -11.3663 -11.2868 -11.0807 -10.4012 -10.3419 -10.1905 -10.1750
    -9.6191  -9.3694  -9.3609  -9.3453  -9.2692  -9.1787  -8.7269  -8.4066
    -8.2772  -8.0675  -7.7793  -7.2259  -6.7068  -6.5996  -6.5395  -5.8293
    -5.0790  -4.4389  -0.3329   0.4382   1.4219   2.1118   2.4176   2.4345
     2.6635   3.1178   3.2308   3.4054   3.4529   3.7097   3.8224   3.9137
     3.9902   4.3137   4.3192   4.4508   4.5629   4.6449   4.7513   4.7904
     4.8448   5.0409   5.0675   5.1264   5.1682   5.2563   5.3187   5.4784
     5.5795   5.7433   5.7731   5.8062   5.8359   5.8767   6.1859   6.2385
     6.2905   6.4305   6.4641   6.5943   6.6806   6.7520   6.8771   6.9057
     7.1790   7.2720   7.6771   7.7291   7.9822   8.1468   8.2986   8.3477
     8.4688   8.4704   8.7830   8.8246   8.8602   9.0045   9.1361   9.1671
     9.2091   9.3955   9.5166   9.6491   9.7573   9.7851   9.8447   9.9369
    10.2334  10.3350  10.3941  10.3960  10.4843  10.6629  10.7510  10.8372
    10.9003  10.9177  10.9328  10.9384  10.9856  11.2149  11.2257  11.3437
    11.4892  11.6044  11.7588  12.1461  12.2863  12.3516  12.4018  12.4271
    12.4445  12.5996  12.6132  12.6601  12.6666  12.7490  13.0346  13.2582
    13.2602  13.3138  13.5976  13.6686  13.6872  13.7955  13.9773  14.1100
    14.1775  14.3559  14.3958  14.6070  14.6552  14.6749  14.7297  14.7751
    15.0991  15.1049  15.2250  15.2771  15.4524  15.5142  15.5927  15.6504
    15.9735  15.9772  16.0966  16.3690  16.3915  16.5242  16.5301  16.6901
    16.8199  16.9293  17.0149  17.1958  17.2117  17.2887  17.3536  17.3761
    17.5493  17.5898  17.7942  17.9275  17.9874  18.1651  18.1654  18.3092
    18.4356  18.4409  18.4786  18.5504  18.5756  18.6834  18.6955  18.8386
    18.9010  18.9500  18.9723  19.1047  19.1256  19.1944  19.2492  19.2801
    19.5202  19.5626  19.5911  19.6009  19.7530  19.9480  20.0166  20.0197
    20.0702  20.2531  20.2668  20.2716  20.3884  20.4031  20.4864  20.6587
    20.6764  20.7550  20.7628  20.8207  20.8247  20.8305  20.9565  21.0377
    21.0493  21.1343  21.1478  21.2544  21.2757  21.4027  21.4556  21.4590
    21.6628  21.7329  21.7453  21.7952  21.7982  21.9039  21.9681  21.9956
    22.0501  22.0648  22.1850  22.2063  22.2118  22.2297  22.2864  22.3273
    22.4800  22.5491  22.6277  22.6960  22.7100  22.8629  22.9095  22.9166
    22.9335  23.0305  23.0619  23.2938  23.3247  23.4066  23.4408  23.5180
    23.5471  23.6616  23.7085  23.7939  23.8152  23.8872  23.8912  23.9985
    24.0412  24.0945  24.1105  24.2278  24.2883  24.2958  24.3216  24.3441
    24.3744  24.4150  24.4382  24.6072  24.6804  24.7122  24.7197  24.8102
    24.8658  24.8724  24.9091  25.1848  25.2307  25.2395  25.2482  25.3765
    25.4113  25.5206  25.5473  25.6285  25.6463  25.6961  25.9347  25.9898
    26.0259  26.0264  26.1664  26.2253  26.2925  26.3152  26.5051  26.5881
    26.6144  26.6224  26.6437  26.7450  26.7838  26.8230  26.9105  27.0036
    27.1582  27.2723  27.3469  27.3698  27.4026  27.4046  27.4740  27.6436
    27.7392  27.7905  27.8243  27.8312  27.8578  27.9465  28.0501  28.1454
    28.2130  28.2322  28.2596  28.2887  28.3522  28.3693  28.3907  28.4774
    28.5418  28.5798  28.6319  28.6768  28.7444  28.7711  28.7730  28.8227
    28.8977  28.9541  28.9553  28.9594  29.0561  29.0908  29.1075  29.1795
    29.1933  29.2002  29.3853  29.4683  29.4772  29.5389  29.5505  29.5989
    29.6253  29.7550  29.7737  29.8174  29.8914  29.9917  30.0460  30.0702
    30.1061  30.1915  30.2559  30.3332  30.3597  30.3682  30.4773  30.5232
    30.5884  30.6374  30.7158  30.7265  30.7552  30.8090  30.8343  30.9901
    31.0267  31.1737  31.2818  31.3159  31.4142  31.4960  31.5337  31.6129
    31.6533  31.7394  31.8336  31.8644  31.9068  32.0166  32.0868  32.1338
    32.1982  32.3063  32.3241  32.5443  32.5502  32.5555  32.6117  32.8584
    32.9230  32.9362  32.9749  32.9837  33.1065  33.2267  33.4048  33.4325
    33.4847  33.5745  33.6952  33.7062  33.8541  33.8798  33.8859  33.9748
    34.0075  34.0836  34.0861  34.1809  34.2447  34.2965  34.3132  34.3335
    34.3874  34.4247  34.4304  34.4940  34.4997  34.5694  34.6094  34.6300
    34.7354  34.8196  34.8932  34.9437  34.9540  35.0234  35.0997  35.1555
    35.1887  35.2016  35.2101  35.2498  35.4247  35.5052  35.5268  35.5969
    35.6652  35.6745  35.6911  35.7152  35.8774  35.9033  35.9810  35.9863
    36.0032  36.0213  36.1536  36.1892  36.1974  36.2119  36.2741  36.3740
    36.4006  36.5078  36.5726  36.6445  36.6455  36.8028  36.8102  36.8714
    36.9911  37.0053  37.0640  37.0772

          k = 0.0000 0.0000 0.1127 ( 23902 PWs)   bands (ev):

   -29.6072 -29.6042 -29.2452 -29.2421 -20.6514 -20.4012 -19.9852 -19.6155
   -18.5180 -18.1253 -16.9813 -15.3706 -14.5616 -13.5849 -13.0915 -12.3300
   -11.5173 -11.3464 -11.2995 -11.1598 -10.2825 -10.2749 -10.1734 -10.1593
    -9.6612  -9.3983  -9.3869  -9.3622  -9.2641  -9.2285  -8.7832  -8.4068
    -8.1647  -8.0677  -7.9068  -7.1468  -6.7993  -6.6102  -6.5512  -5.7968
    -5.1203  -4.4345  -0.3433   0.4902   1.3685   2.1730   2.4703   2.5710
     2.7048   3.0419   3.2182   3.2780   3.5029   3.7948   3.8644   3.9440
     4.1302   4.3100   4.4220   4.4883   4.5285   4.5956   4.6425   4.7193
     4.9043   4.9454   4.9915   5.0703   5.2330   5.2854   5.3101   5.3735
     5.5200   5.7119   5.7451   5.7898   5.9528   5.9843   6.1784   6.2662
     6.2987   6.3881   6.4093   6.6026   6.6774   6.7075   6.7479   6.8241
     7.0994   7.1249   7.8213   7.8760   8.0826   8.1399   8.1871   8.2937
     8.4867   8.6203   8.6220   8.7126   8.9571   8.9808   9.1563   9.1609
     9.3463   9.3661   9.4840   9.5251   9.6433   9.8059   9.8990   9.9517
    10.2190  10.2637  10.3859  10.4608  10.6097  10.6698  10.7793  10.8396
    10.8852  10.9043  10.9052  11.0139  11.1030  11.1220  11.1283  11.3158
    11.3256  11.4408  11.8974  12.1992  12.2175  12.2671  12.4772  12.5047
    12.5153  12.5975  12.6258  12.6425  12.7221  12.8600  12.8844  13.1169
    13.2019  13.2373  13.6481  13.6745  13.7674  13.8678  13.9339  14.0471
    14.2222  14.3175  14.3471  14.5301  14.6708  14.7608  14.7732  14.8174
    15.0854  15.1216  15.2271  15.3843  15.4586  15.4887  15.5424  15.5676
    15.7886  15.8369  16.1050  16.4887  16.5268  16.5659  16.5691  16.7043
    16.8358  16.8429  17.0717  17.2032  17.2297  17.2805  17.3386  17.4410
    17.4748  17.5187  17.7966  17.8284  17.8784  18.1377  18.3063  18.3358
    18.4649  18.5339  18.5777  18.6171  18.7132  18.7135  18.7420  18.7713
    18.9352  19.0039  19.0304  19.1108  19.1958  19.3254  19.3290  19.4619
    19.4976  19.5611  19.6034  19.6169  19.7629  19.8853  19.9636  20.0523
    20.0881  20.1728  20.3269  20.4060  20.4254  20.5296  20.6871  20.7002
    20.7184  20.7283  20.7300  20.8466  20.8833  20.9185  21.0542  21.1131
    21.1134  21.1998  21.2646  21.2713  21.3817  21.4101  21.4859  21.4987
    21.5932  21.6251  21.7083  21.8190  21.8366  21.9240  21.9518  21.9522
    22.0971  22.1232  22.1359  22.1612  22.2658  22.3414  22.3702  22.4461
    22.4889  22.5213  22.5502  22.5685  22.6255  22.8233  22.8425  22.8759
    22.8853  23.0483  23.0488  23.1629  23.2340  23.3293  23.4692  23.5379
    23.5545  23.5855  23.5985  23.6499  23.6730  23.7965  23.8898  23.9367
    24.0395  24.0633  24.1168  24.1427  24.2148  24.2500  24.3235  24.3517
    24.3835  24.5184  24.6443  24.6873  24.7153  24.7189  24.7311  24.7384
    24.9207  25.0437  25.0726  25.0818  25.0980  25.2141  25.2433  25.3494
    25.3609  25.3769  25.5330  25.6407  25.6771  25.8000  25.9054  25.9235
    26.0166  26.0774  26.1899  26.2678  26.3220  26.3264  26.3734  26.4952
    26.6234  26.6236  26.6861  26.8575  26.9360  26.9408  27.0109  27.0386
    27.0828  27.2486  27.2807  27.3376  27.3699  27.4468  27.5218  27.6624
    27.7465  27.7771  27.8609  27.8623  27.9939  28.0092  28.0378  28.0583
    28.1100  28.1427  28.2153  28.2321  28.2657  28.2758  28.3147  28.4131
    28.4805  28.5439  28.6348  28.7094  28.7726  28.8023  28.8521  28.8522
    28.8527  28.9097  28.9809  29.0301  29.0749  29.1139  29.1871  29.2405
    29.2634  29.2867  29.3148  29.3370  29.3841  29.4765  29.5480  29.5710
    29.6150  29.6221  29.6514  29.7273  29.7690  29.7842  29.9794  30.0962
    30.1969  30.2940  30.2973  30.3929  30.4208  30.4285  30.4617  30.4794
    30.5529  30.6005  30.6825  30.6914  30.8023  30.8592  30.8838  30.9471
    31.0426  31.1225  31.2605  31.2924  31.2983  31.4390  31.4517  31.5037
    31.5395  31.6385  31.6608  31.6806  31.8047  31.8732  31.9663  32.0692
    32.2315  32.3335  32.4094  32.6177  32.6326  32.7683  32.7778  32.8565
    32.8817  32.9191  33.0752  33.1977  33.2114  33.2434  33.4398  33.4826
    33.5784  33.5845  33.7189  33.7546  33.8081  33.8361  33.8865  33.9271
    34.0679  34.0858  34.1114  34.1414  34.2733  34.3046  34.3559  34.4418
    34.4764  34.5053  34.5120  34.5458  34.5590  34.5991  34.6453  34.6984
    34.7142  34.7687  34.8317  34.8718  34.8810  34.8919  35.0200  35.0880
    35.0945  35.1331  35.1988  35.2619  35.3926  35.3956  35.4671  35.4773
    35.5381  35.5919  35.6129  35.7267  35.7394  35.7532  35.8040  35.8057
    35.8120  35.9064  36.0396  36.1192  36.1819  36.2269  36.2915  36.4303
    36.5101  36.6385  36.6754  36.7675  36.8058  36.8964  36.9073  36.9223
    36.9491  36.9530  37.0409  37.1041

          k = 0.0000 0.0000-0.1174 ( 23904 PWs)   bands (ev):

   -29.6010 -29.5981 -29.2519 -29.2487 -20.5813 -20.4756 -19.9520 -19.6526
   -18.4930 -18.1532 -16.9767 -15.3780 -14.5539 -13.5943 -13.0752 -12.3450
   -11.4369 -11.3398 -11.3397 -11.1884 -10.2610 -10.2202 -10.1675 -10.1539
    -9.6881  -9.4136  -9.3930  -9.3680  -9.2919  -9.2108  -8.8049  -8.4066
    -8.0769  -8.0677  -7.9995  -7.1087  -6.8419  -6.6139  -6.5551  -5.7851
    -5.1350  -4.4331  -0.3469   0.5090   1.3492   2.1955   2.4895   2.6294
     2.7228   3.0085   3.2119   3.2225   3.5280   3.7857   3.8407   4.0846
     4.2273   4.3023   4.3798   4.3965   4.4851   4.6667   4.7122   4.7428
     4.7510   4.8647   5.0538   5.1416   5.1538   5.2738   5.2856   5.4298
     5.5240   5.5880   5.7447   5.8098   6.0916   6.1216   6.1346   6.1428
     6.1644   6.5150   6.5419   6.5461   6.5855   6.6592   6.6610   6.9190
     7.0219   7.0677   7.9386   8.0126   8.0178   8.0458   8.1278   8.4382
     8.4393   8.5264   8.6535   8.7654   8.8161   9.0385   9.1937   9.2624
     9.2731   9.3595   9.4554   9.5338   9.6286   9.7011   9.9681  10.0710
    10.1023  10.1884  10.4539  10.5426  10.6159  10.7052  10.7275  10.7370
    10.9163  10.9438  10.9800  11.0028  11.0635  11.1351  11.1936  11.2479
    11.3021  11.3175  12.0163  12.0756  12.2494  12.2587  12.4743  12.5223
    12.5817  12.5951  12.5985  12.7271  12.7457  12.7842  12.9291  13.0360
    13.1415  13.2280  13.6812  13.6945  13.8002  13.8009  14.0189  14.0495
    14.1133  14.3372  14.3613  14.5056  14.6794  14.7300  14.7911  14.9673
    14.9678  15.0958  15.2985  15.4593  15.4737  15.4876  15.5187  15.5442
    15.6550  15.7810  16.1108  16.5361  16.5807  16.6111  16.6148  16.6733
    16.7678  16.8377  17.0937  17.2241  17.2415  17.2816  17.3661  17.3867
    17.3999  17.6591  17.6823  17.7852  17.8696  18.1236  18.3524  18.3969
    18.4690  18.4867  18.6042  18.6695  18.7046  18.7143  18.7515  18.8319
    18.8548  19.0555  19.0615  19.2408  19.3157  19.3472  19.3477  19.3851
    19.4405  19.6563  19.6997  19.7519  19.7794  19.7925  19.8113  19.8483
    20.1059  20.2778  20.3425  20.4001  20.4521  20.5630  20.6545  20.6918
    20.7070  20.7392  20.7766  20.8407  21.0813  21.0910  21.1161  21.1188
    21.1197  21.1877  21.2458  21.2903  21.3174  21.4203  21.5876  21.5891
    21.5941  21.6047  21.6701  21.7179  21.8219  21.8515  21.9186  22.0481
    22.0571  22.1141  22.1309  22.1371  22.1584  22.2737  22.2804  22.4793
    22.5325  22.6280  22.6753  22.7282  22.7419  22.7843  22.8422  22.8505
    22.9369  22.9641  23.0114  23.1172  23.2268  23.3350  23.3616  23.3670
    23.3878  23.4454  23.6463  23.6525  23.7232  23.7622  23.7873  23.9480
    24.0045  24.1212  24.1251  24.1307  24.1665  24.1893  24.3359  24.3799
    24.5586  24.6073  24.6630  24.6761  24.6867  24.8241  24.8559  24.8620
    24.8967  24.9245  24.9262  25.0808  25.1241  25.1577  25.2260  25.3351
    25.3560  25.4518  25.4930  25.6277  25.6619  25.7827  25.8488  25.9745
    26.0218  26.0832  26.1232  26.1489  26.4323  26.4642  26.4844  26.5917
    26.6270  26.6763  26.6914  26.7265  26.7471  26.7870  26.9136  27.0386
    27.0582  27.4476  27.4689  27.4717  27.5227  27.5702  27.5746  27.6669
    27.7030  27.7091  27.7869  27.8757  27.8920  27.9719  28.0418  28.0509
    28.0514  28.0549  28.1184  28.1815  28.2010  28.2102  28.2731  28.3664
    28.3916  28.5108  28.7256  28.7721  28.7878  28.8190  28.8439  28.8720
    28.9979  29.0370  29.1117  29.1364  29.1521  29.1706  29.1962  29.2136
    29.2140  29.2388  29.2642  29.3415  29.3850  29.3858  29.4219  29.4879
    29.5078  29.5569  29.5728  29.6843  29.7708  29.8460  29.8736  30.0642
    30.2269  30.3159  30.3162  30.3341  30.3858  30.4138  30.5133  30.5187
    30.5465  30.6989  30.7101  30.9088  30.9137  30.9164  30.9481  31.0247
    31.0297  31.0711  31.0987  31.1043  31.2705  31.3248  31.3991  31.4126
    31.4664  31.5447  31.5475  31.6617  31.7963  31.8165  32.0610  32.1158
    32.2296  32.3252  32.4143  32.4436  32.7269  32.7514  32.8712  32.9514
    32.9793  33.0742  33.1420  33.1707  33.2920  33.3688  33.4385  33.4585
    33.5489  33.5836  33.5939  33.6313  33.7929  33.7982  33.9176  33.9507
    33.9711  34.0146  34.1733  34.2622  34.2656  34.3551  34.3926  34.4010
    34.4419  34.4671  34.5358  34.5561  34.6550  34.7031  34.7444  34.8126
    34.8237  34.8506  34.8710  34.8852  34.9199  34.9222  34.9293  34.9319
    34.9444  35.0876  35.2058  35.2882  35.3035  35.3211  35.3648  35.3732
    35.4423  35.4447  35.5604  35.6255  35.7232  35.7693  35.7745  35.7837
    35.8445  35.8620  35.9628  36.0735  36.1995  36.2572  36.3612  36.4199
    36.6191  36.6437  36.6920  36.7968  36.8274  36.8477  36.8863  36.9166
    37.0677  37.0749  37.1021  37.1372

     the Fermi energy is    -2.8821 ev

     Writing output data file F7.save/

     init_run     :      4.16s CPU      4.23s WALL (       1 calls)
     electrons    :   1777.81s CPU   1801.23s WALL (       1 calls)

     Called by init_run:
     wfcinit      :      0.00s CPU      0.00s WALL (       1 calls)
     potinit      :      0.23s CPU      0.26s WALL (       1 calls)
     hinit0       :      3.47s CPU      3.49s WALL (       1 calls)

     Called by electrons:
     c_bands      :   1777.81s CPU   1801.21s WALL (       1 calls)
     v_of_rho     :      0.19s CPU      0.20s WALL (       1 calls)
     newd         :      0.12s CPU      0.15s WALL (       1 calls)

     Called by c_bands:
     init_us_2    :      0.00s CPU      0.06s WALL (      26 calls)
     cegterg      :   1749.19s CPU   1770.97s WALL (      26 calls)

     Called by sum_band:

     Called by *egterg:
     h_psi        :    145.36s CPU    149.00s WALL (     481 calls)
     s_psi        :      7.54s CPU      7.58s WALL (     481 calls)
     g_psi        :      1.40s CPU      1.41s WALL (     429 calls)
     cdiaghg      :   1319.94s CPU   1327.99s WALL (     455 calls)

     Called by h_psi:
     h_psi:pot    :    143.79s CPU    146.83s WALL (     481 calls)
     h_psi:calbec :      8.31s CPU      8.63s WALL (     481 calls)
     vloc_psi     :    127.93s CPU    130.58s WALL (     481 calls)
     add_vuspsi   :      7.54s CPU      7.61s WALL (     481 calls)

     General routines
     calbec       :      8.31s CPU      8.63s WALL (     481 calls)
     fft          :      0.13s CPU      0.14s WALL (      14 calls)
     ffts         :      0.00s CPU      0.00s WALL (       1 calls)
     fftw         :    115.45s CPU    117.83s WALL (  270678 calls)
     interpolate  :      0.01s CPU      0.01s WALL (       1 calls)
     davcio       :      0.00s CPU      0.55s WALL (      52 calls)

     Parallel routines
     fft_scatt_xy :     19.37s CPU     19.76s WALL (  270693 calls)
     fft_scatt_yz :     33.27s CPU     34.09s WALL (  270693 calls)

     PWSCF        : 29m47.21s CPU    31m53.29s WALL


   This run was terminated on:  22: 0: 5  19Apr2021            

=------------------------------------------------------------------------------=
   JOB DONE.
=------------------------------------------------------------------------------=
