
     Program PWSCF v.6.3 starts on 19Apr2021 at 22:12:17 

     This program is part of the open-source Quantum ESPRESSO suite
     for quantum simulation of materials; please cite
         "P. Giannozzi et al., J. Phys.:Condens. Matter 21 395502 (2009);
         "P. Giannozzi et al., J. Phys.:Condens. Matter 29 465901 (2017);
          URL http://www.quantum-espresso.org", 
     in publications or presentations arising from this work. More details at
     http://www.quantum-espresso.org/quote

     Parallel version (MPI), running on    16 processors
     R & G space division:  proc/nbgrp/npool/nimage =      16
     Waiting for input...
     Reading input from standard input
     Message from routine read_cards :
     DEPRECATED: no units specified in CELL_PARAMETERS card

     Current dimensions of program PWSCF are:
     Max number of different atomic species (ntypx) = 10
     Max number of k-points (npk) =  40000
     Max angular momentum in pseudopotentials (lmaxx) =  3

     Atomic positions and unit cell read from directory:
     /home/zfwang/scratch/GNRDATASET/AGNR/F8/F8.save/


     Subspace diagonalization in iterative solution of the eigenvalue problem:
     a serial algorithm will be used


     Parallelization info
     --------------------
     sticks:   dense  smooth     PW     G-vecs:    dense   smooth      PW
     Min        1763     587    165                66043    12707    1902
     Max        1765     589    167                66044    12708    1903
     Sum       28231    9409   2651              1056691   203317   30447



     bravais-lattice index     =            0
     lattice parameter (alat)  =       1.8897  a.u.
     unit-cell volume          =    5950.8163 (a.u.)^3
     number of atoms/cell      =           20
     number of atomic types    =            2
     number of electrons       =        92.00
     number of Kohn-Sham states=          500
     kinetic-energy cutoff     =      40.0000  Ry
     charge density cutoff     =     480.0000  Ry
     Exchange-correlation      = PBE ( 1  4  3  4 0 0)

     celldm(1)=  18.897261  celldm(2)=   2.070000  celldm(3)=   0.426000
     celldm(4)=   0.000000  celldm(5)=   0.000000  celldm(6)=   0.000000

     crystal axes: (cart. coord. in units of alat)
               a(1) = (  10.000000   0.000000   0.000000 )  
               a(2) = (   0.000000  20.700000   0.000000 )  
               a(3) = (   0.000000   0.000000   4.260000 )  

     reciprocal axes: (cart. coord. in units 2 pi/alat)
               b(1) = (  0.100000  0.000000  0.000000 )  
               b(2) = (  0.000000  0.048309  0.000000 )  
               b(3) = (  0.000000  0.000000  0.234742 )  


     PseudoPot. # 1 for C  read from file:
     /home/zfwang/hp_home/MySoftware/qe-6.3/pseudo/C.pbe-n-rrkjus_psl.0.1.UPF
     MD5 check sum: fff530ed632a789b3b184014e67dd7f1
     Pseudo is Ultrasoft + core correction, Zval =  4.0
     Generated using "atomic" code by A. Dal Corso v.5.0.2 svn rev. 9415
     Using radial grid of 1073 points,  4 beta functions with: 
                l(1) =   0
                l(2) =   0
                l(3) =   1
                l(4) =   1
     Q(r) pseudized with 0 coefficients 


     PseudoPot. # 2 for F  read from file:
     /home/zfwang/hp_home/MySoftware/qe-6.3/pseudo/F.pbe-n-rrkjus_psl.0.1.UPF
     MD5 check sum: 147397eca92fbb10e5415488e6f13084
     Pseudo is Ultrasoft + core correction, Zval =  7.0
     Generated using "atomic" code by A. Dal Corso v.5.0.2 svn rev. 9415
     Using radial grid of 1105 points,  4 beta functions with: 
                l(1) =   0
                l(2) =   0
                l(3) =   1
                l(4) =   1
     Q(r) pseudized with 0 coefficients 


     atomic species   valence    mass     pseudopotential
        C              4.00    12.01070     C ( 1.00)
        F              7.00    18.99840     F ( 1.00)

     No symmetry found



   Cartesian axes

     site n.     atom                  positions (alat units)
         1           C   tau(   1) = (   4.9999977   6.0976068   2.8053475  )
         2           C   tau(   2) = (   5.0000011   7.2713504   3.5542960  )
         3           C   tau(   3) = (   4.9999997   6.0976050   1.4546539  )
         4           C   tau(   4) = (   5.0000020   8.5013432   2.8383116  )
         5           C   tau(   5) = (   5.0000015   9.7356484   3.5501641  )
         6           C   tau(   6) = (   5.0000012   7.2713486   0.7057019  )
         7           C   tau(   7) = (   5.0000011   8.5013417   1.4216838  )
         8           C   tau(   8) = (   4.9999996  10.9643655   2.8398354  )
         9           C   tau(   9) = (   4.9999978  12.1986594   3.5516994  )
        10           C   tau(  10) = (   5.0000004   9.7356470   0.7098326  )
        11           C   tau(  11) = (   4.9999986  10.9643663   1.4201652  )
        12           C   tau(  12) = (   4.9999994  13.4286626   2.8356839  )
        13           C   tau(  13) = (   5.0000009  14.6023968   3.5845755  )
        14           C   tau(  14) = (   4.9999968  12.1986591   0.7083035  )
        15           C   tau(  15) = (   4.9999986  13.4286621   1.4243172  )
        16           C   tau(  16) = (   5.0000013  14.6023968   0.6754229  )
        17           F   tau(  17) = (   4.9999932   4.8347616   3.2312493  )
        18           F   tau(  18) = (   5.0000006   4.8347547   1.0287640  )
        19           F   tau(  19) = (   5.0000024  15.8652164   3.1587586  )
        20           F   tau(  20) = (   5.0000065  15.8652181   1.1012342  )

     number of k points=    26  Marzari-Vanderbilt smearing, width (Ry)=  0.0100
                       cart. coord. in units 2pi/alat
        k(    1) = (   0.0000000   0.0000000   0.0000000), wk =   0.0400000
        k(    2) = (   0.0000000   0.0000000   0.0046948), wk =   0.0800000
        k(    3) = (   0.0000000   0.0000000   0.0093897), wk =   0.0800000
        k(    4) = (   0.0000000   0.0000000   0.0140845), wk =   0.0800000
        k(    5) = (   0.0000000   0.0000000   0.0187793), wk =   0.0800000
        k(    6) = (   0.0000000   0.0000000   0.0234742), wk =   0.0800000
        k(    7) = (   0.0000000   0.0000000   0.0281690), wk =   0.0800000
        k(    8) = (   0.0000000   0.0000000   0.0328638), wk =   0.0800000
        k(    9) = (   0.0000000   0.0000000   0.0375587), wk =   0.0800000
        k(   10) = (   0.0000000   0.0000000   0.0422535), wk =   0.0800000
        k(   11) = (   0.0000000   0.0000000   0.0469484), wk =   0.0800000
        k(   12) = (   0.0000000   0.0000000   0.0516432), wk =   0.0800000
        k(   13) = (   0.0000000   0.0000000   0.0563380), wk =   0.0800000
        k(   14) = (   0.0000000   0.0000000   0.0610329), wk =   0.0800000
        k(   15) = (   0.0000000   0.0000000   0.0657277), wk =   0.0800000
        k(   16) = (   0.0000000   0.0000000   0.0704225), wk =   0.0800000
        k(   17) = (   0.0000000   0.0000000   0.0751174), wk =   0.0800000
        k(   18) = (   0.0000000   0.0000000   0.0798122), wk =   0.0800000
        k(   19) = (   0.0000000   0.0000000   0.0845070), wk =   0.0800000
        k(   20) = (   0.0000000   0.0000000   0.0892019), wk =   0.0800000
        k(   21) = (   0.0000000   0.0000000   0.0938967), wk =   0.0800000
        k(   22) = (   0.0000000   0.0000000   0.0985915), wk =   0.0800000
        k(   23) = (   0.0000000   0.0000000   0.1032864), wk =   0.0800000
        k(   24) = (   0.0000000   0.0000000   0.1079812), wk =   0.0800000
        k(   25) = (   0.0000000   0.0000000   0.1126761), wk =   0.0800000
        k(   26) = (   0.0000000   0.0000000  -0.1173709), wk =   0.0400000

     Dense  grid:  1056691 G-vectors     FFT dimensions: ( 135, 288,  60)

     Smooth grid:   203317 G-vectors     FFT dimensions: (  80, 160,  36)

     Estimated max dynamical RAM per process >     367.44 MB

     Estimated total dynamical RAM >       5.74 GB

     Check: negative/imaginary core charge=   -0.000006    0.000000

     The potential is recalculated from file :
     /home/zfwang/scratch/GNRDATASET/AGNR/F8/F8.save/charge-density.dat


     negative rho (up, down):  1.826E-03 0.000E+00
     Starting wfcs are   80 randomized atomic wfcs +  420 random wfcs

     Band Structure Calculation
     Davidson diagonalization with overlap

     ethr =  1.09E-08,  avg # of iterations = 16.4

     total cpu time spent up to now is     1939.7 secs

     End of band structure calculation

          k = 0.0000 0.0000 0.0000 ( 25357 PWs)   bands (ev):

   -30.0343 -30.0333 -28.4532 -28.4521 -21.8557 -21.2830 -20.0982 -18.4766
   -16.9339 -16.6438 -16.2131 -16.2038 -15.6079 -15.4190 -15.2053 -13.7825
   -13.4111 -13.0608 -12.5117 -12.3750 -12.2789 -11.3474 -11.0365 -10.7771
   -10.7382 -10.6542 -10.2161  -9.6572  -9.5754  -9.1176  -8.5882  -8.4590
    -8.4581  -8.4277  -7.9694  -7.2585  -7.0325  -6.5575  -6.0402  -5.8771
    -5.7836  -5.6127  -4.5072  -3.8506  -3.6926  -2.3196  -2.2880  -1.3975
    -0.9133  -0.3414   0.7393   1.0473   1.5026   1.9733   2.2178   2.3585
     2.4139   2.8070   2.8103   2.8751   3.1793   3.5809   3.7910   4.0041
     4.0154   4.0565   4.3132   4.3790   4.4849   4.7093   5.1744   5.4469
     5.6657   5.6927   5.9703   6.1145   6.2330   6.3613   6.6109   6.7076
     6.7556   6.8655   6.9617   7.6557   7.7095   7.7632   7.9778   7.9895
     8.0656   8.3179   8.3274   8.3734   8.4181   8.6139   8.6951   8.7806
     8.8153   8.8893   8.9901   9.0179   9.0389   9.0540   9.1619   9.3739
     9.4557   9.5015   9.5350   9.5568   9.6098   9.7125   9.9055  10.0278
    10.1054  10.1316  10.2258  10.4362  10.4431  10.4597  10.4657  10.5402
    10.5481  10.6685  10.7552  10.7842  10.8981  10.9373  10.9379  10.9733
    11.2857  11.3366  11.3468  11.3778  11.3851  11.5394  11.5587  11.5952
    11.6861  11.6924  11.7035  11.7996  11.8869  12.0300  12.0719  12.1153
    12.1198  12.1560  12.2557  12.3764  12.4849  12.6735  12.7293  12.7724
    12.8075  12.8312  12.9055  13.1220  13.2640  13.2936  13.5079  13.6721
    13.7913  13.8250  13.8702  13.9281  13.9626  14.0616  14.0666  14.2189
    14.2964  14.3542  14.5429  14.7136  14.7268  14.7340  14.8800  15.1151
    15.1372  15.1791  15.1882  15.3252  15.3803  15.4454  15.4607  15.6249
    15.6887  15.7524  15.7714  15.8450  15.9704  16.0678  16.0743  16.2373
    16.2674  16.2693  16.2807  16.3479  16.3627  16.3632  16.4625  16.4713
    16.5461  16.6422  16.7694  16.8327  16.8884  16.9544  17.0262  17.1512
    17.1760  17.1846  17.2211  17.2594  17.2980  17.3117  17.4929  17.5450
    17.5694  17.6088  17.6493  17.6985  17.9751  17.9933  18.0453  18.0611
    18.1343  18.1732  18.3316  18.3900  18.4889  18.4967  18.6919  18.7809
    18.9218  18.9330  19.0287  19.0891  19.1264  19.2165  19.2175  19.3030
    19.3858  19.4381  19.5311  19.5756  19.6506  19.8432  19.9209  19.9769
    20.1206  20.1652  20.2119  20.2357  20.2678  20.4190  20.5036  20.5102
    20.5579  20.6041  20.6491  20.8766  21.0357  21.0660  21.1088  21.1123
    21.1364  21.2329  21.2548  21.3024  21.3351  21.4828  21.5335  21.5619
    21.6727  21.7559  21.7798  21.7896  21.8620  21.8874  22.0076  22.0915
    22.0977  22.3802  22.4854  22.6008  22.6100  22.6795  22.7014  22.7250
    22.8437  22.9059  22.9305  22.9952  23.1806  23.1900  23.3166  23.3545
    23.3934  23.4128  23.4498  23.5923  23.5986  23.9010  23.9900  24.0728
    24.0817  24.1099  24.1909  24.2091  24.2679  24.2851  24.3055  24.3629
    24.4820  24.6428  24.6545  24.7060  24.8970  24.9301  25.0358  25.0516
    25.0948  25.1308  25.1464  25.3115  25.4163  25.5286  25.5289  25.7788
    25.8015  25.8915  25.9234  25.9417  25.9687  26.0940  26.1464  26.1744
    26.1895  26.2121  26.3157  26.3193  26.3659  26.4235  26.5148  26.5344
    26.5966  26.7855  26.7858  26.9128  26.9728  26.9776  27.0038  27.0086
    27.0130  27.0667  27.1124  27.2511  27.6067  27.6119  27.6244  28.0586
    28.1214  28.2361  28.3139  28.3548  28.3573  28.3643  28.3811  28.5422
    28.5548  28.6626  28.7813  28.8690  28.8927  29.0168  29.0478  29.0601
    29.0792  29.3128  29.3255  29.4802  29.4905  29.5723  29.6016  29.6100
    29.6269  29.8133  29.8554  29.8833  29.9006  29.9699  29.9990  30.0454
    30.0512  30.1000  30.1991  30.4190  30.4605  30.5642  30.5971  30.7607
    30.7975  30.8268  31.0176  31.0953  31.1001  31.1526  31.2649  31.3007
    31.3453  31.4065  31.4269  31.5175  31.6270  31.7363  31.8441  31.9822
    31.9988  32.0136  32.2572  32.2767  32.4079  32.7593  32.8028  32.8096
    32.8263  32.8389  33.0295  33.0304  33.1104  33.1770  33.1797  33.2128
    33.2608  33.3425  33.4301  33.4949  33.4988  33.6118  33.6203  33.6854
    33.7382  33.8487  33.9131  34.0281  34.1081  34.1595  34.1621  34.2032
    34.2121  34.2372  34.2571  34.2804  34.3332  34.3783  34.4803  34.5297
    34.5394  34.5457  34.6380  34.6430  34.6724  34.7105  34.7241  34.7344
    34.8192  34.8334  34.8579  34.8715  34.9371  34.9469  34.9894  35.1189
    35.1469  35.1915  35.2523  35.3426  35.3774  35.4149  35.5302  35.5380
    35.6425  35.6869  35.9388  35.9648  35.9792  36.0065  36.0075  36.0136
    36.0275  36.0399  36.0893  36.1134  36.1583  36.1691  36.3431  36.3477
    36.3860  36.3936  36.5105  36.5320

          k = 0.0000 0.0000 0.0047 ( 25387 PWs)   bands (ev):

   -30.0331 -30.0321 -28.4550 -28.4539 -21.8534 -21.2807 -20.0960 -18.4746
   -16.9374 -16.6987 -16.2529 -16.1738 -15.5640 -15.4296 -15.1743 -13.8073
   -13.3903 -13.0508 -12.5265 -12.3634 -12.2706 -11.3537 -11.0326 -10.7752
   -10.7364 -10.6469 -10.2213  -9.6549  -9.5729  -9.1109  -8.5859  -8.4614
    -8.4604  -8.4376  -7.9639  -7.2563  -7.0390  -6.5624  -6.0522  -5.8750
    -5.7843  -5.6110  -4.5237  -3.8526  -3.7119  -2.4679  -2.1394  -1.3746
    -0.8933  -0.3425   0.7425   1.0503   1.5057   1.9676   2.2207   2.3614
     2.4171   2.8098   2.8135   2.8777   3.1824   3.5841   3.7935   4.0071
     4.0186   4.0592   4.3162   4.3821   4.4785   4.7117   5.1719   5.4484
     5.6693   5.6963   5.9715   6.1041   6.2361   6.3645   6.6143   6.7106
     6.7479   6.8503   6.9645   7.6597   7.7132   7.7669   7.9748   7.9954
     8.0694   8.2889   8.3301   8.3747   8.4101   8.5203   8.6076   8.7798
     8.8094   8.9023   8.9279   9.0418   9.0543   9.1647   9.1725   9.2653
     9.4835   9.4937   9.5358   9.5645   9.6323   9.7369   9.7413  10.0925
    10.1330  10.2000  10.2321  10.2760  10.2790  10.4610  10.5187  10.5436
    10.7180  10.7280  10.7773  10.7816  10.8713  10.9256  10.9498  11.0143
    11.0939  11.2907  11.3018  11.3548  11.3707  11.5434  11.5522  11.6368
    11.6491  11.7015  11.7950  11.7987  11.8655  12.0507  12.0805  12.1172
    12.1507  12.2079  12.2293  12.3038  12.5671  12.6088  12.7093  12.7459
    12.8864  12.9444  13.0595  13.1924  13.2664  13.2719  13.5334  13.6669
    13.6732  13.7307  13.8824  13.8969  14.0306  14.0517  14.0674  14.2925
    14.3552  14.3762  14.4142  14.6463  14.6521  14.7810  14.9833  15.1235
    15.1685  15.1765  15.1864  15.4117  15.4124  15.4481  15.4526  15.6359
    15.7184  15.7538  15.7640  15.8745  15.8751  15.8947  16.0591  16.1580
    16.1852  16.2080  16.2507  16.3640  16.4285  16.4665  16.5298  16.5469
    16.5657  16.6252  16.6765  16.8200  16.9285  16.9530  16.9831  17.1040
    17.1601  17.1799  17.1900  17.3175  17.3426  17.4026  17.5182  17.5812
    17.6322  17.6372  17.6611  17.7124  17.8344  17.9940  18.0026  18.0842
    18.2170  18.2290  18.2368  18.4981  18.5260  18.5586  18.6982  18.7175
    18.8506  18.9645  19.0459  19.0470  19.0860  19.1480  19.2055  19.3152
    19.4562  19.4661  19.4969  19.6579  19.7415  19.8055  19.8413  19.9401
    20.1468  20.1756  20.2337  20.2811  20.3358  20.4231  20.4938  20.5325
    20.6096  20.6378  20.6618  20.8743  20.9731  21.0293  21.0357  21.0659
    21.2315  21.2487  21.2719  21.2778  21.3654  21.4626  21.4984  21.5653
    21.6360  21.6892  21.7682  21.7998  21.8705  21.9703  22.0730  22.1457
    22.1801  22.3287  22.5216  22.5638  22.6327  22.6828  22.6906  22.6950
    22.7119  22.8294  22.9182  23.1290  23.1627  23.1918  23.2494  23.2811
    23.3407  23.4549  23.4627  23.6256  23.7369  23.9211  23.9248  23.9258
    23.9654  24.1648  24.1922  24.2594  24.2875  24.3072  24.3382  24.5089
    24.5602  24.6319  24.6403  24.7086  24.9343  24.9917  25.0390  25.0544
    25.1046  25.1356  25.1366  25.3097  25.4184  25.5154  25.5293  25.6941
    25.7632  25.8929  25.9125  25.9207  25.9716  25.9837  26.0412  26.0692
    26.1436  26.1885  26.3761  26.4129  26.4323  26.5056  26.5145  26.5329
    26.6436  26.7446  26.8345  26.8566  26.9595  26.9827  27.0172  27.0465
    27.0843  27.1373  27.2049  27.3045  27.4966  27.6213  27.6319  28.0465
    28.1225  28.2081  28.2887  28.3172  28.3335  28.3383  28.3541  28.5366
    28.5906  28.6572  28.7962  28.8458  28.9625  29.0286  29.0634  29.0819
    29.1209  29.2440  29.2452  29.3325  29.3430  29.5026  29.6225  29.6447
    29.7016  29.8175  29.9343  29.9391  29.9729  29.9810  30.0664  30.0689
    30.1072  30.1931  30.2131  30.4824  30.5193  30.5369  30.5792  30.7675
    30.7766  30.8011  30.8696  31.0715  31.1370  31.1677  31.3010  31.3366
    31.3818  31.4476  31.4523  31.5307  31.6499  31.7392  31.8559  31.9107
    31.9126  31.9922  32.3590  32.4010  32.4117  32.7325  32.7339  32.7439
    32.7488  32.7979  32.9758  33.0042  33.0074  33.0942  33.1095  33.1192
    33.2380  33.2691  33.4351  33.4553  33.5424  33.5666  33.6974  33.7022
    33.7599  33.8088  33.8710  33.9456  33.9687  34.0221  34.0916  34.1081
    34.1205  34.2854  34.3136  34.3208  34.3830  34.3972  34.3994  34.4168
    34.5510  34.5997  34.6630  34.6902  34.7289  34.7710  34.7745  34.8280
    34.8453  34.8604  34.8648  34.8681  34.9903  35.0009  35.0119  35.0804
    35.1795  35.2182  35.2547  35.2717  35.2730  35.3013  35.4225  35.5541
    35.6045  35.6579  35.7536  35.7617  35.8644  35.9468  35.9658  35.9871
    36.0064  36.0433  36.0630  36.0996  36.1813  36.2612  36.2751  36.3040
    36.3276  36.3593  36.3741  36.4829

          k = 0.0000 0.0000 0.0094 ( 25395 PWs)   bands (ev):

   -30.0293 -30.0283 -28.4604 -28.4593 -21.8464 -21.2739 -20.0894 -18.4688
   -16.9496 -16.8261 -16.3462 -16.1274 -15.4567 -15.4368 -15.0990 -13.8703
   -13.3383 -13.0214 -12.5626 -12.3363 -12.2463 -11.3720 -11.0210 -10.7695
   -10.7310 -10.6255 -10.2364  -9.6481  -9.5655  -9.0910  -8.5791  -8.4680
    -8.4671  -8.4655  -7.9492  -7.2498  -7.0581  -6.5770  -6.0852  -5.8712
    -5.7862  -5.6058  -4.5722  -3.8617  -3.7647  -2.6305  -1.9761  -1.3086
    -0.8343  -0.3459   0.7520   1.0594   1.5150   1.9509   2.2295   2.3702
     2.4267   2.8182   2.8231   2.8855   3.1920   3.5937   3.8009   4.0162
     4.0283   4.0670   4.3252   4.3915   4.4596   4.7189   5.1645   5.4531
     5.6802   5.7072   5.9707   6.0794   6.2456   6.3740   6.6243   6.7197
     6.7251   6.8060   6.9712   7.6715   7.7242   7.7777   7.9701   8.0045
     8.0807   8.1887   8.2768   8.3372   8.3779   8.3873   8.5712   8.7757
     8.7788   8.8039   8.9295   9.0510   9.0541   9.1004   9.1717   9.3127
     9.4340   9.4477   9.5018   9.5394   9.6353   9.7043   9.9039   9.9691
    10.0545  10.1066  10.1487  10.2345  10.4317  10.4937  10.5536  10.5865
    10.7339  10.7427  10.8109  10.8142  10.8234  10.8868  10.9251  10.9885
    10.9994  11.1870  11.2080  11.2779  11.4403  11.5063  11.5458  11.5549
    11.7054  11.7072  11.8006  11.8068  11.8477  11.9645  12.0840  12.1272
    12.1397  12.3412  12.4153  12.4496  12.4972  12.5162  12.7855  12.9750
    12.9852  13.0527  13.1940  13.2718  13.2826  13.3142  13.5556  13.5620
    13.6463  13.6776  13.8461  13.9017  14.0201  14.0625  14.0826  14.1891
    14.3420  14.4101  14.5113  14.5426  14.5571  14.9007  15.0913  15.0945
    15.2061  15.2135  15.2466  15.3404  15.4585  15.4788  15.5785  15.6741
    15.6954  15.7394  15.7671  15.7715  15.8131  15.8667  15.9865  16.0358
    16.0638  16.1251  16.1448  16.3462  16.4389  16.4842  16.4987  16.5396
    16.6736  16.7370  16.7654  16.7901  16.8775  16.9052  17.0156  17.0509
    17.0797  17.1520  17.2732  17.4044  17.4055  17.5218  17.5384  17.5913
    17.6676  17.6949  17.7454  17.7647  17.8024  18.0103  18.0472  18.1632
    18.1887  18.1911  18.3161  18.5287  18.5949  18.6286  18.7356  18.7400
    18.7863  18.8823  18.9130  18.9753  19.0553  19.1111  19.2931  19.3254
    19.4501  19.5570  19.6226  19.7373  19.7631  19.8081  19.8710  19.8877
    20.1856  20.2056  20.2393  20.2502  20.4097  20.4365  20.6017  20.6369
    20.6805  20.6864  20.7498  20.8420  20.9267  20.9461  20.9780  21.0323
    21.0756  21.2788  21.2865  21.3120  21.4149  21.4360  21.4971  21.5182
    21.5612  21.7230  21.7866  21.8824  21.9026  21.9905  22.1342  22.2350
    22.3307  22.3383  22.4884  22.5122  22.5662  22.5807  22.6566  22.6987
    22.7000  22.8011  22.8826  22.9435  23.1214  23.1842  23.2426  23.2565
    23.3677  23.4663  23.4880  23.6510  23.7357  23.7681  23.9381  23.9757
    24.1004  24.1324  24.1719  24.2191  24.2276  24.4092  24.4357  24.5908
    24.6378  24.6485  24.8055  24.8381  24.9571  25.0489  25.0664  25.1063
    25.1246  25.1348  25.1772  25.3001  25.4186  25.4895  25.5358  25.5465
    25.6538  25.7424  25.8928  25.8972  25.9076  25.9358  25.9360  25.9523
    25.9784  26.1916  26.4235  26.4330  26.4490  26.5289  26.5406  26.6883
    26.7449  26.7764  26.7783  26.9017  26.9474  27.0099  27.1187  27.1848
    27.2389  27.2933  27.3155  27.3344  27.3844  27.6377  27.6489  27.9266
    27.9768  28.2008  28.2412  28.2848  28.3125  28.3181  28.3954  28.4874
    28.5360  28.6708  28.7525  28.8645  28.9894  28.9947  29.0280  29.0721
    29.1560  29.1975  29.1993  29.2018  29.2686  29.4797  29.5033  29.6814
    29.6970  29.9193  29.9577  30.0021  30.0981  30.1636  30.1711  30.1865
    30.2585  30.2777  30.3638  30.4854  30.5133  30.5661  30.5690  30.7400
    30.7500  30.7870  30.9020  31.0816  31.1417  31.1951  31.2986  31.3499
    31.3605  31.4552  31.5060  31.5980  31.7413  31.7446  31.8268  31.8754
    31.8886  32.0230  32.3192  32.3871  32.4538  32.5450  32.6135  32.6140
    32.6856  32.7087  32.7897  32.9138  32.9325  32.9866  32.9984  33.0095
    33.1318  33.1437  33.2074  33.4173  33.5407  33.5815  33.6478  33.6696
    33.7155  33.7335  33.7407  33.7785  33.8843  33.9538  33.9596  33.9724
    34.0234  34.0635  34.2062  34.2250  34.3710  34.3995  34.4010  34.4817
    34.5697  34.5729  34.6298  34.6928  34.7055  34.8018  34.8169  34.8440
    34.8890  34.9149  34.9370  34.9747  35.0205  35.0780  35.0875  35.1250
    35.1432  35.1902  35.1921  35.2229  35.2594  35.2663  35.2934  35.3207
    35.4398  35.4991  35.5648  35.5996  35.6348  35.7531  35.8070  35.9167
    35.9822  35.9973  36.0174  36.0256  36.1686  36.2011  36.2366  36.2836
    36.2906  36.3274  36.3953  36.4284

          k = 0.0000 0.0000 0.0141 ( 25377 PWs)   bands (ev):

   -30.0231 -30.0221 -28.4694 -28.4683 -21.8347 -21.2625 -20.0784 -18.4591
   -16.9835 -16.9758 -16.4539 -16.1172 -15.4120 -15.3200 -14.9969 -13.9546
   -13.2702 -12.9751 -12.6099 -12.3016 -12.2079 -11.4009 -11.0027 -10.7602
   -10.7222 -10.5913 -10.2601  -9.6369  -9.5531  -9.0592  -8.5678  -8.5075
    -8.4790  -8.4781  -7.9293  -7.2390  -7.0892  -6.6013  -6.1345  -5.8700
    -5.7897  -5.5971  -4.6496  -3.9010  -3.8215  -2.7926  -1.8127  -1.2057
    -0.7395  -0.3510   0.7679   1.0745   1.5306   1.9234   2.2442   2.3847
     2.4427   2.8322   2.8392   2.8984   3.2080   3.6098   3.8132   4.0314
     4.0443   4.0793   4.3402   4.4070   4.4291   4.7307   5.1527   5.4609
     5.6982   5.7253   5.9494   6.0642   6.2614   6.3896   6.6396   6.6874
     6.7345   6.7376   6.9762   7.6907   7.7427   7.7957   7.9491   7.9509
     8.0119   8.0995   8.1353   8.3327   8.3659   8.3814   8.4610   8.6985
     8.7613   8.8004   8.8755   8.9622   9.0419   9.0501   9.1616   9.2447
     9.2494   9.3669   9.5097   9.5645   9.6947   9.6952   9.8275   9.9379
     9.9812  10.1542  10.2390  10.2524  10.4007  10.4504  10.5654  10.5688
    10.7009  10.7178  10.7423  10.7703  10.8005  10.8372  10.9165  10.9180
    10.9588  11.1385  11.2158  11.3345  11.4141  11.4718  11.5393  11.5564
    11.6847  11.6912  11.7035  11.7419  11.8373  11.9284  12.1122  12.1425
    12.2628  12.4387  12.5635  12.6155  12.6387  12.6819  12.8708  12.9360
    13.0326  13.1662  13.1926  13.2796  13.3635  13.3696  13.5808  13.6575
    13.6909  13.8272  13.8363  13.9162  13.9254  14.0314  14.0556  14.1249
    14.2179  14.4012  14.4923  14.6289  14.6580  15.0030  15.0153  15.1240
    15.2651  15.2804  15.2849  15.3088  15.3727  15.4848  15.5164  15.6547
    15.6558  15.7776  15.7827  15.7875  15.7966  15.8441  15.9324  15.9596
    15.9811  16.1187  16.1369  16.2017  16.4154  16.4870  16.5228  16.6087
    16.6225  16.7077  16.7364  16.7738  16.8302  16.9678  16.9824  17.1051
    17.1607  17.1930  17.2558  17.3871  17.4782  17.5450  17.5649  17.6496
    17.6940  17.7904  17.8058  17.8642  17.9333  18.0266  18.1302  18.1972
    18.2823  18.3320  18.3896  18.4941  18.5269  18.6563  18.6792  18.7110
    18.7419  18.7695  18.8236  19.0334  19.0932  19.1602  19.3368  19.4036
    19.5765  19.6055  19.7300  19.7451  19.7502  19.8914  19.9544  19.9807
    20.1365  20.1409  20.2500  20.2571  20.4627  20.4782  20.6901  20.7011
    20.7139  20.7149  20.8283  20.8528  20.8763  20.8885  21.0216  21.0303
    21.0480  21.1621  21.3148  21.3417  21.4423  21.4459  21.4594  21.5271
    21.6058  21.7540  21.8092  21.9586  21.9953  22.0130  22.1510  22.1520
    22.3696  22.3897  22.4312  22.4654  22.5312  22.5475  22.6051  22.6614
    22.6787  22.7637  22.9102  22.9462  22.9924  23.1594  23.1828  23.2599
    23.3249  23.4076  23.4684  23.6451  23.7309  23.8987  23.9740  23.9751
    24.0983  24.1050  24.1811  24.2125  24.3890  24.4241  24.4821  24.6241
    24.6622  24.6686  24.9811  24.9965  25.0731  25.0993  25.1222  25.1276
    25.1462  25.2139  25.2458  25.2628  25.2900  25.4430  25.4850  25.5415
    25.6600  25.6899  25.7389  25.7558  25.7870  25.8178  25.8770  25.9892
    25.9921  26.1801  26.2710  26.4382  26.4492  26.5821  26.6157  26.6580
    26.7854  26.8736  26.8952  26.9319  27.0160  27.0466  27.1910  27.2459
    27.3404  27.3944  27.4288  27.4381  27.5212  27.6369  27.6525  27.8469
    27.8741  28.1486  28.1908  28.2142  28.2774  28.3033  28.4052  28.4546
    28.4842  28.6694  28.7093  28.7330  28.8069  28.8495  28.8599  29.0907
    29.1708  29.2457  29.2835  29.3204  29.3741  29.3997  29.5128  29.7409
    29.7712  29.9319  30.0411  30.0436  30.1643  30.2037  30.2484  30.3222
    30.3512  30.3764  30.4199  30.4790  30.5118  30.6172  30.6775  30.8437
    30.8549  30.9316  31.0489  31.0772  31.1021  31.2262  31.2453  31.2841
    31.3000  31.4595  31.5407  31.7025  31.7053  31.7339  31.7718  31.8826
    31.9339  32.0587  32.0724  32.2769  32.3182  32.3938  32.3975  32.4509
    32.5336  32.6180  32.6846  32.7690  32.8229  32.8541  32.9908  32.9943
    33.0100  33.1195  33.1399  33.2084  33.3564  33.3569  33.4781  33.5622
    33.5692  33.5911  33.6521  33.6639  33.6932  33.7418  33.9246  33.9653
    33.9812  33.9874  34.1589  34.1818  34.1971  34.1982  34.3777  34.3889
    34.4199  34.5068  34.5609  34.6113  34.6298  34.6679  34.6857  34.7368
    34.7765  34.8593  34.9152  34.9241  34.9722  34.9808  35.0287  35.0537
    35.0672  35.2142  35.2512  35.2642  35.2840  35.3000  35.3245  35.3767
    35.4012  35.4233  35.5181  35.5825  35.6252  35.6594  35.6709  35.7236
    35.8275  35.8355  35.9482  36.0359  36.1018  36.1355  36.1577  36.1587
    36.3097  36.3267  36.3846  36.4658

          k = 0.0000 0.0000 0.0188 ( 25357 PWs)   bands (ev):

   -30.0145 -30.0134 -28.4818 -28.4807 -21.8183 -21.2466 -20.0630 -18.4457
   -17.1532 -17.0255 -16.5496 -16.1561 -15.3539 -15.1715 -14.8723 -14.0502
   -13.1930 -12.9179 -12.6610 -12.2617 -12.1576 -11.4387 -10.9788 -10.7471
   -10.7098 -10.5461 -10.2908  -9.6214  -9.5357  -9.0177  -8.5595  -8.5521
    -8.4942  -8.4933  -7.9085  -7.2239  -7.1314  -6.6353  -6.1969  -5.8744
    -5.7953  -5.5852  -4.7516  -4.0020  -3.8438  -2.9538  -1.6496  -1.0739
    -0.6130  -0.3568   0.7901   1.0956   1.5524   1.8857   2.2645   2.4050
     2.4651   2.8518   2.8616   2.9164   3.2303   3.6324   3.8304   4.0525
     4.0667   4.0946   4.3611   4.3895   4.4285   4.7470   5.1369   5.4720
     5.7231   5.7505   5.8947   6.0773   6.2833   6.4112   6.6317   6.6354
     6.6785   6.7541   6.9714   7.6884   7.7166   7.7684   7.8203   7.8657
     8.0075   8.0250   8.1256   8.2827   8.3475   8.3802   8.3816   8.6473
     8.6563   8.7231   8.8353   8.8650   8.9622   9.0370   9.0466   9.2218
     9.2330   9.3068   9.4392   9.4477   9.5297   9.5722   9.8642  10.1072
    10.1346  10.1652  10.1782  10.2591  10.2761  10.4581  10.5040  10.5232
    10.5810  10.5857  10.6573  10.6758  10.8222  10.8509  10.8610  10.8931
    11.0395  11.1191  11.2143  11.2918  11.3815  11.4718  11.4935  11.5252
    11.6585  11.7314  11.7363  11.7678  11.7744  11.9491  12.1436  12.2553
    12.4055  12.5544  12.6153  12.6740  12.8341  12.8888  12.9371  12.9420
    12.9901  13.1338  13.1574  13.3918  13.4243  13.5302  13.6208  13.6762
    13.7367  13.8560  13.9043  13.9514  13.9948  14.0731  14.0772  14.1617
    14.1884  14.4170  14.4665  14.5714  14.7883  15.0436  15.0556  15.0559
    15.1079  15.2543  15.2900  15.3044  15.5013  15.5086  15.5162  15.5297
    15.5380  15.7035  15.7414  15.7629  15.7876  15.8111  15.8715  15.9336
    16.1056  16.1147  16.1533  16.3804  16.3871  16.4941  16.5045  16.5743
    16.6096  16.6225  16.7238  16.7660  16.7812  16.9566  16.9587  17.0190
    17.1411  17.3337  17.4040  17.4161  17.5511  17.5737  17.5971  17.6251
    17.7450  17.8995  17.9101  17.9222  18.0078  18.0422  18.2712  18.3557
    18.3667  18.4051  18.4729  18.4832  18.5178  18.5705  18.6155  18.6317
    18.6673  18.7318  18.9202  18.9996  19.2261  19.2976  19.4468  19.5447
    19.6379  19.6626  19.7562  19.7889  19.9052  19.9581  20.0128  20.0531
    20.0859  20.0946  20.2731  20.3035  20.4291  20.5007  20.5257  20.6421
    20.7695  20.7988  20.8507  20.8512  20.8695  20.9185  21.0622  21.0680
    21.2029  21.2352  21.2359  21.4060  21.4209  21.4758  21.4973  21.5893
    21.6778  21.7926  21.8054  22.0110  22.0445  22.0945  22.1005  22.1018
    22.1953  22.2652  22.3832  22.4305  22.5397  22.5942  22.6062  22.6064
    22.6661  22.7773  22.8688  22.9071  23.0368  23.0892  23.1835  23.3102
    23.3346  23.3677  23.4926  23.6080  23.8040  23.8141  23.8321  24.0587
    24.0713  24.2109  24.2200  24.3455  24.3885  24.4488  24.4887  24.6700
    24.7083  24.8215  24.8879  25.0100  25.0459  25.0992  25.1634  25.1675
    25.1929  25.2151  25.3052  25.3326  25.4313  25.4620  25.5044  25.5239
    25.5862  25.6077  25.6489  25.7695  25.8104  25.8220  25.8870  26.0075
    26.0298  26.1249  26.1344  26.4134  26.4521  26.5974  26.6626  26.6698
    26.8043  26.8365  26.9420  26.9577  27.0176  27.0762  27.2480  27.3889
    27.4037  27.4118  27.4738  27.5916  27.6237  27.6253  27.8006  27.8217
    27.9943  28.1196  28.1368  28.1481  28.1767  28.2907  28.3004  28.4197
    28.5228  28.5892  28.5930  28.5997  28.7161  28.7521  28.7576  29.0519
    29.1162  29.3280  29.3597  29.4498  29.5493  29.5602  29.5629  29.7404
    29.8457  29.9037  30.0027  30.0934  30.1203  30.2198  30.3018  30.3078
    30.3307  30.4275  30.5928  30.6131  30.6596  30.7631  30.8528  30.9145
    30.9409  30.9630  31.0380  31.0955  31.2022  31.2229  31.2580  31.2649
    31.3253  31.3732  31.4850  31.5779  31.7239  31.7404  31.7931  31.8138
    31.8607  31.9501  31.9766  32.1076  32.1080  32.2501  32.3049  32.3050
    32.3905  32.4035  32.5035  32.5346  32.6568  32.8888  32.8965  32.8973
    32.9909  33.0158  33.0924  33.1292  33.2001  33.2102  33.2183  33.3006
    33.3539  33.4286  33.4631  33.4976  33.6927  33.6975  33.8155  33.8330
    33.8596  33.9131  33.9162  33.9348  33.9648  34.0471  34.1621  34.2184
    34.3221  34.3909  34.3975  34.4488  34.4671  34.4843  34.5511  34.6235
    34.6719  34.7415  34.7834  34.8260  34.8413  34.8998  34.9504  34.9887
    35.0976  35.1319  35.2047  35.2541  35.2673  35.2909  35.3945  35.4217
    35.4417  35.5282  35.5444  35.5444  35.5505  35.6535  35.6747  35.7496
    35.8104  35.9352  35.9640  36.0664  36.1034  36.1261  36.1615  36.2056
    36.2459  36.3123  36.3598  36.4046

          k = 0.0000 0.0000 0.0235 ( 25333 PWs)   bands (ev):

   -30.0034 -30.0023 -28.4976 -28.4965 -21.7973 -21.2261 -20.0432 -18.4287
   -17.3278 -17.1075 -16.6173 -16.2323 -15.2790 -15.0193 -14.7256 -14.1518
   -13.1089 -12.8698 -12.6967 -12.2167 -12.0986 -11.4835 -10.9510 -10.7305
   -10.6940 -10.4915 -10.3260  -9.6021  -9.5134  -8.9686  -8.6183  -8.5334
    -8.5132  -8.5113  -7.8901  -7.2046  -7.1835  -6.6788  -6.2705  -5.8851
    -5.8040  -5.5702  -4.8733  -4.1340  -3.8553  -3.1139  -1.4872  -0.9215
    -0.4598  -0.3618   0.8186   1.1226   1.5803   1.8385   2.2905   2.4310
     2.4939   2.8770   2.8904   2.9395   3.2589   3.6613   3.8524   4.0795
     4.0955   4.1087   4.3457   4.3880   4.4560   4.7674   5.1179   5.4864
     5.7546   5.7828   5.8214   6.1092   6.3111   6.4387   6.5350   6.5696
     6.6998   6.7755   6.9444   7.4434   7.6987   7.7487   7.8005   7.8512
     7.8720   8.0468   8.1590   8.2120   8.2949   8.3718   8.3982   8.4052
     8.5832   8.6442   8.7191   8.8262   8.8549   9.0150   9.0456   9.0864
     9.1928   9.2456   9.2762   9.3534   9.5360   9.6107   9.7119   9.9364
    10.0973  10.1517  10.2104  10.2811  10.2982  10.4086  10.4445  10.4729
    10.5142  10.5353  10.6329  10.6537  10.7331  10.7428  10.8803  10.9337
    11.0310  11.0772  11.1711  11.3207  11.3891  11.4254  11.4456  11.5079
    11.6373  11.7677  11.7960  11.8078  11.9047  12.0186  12.2718  12.3471
    12.4235  12.5326  12.5485  12.7692  12.8159  12.8613  13.0626  13.0766
    13.1568  13.1962  13.3930  13.4251  13.4454  13.4922  13.5400  13.7105
    13.8683  13.8809  13.9751  13.9764  14.0051  14.1657  14.2003  14.3664
    14.4088  14.4271  14.4460  14.4688  14.7268  15.0306  15.0377  15.0476
    15.0997  15.2024  15.2354  15.2758  15.4005  15.4374  15.4781  15.4902
    15.4993  15.6886  15.7050  15.7356  15.8413  15.8574  15.9341  15.9581
    16.0644  16.1595  16.2380  16.3403  16.3597  16.4231  16.5479  16.5727
    16.6333  16.7275  16.7282  16.7662  16.8027  16.8109  17.0501  17.0539
    17.1816  17.2823  17.4272  17.4414  17.4754  17.6204  17.6223  17.7768
    17.8393  17.9601  17.9878  17.9996  18.0688  18.1241  18.2585  18.3426
    18.3811  18.4359  18.4434  18.4867  18.5336  18.6158  18.6590  18.6685
    18.7573  18.9439  19.0347  19.1488  19.3070  19.3150  19.5342  19.5969
    19.6811  19.8034  19.8368  19.9271  19.9423  20.0040  20.0491  20.0502
    20.1197  20.2197  20.2539  20.3531  20.3562  20.3649  20.5428  20.6072
    20.7032  20.7067  20.9033  20.9538  20.9864  21.0156  21.0360  21.0922
    21.1321  21.2703  21.3651  21.3954  21.5207  21.5409  21.5983  21.7208
    21.7236  21.8073  21.8596  21.9935  22.0034  22.0407  22.0735  22.1040
    22.1562  22.1589  22.2720  22.3344  22.5681  22.5777  22.5875  22.6155
    22.7115  22.7303  22.9188  22.9227  22.9541  23.1006  23.2106  23.3387
    23.4295  23.5338  23.5340  23.5680  23.6119  23.6718  23.9026  24.0336
    24.0339  24.2386  24.3763  24.3884  24.4016  24.4227  24.6585  24.6618
    24.7142  24.7263  24.8437  24.9489  25.0314  25.0415  25.1258  25.2149
    25.2364  25.3028  25.3313  25.4024  25.4231  25.4466  25.5037  25.5348
    25.5941  25.7356  25.8055  25.8427  25.8612  25.9227  26.0098  26.0355
    26.0476  26.0496  26.1247  26.4006  26.4546  26.5617  26.6639  26.7095
    26.7281  26.8661  26.9042  26.9653  27.0001  27.0272  27.2146  27.4139
    27.4874  27.4968  27.5502  27.5747  27.5850  27.8295  27.8324  27.9658
    28.0125  28.1117  28.1297  28.1862  28.1872  28.2860  28.2936  28.3041
    28.3594  28.4946  28.5603  28.6384  28.7128  28.7787  28.7841  28.8575
    29.1464  29.4278  29.5513  29.5607  29.5639  29.6086  29.6765  29.7308
    29.8156  29.8968  29.9540  30.1177  30.1364  30.2756  30.3381  30.3432
    30.3622  30.4714  30.5198  30.6898  30.7569  30.7920  30.8058  30.8687
    30.9105  30.9956  31.1072  31.1083  31.2059  31.2825  31.3204  31.4082
    31.4168  31.4416  31.5126  31.6061  31.6200  31.6301  31.6360  31.7195
    31.7534  31.7939  31.9393  31.9403  31.9667  32.0536  32.0997  32.1736
    32.1933  32.3520  32.3547  32.3801  32.5614  32.5783  32.6444  32.7915
    32.8615  32.8915  32.9655  33.0209  33.0928  33.1288  33.1353  33.1583
    33.1915  33.2035  33.3099  33.3712  33.3874  33.4474  33.5408  33.6875
    33.6894  33.8012  33.8145  33.8714  33.8728  33.8924  33.9788  33.9853
    34.1172  34.1905  34.2008  34.2417  34.2442  34.3072  34.3272  34.4822
    34.5629  34.6396  34.6602  34.8172  34.8604  34.8970  34.9144  34.9239
    35.0964  35.1316  35.1404  35.1863  35.2527  35.3089  35.3565  35.4417
    35.4538  35.4753  35.5672  35.5952  35.6209  35.7327  35.7686  35.7755
    35.8823  35.9426  35.9695  36.0242  36.0353  36.1158  36.1277  36.1822
    36.1960  36.2632  36.3398  36.3511

          k = 0.0000 0.0000 0.0282 ( 25374 PWs)   bands (ev):

   -29.9899 -29.9889 -28.5167 -28.5156 -21.7715 -21.2010 -20.0191 -18.4086
   -17.5037 -17.2205 -16.6553 -16.3316 -15.2011 -14.8686 -14.5589 -14.2551
   -13.0182 -12.8808 -12.6683 -12.1663 -12.0336 -11.5334 -10.9217 -10.7103
   -10.6749 -10.4291 -10.3632  -9.5794  -9.4861  -8.9142  -8.6812  -8.5395
    -8.5366  -8.5041  -7.8767  -7.2443  -7.1810  -6.7313  -6.3546  -5.9024
    -5.8165  -5.5526  -5.0103  -4.2815  -3.8662  -3.2724  -1.3256  -0.7581
    -0.3613  -0.2842   0.8535   1.1556   1.6143   1.7828   2.3218   2.4626
     2.5292   2.9078   2.9255   2.9674   3.2938   3.6967   3.8789   4.1104
     4.1123   4.1306   4.3098   4.4207   4.4890   4.7914   5.0960   5.5041
     5.7412   5.7927   5.8219   6.1524   6.3423   6.4252   6.4719   6.4910
     6.7339   6.7771   6.8892   7.2395   7.4841   7.7361   7.7863   7.8367
     7.8876   8.0752   8.1260   8.1426   8.1992   8.2752   8.3310   8.4309
     8.4721   8.4903   8.5273   8.8135   8.8313   8.8836   8.9600   8.9899
     9.0873   9.2759   9.2769   9.2894   9.5383   9.5432   9.6883   9.7194
     9.9170   9.9590  10.1205  10.2576  10.2811  10.3402  10.3735  10.4048
    10.4213  10.5674  10.6760  10.6816  10.7303  10.7535  10.9005  10.9164
    10.9793  11.0838  11.1133  11.3885  11.4076  11.4363  11.4634  11.4753
    11.6097  11.7997  11.8320  11.9052  12.0241  12.1313  12.2918  12.3433
    12.3896  12.4016  12.5996  12.7325  12.8280  12.9620  13.1191  13.1833
    13.2916  13.3473  13.4171  13.4740  13.5188  13.5194  13.7280  13.7705
    13.8693  13.9257  13.9448  13.9896  14.1117  14.1449  14.4151  14.4472
    14.4704  14.4912  14.5106  14.6722  14.7370  14.9229  14.9282  14.9580
    15.1343  15.1838  15.1838  15.2154  15.3464  15.3663  15.4328  15.4936
    15.5063  15.6375  15.7549  15.8066  15.8648  15.8954  15.9236  16.0069
    16.1348  16.1569  16.1978  16.3409  16.3642  16.3643  16.4517  16.4663
    16.6461  16.7476  16.7744  16.8465  16.9849  16.9917  17.0464  17.1687
    17.1973  17.2181  17.3659  17.4637  17.4860  17.6219  17.6553  17.7804
    17.7932  17.9913  18.0862  18.1361  18.1675  18.1711  18.1975  18.2228
    18.3901  18.4187  18.4325  18.5458  18.6931  18.7359  18.7503  18.8910
    18.9154  19.0924  19.2503  19.3124  19.3839  19.4331  19.5608  19.5661
    19.6670  19.8052  19.9140  19.9762  20.0092  20.0434  20.0764  20.1178
    20.1881  20.2697  20.3155  20.3664  20.4343  20.4366  20.5355  20.6110
    20.6332  20.6497  20.8685  20.9974  21.0123  21.0578  21.0826  21.1449
    21.1662  21.2543  21.4164  21.4808  21.5146  21.6194  21.6657  21.6687
    21.7649  21.8400  21.9117  21.9660  22.0285  22.0401  22.0540  22.0901
    22.1524  22.1730  22.1789  22.4089  22.4625  22.4863  22.5622  22.6290
    22.7343  22.8496  22.8795  22.9831  23.0976  23.1431  23.2161  23.3387
    23.3765  23.4555  23.4961  23.5336  23.5975  23.7877  23.9860  24.0572
    24.0604  24.2135  24.2810  24.3506  24.3883  24.4236  24.6543  24.6548
    24.7052  24.7575  24.8016  24.9080  24.9590  25.0564  25.1469  25.1624
    25.2419  25.3456  25.4069  25.4124  25.4681  25.4991  25.5743  25.5936
    25.6952  25.8419  25.8480  25.8992  25.9222  26.0020  26.0682  26.1622
    26.1805  26.1968  26.1971  26.4001  26.4565  26.5928  26.6378  26.6451
    26.7322  26.7832  26.7969  26.9699  27.0501  27.0553  27.1557  27.4183
    27.4626  27.4668  27.5656  27.5855  27.5964  27.7970  27.8977  27.9333
    27.9487  28.1281  28.1438  28.1962  28.3104  28.3203  28.3348  28.3647
    28.3853  28.4907  28.5796  28.7335  28.7360  28.8101  28.8570  28.9051
    29.1844  29.4345  29.4684  29.4722  29.5928  29.6451  29.6626  29.8850
    29.8949  29.9228  30.0093  30.0584  30.1284  30.1900  30.2622  30.3228
    30.3548  30.4307  30.4515  30.5711  30.7511  30.7616  30.8546  30.8953
    30.9030  30.9115  31.1157  31.1749  31.2488  31.3551  31.3577  31.3816
    31.3950  31.4642  31.5181  31.5400  31.5865  31.5947  31.6598  31.6740
    31.6756  31.6807  31.7815  31.7841  31.8515  31.9617  31.9909  32.0153
    32.0868  32.0890  32.1672  32.3032  32.3271  32.4695  32.5167  32.5771
    32.6286  32.7247  32.7791  32.8135  32.8231  32.8457  32.8871  32.9713
    33.0895  33.1102  33.1289  33.2110  33.2613  33.3306  33.3344  33.4297
    33.4556  33.6206  33.6520  33.6724  33.7524  33.8510  33.8908  33.9173
    33.9477  34.0459  34.0533  34.1022  34.1848  34.2130  34.2310  34.4700
    34.4788  34.5473  34.6764  34.6779  34.6964  34.7308  34.8789  34.9112
    35.0922  35.1422  35.1558  35.1645  35.1903  35.2181  35.3164  35.3462
    35.4648  35.5122  35.5187  35.5800  35.6104  35.7342  35.7408  35.7436
    35.7954  35.8841  35.8971  35.9752  36.0667  36.0778  36.1446  36.1529
    36.1637  36.2745  36.3198  36.3348

          k = 0.0000 0.0000 0.0329 ( 25382 PWs)   bands (ev):

   -29.9740 -29.9730 -28.5390 -28.5379 -21.7412 -21.1715 -19.9907 -18.3862
   -17.6781 -17.3545 -16.6718 -16.4447 -15.1259 -14.7259 -14.3759 -14.3532
   -12.9434 -12.9207 -12.5847 -12.1100 -11.9658 -11.5859 -10.8941 -10.6866
   -10.6524 -10.3985 -10.3602  -9.5541  -9.4538  -8.8568  -8.7464  -8.5661
    -8.5639  -8.4754  -7.8700  -7.3125  -7.1532  -6.7924  -6.4485  -5.9254
    -5.8330  -5.5331  -5.1577  -4.4382  -3.8785  -3.4292  -1.1650  -0.6022
    -0.3406  -0.0902   0.8947   1.1944   1.6544   1.7195   2.3583   2.4997
     2.5708   2.9441   2.9670   3.0003   3.3348   3.7385   3.9098   4.0811
     4.1508   4.1720   4.3015   4.4591   4.5274   4.8187   5.0718   5.5254
     5.6599   5.8371   5.8677   6.2036   6.2978   6.3936   6.4003   6.5099
     6.6628   6.7726   6.8793   7.0931   7.2544   7.6078   7.8283   7.8698
     7.8965   7.9271   8.0271   8.1056   8.1744   8.2470   8.2511   8.3332
     8.3568   8.3576   8.4902   8.5534   8.7584   8.8599   8.9175   8.9576
     9.0906   9.2014   9.2985   9.3007   9.3838   9.4774   9.5113   9.6982
     9.8008   9.8371   9.9952  10.1443  10.1608  10.2280  10.2885  10.2903
    10.2932  10.5032  10.6725  10.7225  10.7595  10.8224  10.9506  10.9624
    11.0059  11.0725  11.2379  11.4031  11.4415  11.4431  11.5063  11.5192
    11.5617  11.8063  11.8488  12.0070  12.0196  12.0693  12.2722  12.2760
    12.2853  12.5462  12.6653  12.7344  12.8672  12.9300  13.1677  13.2299
    13.4054  13.4357  13.4815  13.5514  13.5548  13.7329  13.8418  13.8482
    13.8949  13.9482  13.9691  14.0037  14.0702  14.2498  14.3201  14.5079
    14.5271  14.6418  14.7289  14.8069  14.8189  14.8504  14.8579  15.0159
    15.0313  15.0463  15.0924  15.2891  15.3480  15.4317  15.5144  15.5231
    15.5896  15.6172  15.6606  15.8270  15.8944  15.9062  15.9324  15.9332
    16.0517  16.2606  16.2662  16.3064  16.3204  16.3930  16.4393  16.5740
    16.6503  16.6939  16.7424  16.8958  17.0061  17.0223  17.1605  17.2195
    17.2425  17.3438  17.4976  17.5227  17.5233  17.5848  17.6613  17.7075
    17.8047  17.9774  18.0149  18.0772  18.1318  18.2061  18.2195  18.2712
    18.3992  18.6235  18.6440  18.6874  18.8205  18.8463  18.8513  19.0072
    19.0495  19.1526  19.3710  19.5421  19.5639  19.5711  19.5793  19.5821
    19.7463  19.8333  19.8481  19.8933  19.9220  20.0572  20.1190  20.2007
    20.3577  20.3931  20.4198  20.4512  20.4824  20.5088  20.5531  20.5937
    20.6970  20.7037  20.8376  20.9501  21.0220  21.0868  21.1344  21.1841
    21.2365  21.2680  21.4314  21.4675  21.4703  21.5575  21.6539  21.6665
    21.7344  21.7949  21.8909  22.0290  22.0344  22.0502  22.1027  22.1538
    22.1670  22.1778  22.2957  22.4346  22.4437  22.5817  22.6087  22.6363
    22.7091  22.9543  22.9899  22.9937  23.0845  23.1358  23.2003  23.2917
    23.3795  23.3832  23.4348  23.6526  23.6680  23.7636  24.0896  24.1180
    24.1277  24.1425  24.1619  24.2623  24.3032  24.4320  24.5740  24.6371
    24.6500  24.6977  24.7900  24.9250  25.0239  25.0801  25.1170  25.2078
    25.2898  25.3914  25.4539  25.4831  25.5427  25.5549  25.6209  25.6919
    25.7733  25.8741  25.9092  25.9118  25.9830  26.0288  26.1111  26.2657
    26.3620  26.3745  26.4064  26.4088  26.4740  26.5562  26.6004  26.6275
    26.7128  26.7626  26.8574  26.9788  27.1049  27.1068  27.1200  27.3246
    27.4395  27.4465  27.5348  27.5419  27.5768  27.7485  27.7970  27.8301
    28.0108  28.0411  28.1277  28.1995  28.3529  28.3690  28.4102  28.4964
    28.5320  28.6615  28.6792  28.8413  28.8603  28.8628  29.0087  29.0707
    29.2185  29.2201  29.3515  29.4456  29.4599  29.5427  29.7125  29.7263
    29.9273  29.9335  30.0013  30.0565  30.1284  30.1361  30.2676  30.2783
    30.3189  30.3347  30.4409  30.5024  30.5205  30.8004  30.8439  30.8725
    30.9167  30.9439  31.0466  31.1196  31.1304  31.1463  31.2512  31.2765
    31.3212  31.3730  31.4603  31.4792  31.5363  31.5482  31.5743  31.6161
    31.6204  31.7175  31.7605  31.8022  31.8122  31.8624  31.9161  31.9675
    31.9854  32.0253  32.0276  32.1247  32.1513  32.3120  32.3417  32.3932
    32.3949  32.4616  32.4886  32.6087  32.6384  32.6598  32.7128  32.7543
    32.8322  32.8873  32.9845  33.0593  33.0599  33.1227  33.1638  33.2707
    33.4400  33.4777  33.4884  33.5207  33.5557  33.7497  33.8504  33.8924
    33.9108  33.9903  34.1046  34.1283  34.1483  34.1655  34.2431  34.4051
    34.4187  34.4739  34.4820  34.5167  34.6400  34.6811  34.7048  34.9136
    34.9337  34.9425  35.0766  35.0961  35.1832  35.1931  35.2236  35.2592
    35.3187  35.4494  35.5211  35.5510  35.5805  35.6008  35.6625  35.6689
    35.7706  35.8725  35.9229  35.9385  35.9505  36.0472  36.1128  36.2212
    36.2240  36.2602  36.3108  36.3251

          k = 0.0000 0.0000 0.0376 ( 25432 PWs)   bands (ev):

   -29.9559 -29.9549 -28.5643 -28.5631 -21.7061 -21.1374 -19.9579 -18.3632
   -17.8483 -17.5000 -16.6757 -16.5664 -15.0544 -14.6195 -14.4175 -14.1806
   -13.0232 -12.8166 -12.4816 -12.0476 -11.9003 -11.6365 -10.8731 -10.6597
   -10.6268 -10.4267 -10.2862  -9.5275  -9.4166  -8.8117  -8.7985  -8.5972
    -8.5948  -8.4414  -7.8709  -7.3871  -7.1213  -6.8612  -6.5521  -5.9535
    -5.8542  -5.5156  -5.3088  -4.6006  -3.8928  -3.5838  -1.0058  -0.5026
    -0.2535   0.1187   0.9423   1.2391   1.6498   1.7005   2.3998   2.5421
     2.6188   2.9859   3.0148   3.0381   3.3818   3.7867   3.9448   4.0181
     4.1946   4.2197   4.3246   4.5029   4.5707   4.8485   5.0458   5.5503
     5.5809   5.8878   5.9201   6.1856   6.2546   6.2984   6.4379   6.4626
     6.5577   6.8066   6.8917   6.9926   7.0317   7.4770   7.6844   7.8504
     7.8898   7.9118   7.9268   8.0008   8.1167   8.1372   8.2246   8.2448
     8.2706   8.2944   8.3017   8.5310   8.6080   8.8978   8.9060   8.9346
     8.9998   9.1696   9.1935   9.2560   9.3341   9.3681   9.4077   9.5762
     9.6957   9.8613   9.8678   9.9784  10.0050  10.0798  10.1680  10.2560
    10.2800  10.3721  10.6414  10.6952  10.7700  10.8254  10.9673  10.9884
    11.1934  11.2934  11.3096  11.3222  11.4524  11.4762  11.4857  11.5507
    11.6001  11.7853  11.8608  11.8838  12.0023  12.0929  12.2108  12.2364
    12.2654  12.5102  12.6947  12.8120  12.9589  13.0459  13.1702  13.2522
    13.3676  13.5057  13.5183  13.5923  13.7278  13.7635  13.8166  13.8270
    13.9201  14.0018  14.0765  14.1623  14.2151  14.2171  14.4433  14.4855
    14.5461  14.6205  14.6790  14.7942  14.8561  14.8834  14.9914  14.9958
    15.0283  15.0950  15.3095  15.4014  15.4403  15.4697  15.4842  15.5468
    15.5520  15.6027  15.7548  15.7749  15.8477  15.8809  15.9528  15.9705
    16.0937  16.1920  16.2918  16.3460  16.4315  16.4745  16.5060  16.6162
    16.6646  16.6725  16.6758  16.8475  16.9748  17.0319  17.1232  17.2484
    17.4124  17.4328  17.4946  17.5979  17.6077  17.7076  17.7137  17.7333
    17.8937  17.9050  17.9125  18.1526  18.1633  18.2668  18.2732  18.3245
    18.3671  18.7313  18.8333  18.8797  18.8994  18.9513  18.9793  19.0961
    19.1533  19.1744  19.3822  19.4883  19.6008  19.6925  19.6938  19.7803
    19.8404  19.9442  19.9579  19.9613  19.9874  20.0894  20.1992  20.2598
    20.2672  20.3134  20.4383  20.4482  20.5155  20.6280  20.7179  20.7603
    20.7871  20.8467  20.9204  20.9673  21.0438  21.0781  21.0982  21.2034
    21.2346  21.2578  21.3025  21.3759  21.5135  21.5835  21.6016  21.6277
    21.7043  21.8771  21.8894  21.8935  22.0582  22.0790  22.1913  22.2144
    22.2150  22.2632  22.3564  22.4225  22.4730  22.6889  22.7011  22.7204
    22.8150  22.8823  23.0077  23.0524  23.0614  23.0914  23.2488  23.3764
    23.3779  23.4268  23.5649  23.6543  23.6911  23.7853  23.9619  24.0106
    24.0652  24.0815  24.1867  24.2131  24.2969  24.3646  24.5854  24.6514
    24.7000  24.7175  24.7297  24.8225  25.1242  25.1857  25.2119  25.2671
    25.3209  25.4091  25.5032  25.5166  25.5237  25.6753  25.6808  25.7227
    25.7952  25.9456  25.9607  26.0182  26.0325  26.0509  26.1635  26.3023
    26.3786  26.4171  26.4338  26.4869  26.5175  26.5531  26.6384  26.7908
    26.8083  26.8342  26.8930  27.0071  27.1347  27.1789  27.2105  27.3003
    27.3790  27.4552  27.4746  27.4932  27.5728  27.6778  27.7125  27.8470
    27.8905  28.0185  28.1209  28.2574  28.3901  28.4109  28.4285  28.5504
    28.5997  28.6919  28.8074  28.9334  29.0017  29.0647  29.0866  29.1214
    29.1711  29.2289  29.2407  29.3592  29.4055  29.5360  29.5833  29.6569
    29.7525  29.8390  29.8763  29.9753  30.0570  30.1170  30.1874  30.3048
    30.3639  30.3987  30.4258  30.4801  30.5575  30.5705  30.5894  30.7576
    30.8030  30.8099  30.8669  30.9504  30.9887  31.0982  31.1369  31.1844
    31.2494  31.2630  31.3509  31.3554  31.4312  31.4533  31.5193  31.5498
    31.5568  31.6116  31.6472  31.6531  31.6779  31.7713  31.8006  31.8258
    31.9476  31.9913  32.0332  32.0520  32.0974  32.1195  32.2181  32.2391
    32.2627  32.3160  32.3886  32.4090  32.5198  32.5322  32.5738  32.5796
    32.6004  32.7398  32.7540  32.8359  32.8542  32.8927  33.1478  33.3047
    33.3501  33.4551  33.5146  33.5437  33.5590  33.5849  33.5980  33.8332
    33.8891  33.9266  34.0145  34.0703  34.0806  34.0991  34.2058  34.2370
    34.2836  34.4113  34.4474  34.4507  34.5192  34.6584  34.6662  34.7001
    34.7267  34.9352  34.9641  35.0819  35.0941  35.1090  35.2303  35.2787
    35.3191  35.3607  35.3775  35.4799  35.5126  35.5412  35.6140  35.6778
    35.6879  35.7103  35.8017  35.8399  35.8856  35.9294  36.0141  36.1221
    36.1282  36.1765  36.2876  36.3227

          k = 0.0000 0.0000 0.0423 ( 25434 PWs)   bands (ev):

   -29.9355 -29.9345 -28.5923 -28.5912 -21.6665 -21.0989 -19.9210 -18.3457
   -18.0075 -17.6510 -16.6932 -16.6730 -14.9860 -14.6362 -14.3604 -13.9764
   -13.1099 -12.7068 -12.3698 -11.9792 -11.8507 -11.6706 -10.8654 -10.6295
   -10.5982 -10.4406 -10.2085  -9.5015  -9.3745  -8.8750  -8.7413  -8.6318
    -8.6290  -8.4027  -7.8800  -7.4668  -7.0852  -6.9369  -6.6653  -5.9853
    -5.8804  -5.5355  -5.4259  -4.7661  -3.9096  -3.7359  -0.8482  -0.4727
    -0.0882   0.3395   0.9961   1.2894   1.5752   1.7524   2.4460   2.5895
     2.6732   3.0330   3.0689   3.0807   3.4342   3.8413   3.9347   3.9833
     4.2436   4.2736   4.3675   4.5519   4.6182   4.8799   5.0185   5.5068
     5.5783   5.9446   5.9787   6.0781   6.1864   6.1959   6.3575   6.4903
     6.5999   6.7377   6.8160   6.9203   6.9935   7.2996   7.5541   7.6861
     7.7496   7.8294   7.9289   7.9389   8.0229   8.0405   8.0632   8.1660
     8.1723   8.2524   8.3610   8.4977   8.5817   8.7682   8.8253   8.9452
     8.9936   9.0232   9.0371   9.2059   9.2381   9.3799   9.4122   9.5083
     9.6342   9.6536   9.6972   9.8711   9.9531  10.0531  10.0675  10.1083
    10.2293  10.4008  10.5111  10.7192  10.8217  10.8773  10.9809  11.0324
    11.2004  11.3611  11.3614  11.3912  11.3948  11.4579  11.5013  11.5115
    11.6364  11.7461  11.8870  11.8925  12.0280  12.1040  12.1816  12.1881
    12.2338  12.4272  12.6042  12.9214  13.1129  13.1201  13.2041  13.2553
    13.4041  13.4184  13.4900  13.5744  13.6692  13.8005  13.8419  13.9122
    13.9400  14.0910  14.2127  14.2339  14.2724  14.3522  14.3952  14.5654
    14.5736  14.6015  14.7571  14.7841  14.7993  14.9054  14.9830  15.0773
    15.2070  15.2791  15.2971  15.3883  15.5092  15.5136  15.5464  15.5514
    15.6173  15.6772  15.7224  15.8521  15.8874  15.9201  16.0198  16.0364
    16.1431  16.2355  16.3799  16.4432  16.4538  16.4690  16.5146  16.6002
    16.6175  16.6603  16.7623  16.7676  17.0604  17.0966  17.1081  17.2158
    17.3671  17.4221  17.5578  17.5707  17.6761  17.7092  17.7272  17.9327
    17.9733  18.0807  18.1853  18.1874  18.1999  18.2907  18.3481  18.3730
    18.4374  18.7981  18.8626  18.9054  18.9212  18.9426  19.1055  19.2370
    19.2514  19.3029  19.3938  19.4793  19.5350  19.7919  19.7982  19.8490
    19.9653  20.0088  20.0847  20.1303  20.1562  20.1928  20.2209  20.2736
    20.3306  20.3897  20.4847  20.4968  20.5505  20.7307  20.7464  20.8468
    20.8675  20.8842  20.9188  21.0336  21.0431  21.0481  21.1297  21.2013
    21.2364  21.2611  21.3081  21.3574  21.5506  21.5582  21.6029  21.6237
    21.7022  21.8072  21.9065  21.9979  22.0567  22.2134  22.2166  22.2478
    22.2650  22.2918  22.3127  22.4411  22.5091  22.5270  22.6350  22.9186
    22.9393  22.9404  23.0914  23.0982  23.2085  23.2259  23.2933  23.4436
    23.4630  23.5027  23.5303  23.5630  23.7869  23.8436  23.8505  23.8513
    23.9584  24.1047  24.1737  24.1874  24.2259  24.3867  24.5041  24.5800
    24.6198  24.7213  24.9372  25.1026  25.1360  25.1755  25.2883  25.3227
    25.3573  25.4169  25.5231  25.5402  25.5808  25.6837  25.7572  25.7584
    25.8517  25.9489  25.9828  26.0257  26.0603  26.1331  26.2162  26.3003
    26.3875  26.4072  26.4938  26.5309  26.5815  26.6382  26.6899  26.7947
    26.8434  26.9052  26.9894  27.1711  27.1981  27.3020  27.3132  27.3267
    27.3945  27.4303  27.4801  27.5165  27.5514  27.6366  27.7474  27.8401
    27.9627  28.0009  28.0360  28.1389  28.3472  28.3670  28.3955  28.4485
    28.6686  28.6703  28.7394  28.9550  28.9802  29.1035  29.1712  29.1937
    29.2521  29.2662  29.3009  29.3284  29.3812  29.4313  29.5947  29.6064
    29.6638  29.8229  29.8472  29.9685  30.0115  30.0248  30.0777  30.0975
    30.1457  30.2350  30.2572  30.4263  30.5043  30.5368  30.5846  30.6037
    30.6414  30.6422  30.7201  30.8143  30.8591  30.8907  30.9142  31.0447
    31.0635  31.0862  31.1433  31.2813  31.3445  31.3764  31.3882  31.4055
    31.4332  31.4474  31.4639  31.5393  31.6270  31.6616  31.7451  31.7631
    31.8238  31.8941  31.9030  31.9282  31.9656  32.0224  32.0378  32.1844
    32.2080  32.2331  32.2488  32.3114  32.3174  32.4264  32.5235  32.5803
    32.5950  32.7669  32.7919  32.7966  32.8443  32.9307  33.0252  33.1484
    33.2860  33.3514  33.4785  33.4903  33.4979  33.5474  33.5960  33.6397
    33.6823  33.8134  33.8632  33.9248  34.0226  34.0293  34.0650  34.1424
    34.2290  34.3389  34.3665  34.3817  34.4525  34.5460  34.6483  34.6725
    34.7065  34.8902  34.9927  35.0227  35.0473  35.0636  35.1498  35.2049
    35.2643  35.3417  35.3604  35.3882  35.3888  35.4171  35.4506  35.5348
    35.5536  35.5598  35.6680  35.7144  35.8191  35.8715  35.9087  36.0219
    36.0733  36.0804  36.0988  36.1384

          k = 0.0000 0.0000 0.0469 ( 25440 PWs)   bands (ev):

   -29.9129 -29.9119 -28.6230 -28.6219 -21.6221 -21.0558 -19.8798 -18.3577
   -18.1313 -17.8043 -16.8229 -16.6674 -14.9203 -14.7202 -14.2364 -13.7663
   -13.2000 -12.5935 -12.2533 -11.9052 -11.8469 -11.6568 -10.8769 -10.5963
   -10.5666 -10.4341 -10.1285  -9.4791  -9.3275  -8.9332  -8.6874  -8.6697
    -8.6664  -8.3594  -7.8970  -7.5505  -7.0451  -7.0185  -6.7881  -6.0202
    -5.9117  -5.6698  -5.4302  -4.9328  -3.9292  -3.8851  -0.6925  -0.4669
     0.1084   0.5695   1.0562   1.3455   1.4972   1.8100   2.4966   2.6418
     2.7339   3.0853   3.1282   3.1293   3.4905   3.8410   3.9022   4.0247
     4.2974   4.3336   4.4223   4.6051   4.6689   4.9115   4.9907   5.4390
     5.6086   5.9811   5.9817   6.0074   6.0365   6.0720   6.3887   6.5203
     6.5608   6.6193   6.7363   6.9576   7.0418   7.0870   7.4464   7.4875
     7.5943   7.6835   7.7059   7.7962   7.9447   7.9713   7.9992   8.1356
     8.1906   8.2928   8.4024   8.4269   8.5597   8.6390   8.7129   8.7539
     8.8768   8.9996   9.0536   9.0665   9.2225   9.3975   9.4339   9.4640
     9.4922   9.4986   9.5726   9.7772   9.8562   9.9892   9.9911  10.0349
    10.1955  10.4543  10.4933  10.7200  10.8735  10.9252  10.9917  11.0730
    11.1154  11.2406  11.2781  11.3048  11.4424  11.4991  11.5292  11.5433
    11.5468  11.8453  11.9155  12.0255  12.0751  12.0794  12.1142  12.1748
    12.2342  12.4558  12.4843  12.9825  13.0692  13.0928  13.1303  13.1693
    13.4063  13.4815  13.5256  13.6230  13.7453  13.7782  13.8088  13.9092
    13.9377  14.0831  14.1449  14.3203  14.3905  14.4441  14.5451  14.5796
    14.6678  14.6718  14.7642  14.8112  14.9074  14.9706  15.0673  15.1246
    15.1630  15.2281  15.3402  15.3748  15.4032  15.6174  15.6207  15.7131
    15.7366  15.7625  15.8353  15.9308  15.9751  16.0520  16.1105  16.1180
    16.1944  16.2801  16.3252  16.3980  16.5001  16.5405  16.5718  16.5776
    16.6749  16.7766  16.8150  16.8311  17.0027  17.1292  17.2097  17.2578
    17.3962  17.3995  17.4214  17.4693  17.7915  17.8106  17.8423  18.0862
    18.0953  18.1702  18.2367  18.2838  18.2999  18.3873  18.5000  18.5005
    18.6655  18.7522  18.8075  18.8970  18.9709  19.0193  19.0499  19.1006
    19.4185  19.4422  19.4548  19.5048  19.7052  19.8215  19.8279  19.9177
    19.9302  20.0067  20.1446  20.2356  20.2454  20.3618  20.3826  20.4143
    20.4876  20.4952  20.5399  20.6008  20.6559  20.7254  20.8172  20.8408
    20.8627  20.9050  20.9485  21.0133  21.0395  21.0477  21.0566  21.1585
    21.2548  21.2858  21.4369  21.5014  21.5884  21.6164  21.6172  21.7038
    21.7067  21.8689  21.8994  21.9977  22.1389  22.1634  22.2249  22.2270
    22.2996  22.3001  22.3165  22.3544  22.5690  22.6189  22.6739  22.8805
    23.0218  23.0843  23.1596  23.1861  23.3139  23.3496  23.3568  23.4569
    23.4695  23.4989  23.5454  23.6606  23.7495  23.8019  23.8052  23.9304
    23.9939  24.1427  24.1700  24.1784  24.2261  24.3286  24.4887  24.5507
    24.5960  24.7588  25.0799  25.0811  25.1428  25.3400  25.3993  25.4071
    25.4336  25.4547  25.5286  25.5884  25.6348  25.6966  25.7058  25.7088
    25.8418  25.9429  25.9787  26.0929  26.1543  26.2318  26.2880  26.3180
    26.3670  26.4395  26.4535  26.4941  26.5644  26.8268  26.8302  26.8450
    26.8916  26.9123  27.0182  27.0883  27.3175  27.3244  27.3646  27.4620
    27.4943  27.5308  27.5427  27.5737  27.6059  27.6415  27.7174  27.7801
    27.9095  28.0647  28.0900  28.0925  28.1563  28.2733  28.4130  28.5289
    28.5621  28.5689  28.6741  28.6953  28.8886  28.9644  29.0694  29.2059
    29.2685  29.2915  29.3614  29.3978  29.4358  29.5018  29.5722  29.5982
    29.6280  29.7530  29.7558  29.8614  29.8837  29.9061  30.0655  30.0928
    30.1118  30.1125  30.1400  30.2123  30.2147  30.3099  30.3273  30.4388
    30.4762  30.5387  30.5773  30.6088  30.7475  30.8512  30.8669  30.8819
    30.8979  30.9188  30.9397  31.1299  31.1703  31.1750  31.2078  31.2327
    31.3117  31.3451  31.3679  31.3964  31.5063  31.6022  31.6143  31.6177
    31.7725  31.7838  31.8487  31.8691  31.9060  31.9266  31.9381  31.9681
    32.1665  32.1996  32.2374  32.3144  32.3780  32.4298  32.4465  32.4502
    32.6199  32.7316  32.8408  32.8710  32.9291  32.9576  32.9897  33.0068
    33.1903  33.1984  33.2869  33.3381  33.4559  33.4620  33.5453  33.5778
    33.6056  33.6287  33.7590  33.8555  33.9651  34.0032  34.0842  34.0965
    34.1906  34.3401  34.3549  34.4060  34.4279  34.4600  34.5324  34.5588
    34.5671  34.7623  34.7642  34.7947  34.9892  35.0145  35.0493  35.1424
    35.1546  35.1846  35.2210  35.2652  35.3176  35.3350  35.3417  35.4383
    35.5243  35.5333  35.5357  35.6655  35.6815  35.6943  35.8848  35.9458
    35.9518  35.9718  35.9749  35.9931

          k = 0.0000 0.0000 0.0516 ( 25420 PWs)   bands (ev):

   -29.8883 -29.8873 -28.6560 -28.6549 -21.5732 -21.0083 -19.8345 -18.4482
   -18.1707 -17.9578 -16.9539 -16.6613 -14.8568 -14.8114 -14.1043 -13.5526
   -13.2908 -12.4812 -12.1341 -11.8818 -11.8265 -11.5979 -10.9088 -10.5603
   -10.5324 -10.4056 -10.0479  -9.4644  -9.2756  -8.9821  -8.7105  -8.7063
    -8.6389  -8.3115  -7.9212  -7.6373  -7.1048  -7.0010  -6.9202  -6.0571
    -5.9477  -5.8341  -5.4047  -5.0993  -4.0307  -3.9516  -0.5391  -0.4660
     0.3166   0.8056   1.1226   1.4070   1.4186   1.8731   2.5512   2.6984
     2.8009   3.1428   3.1806   3.1960   3.5440   3.7477   3.9695   4.0678
     4.3551   4.3997   4.4863   4.6610   4.7208   4.9414   4.9648   5.3776
     5.6382   5.7646   5.8987   5.9313   6.0763   6.1183   6.3167   6.3529
     6.6064   6.6181   6.7538   6.8786   7.0154   7.1044   7.2089   7.4109
     7.4246   7.4794   7.5211   7.5803   7.7978   7.8146   8.0660   8.1843
     8.2444   8.2594   8.3538   8.3782   8.4970   8.5106   8.5771   8.7026
     8.7099   8.8680   9.0611   9.0893   9.1576   9.2760   9.3057   9.4428
     9.4643   9.4946   9.5218   9.7234   9.7829   9.8205   9.9216  10.0344
    10.2051  10.5163  10.5464  10.6777  10.9090  10.9647  11.0018  11.0020
    11.0902  11.1138  11.1718  11.2551  11.2834  11.5152  11.5679  11.5770
    11.5885  11.8960  11.9166  12.0090  12.0596  12.1615  12.1627  12.2269
    12.3143  12.3679  12.5188  12.9113  12.9123  12.9945  13.0766  13.1784
    13.3282  13.3595  13.4924  13.6663  13.7478  13.8356  13.9067  13.9531
    14.0283  14.0384  14.1615  14.3025  14.3432  14.5067  14.6772  14.7143
    14.7307  14.7534  14.8570  14.8996  14.9125  14.9982  15.1221  15.1783
    15.1822  15.2293  15.2436  15.3663  15.4471  15.6937  15.7370  15.7891
    15.8732  15.9200  15.9541  16.0093  16.0889  16.1259  16.1266  16.1819
    16.2182  16.2458  16.3435  16.4062  16.5188  16.6757  16.6873  16.6981
    16.7928  16.8656  16.9046  16.9151  17.1188  17.1348  17.2043  17.3099
    17.3231  17.4157  17.5108  17.5151  17.8511  17.9115  17.9729  18.0706
    18.1120  18.2485  18.2720  18.3631  18.3637  18.5385  18.6256  18.6277
    18.7698  18.7963  18.9514  18.9604  19.0003  19.0229  19.0508  19.1358
    19.3836  19.5160  19.5338  19.6238  19.6529  19.7100  19.8710  19.8903
    20.1288  20.1735  20.2399  20.3070  20.3462  20.3731  20.4465  20.4613
    20.4894  20.5784  20.6362  20.6757  20.6949  20.7490  20.7755  20.9404
    20.9819  20.9978  21.0195  21.0720  21.0754  21.1127  21.1280  21.2051
    21.2909  21.3484  21.3755  21.5102  21.5955  21.7058  21.7475  21.7938
    21.8054  21.8068  21.8976  21.9825  22.0078  22.2087  22.2219  22.3143
    22.3266  22.4071  22.4097  22.4671  22.6699  22.6767  22.7114  22.8451
    23.0839  23.1246  23.1530  23.1766  23.2297  23.3527  23.3966  23.3978
    23.4392  23.5726  23.6873  23.7080  23.7792  23.9004  23.9367  24.0611
    24.1281  24.2036  24.2060  24.2083  24.2193  24.3752  24.3809  24.5866
    24.6335  24.8344  25.0019  25.1271  25.2132  25.3360  25.3569  25.3984
    25.4227  25.6394  25.6515  25.6538  25.6595  25.6876  25.7463  25.7770
    25.9194  25.9594  25.9992  26.0794  26.2001  26.2333  26.2402  26.3170
    26.3441  26.4456  26.5192  26.6528  26.6873  26.7520  26.7590  26.8716
    26.9418  26.9472  26.9887  27.1475  27.2583  27.2829  27.3864  27.4987
    27.5133  27.5226  27.6292  27.6327  27.6536  27.6771  27.8172  27.8331
    27.8826  27.9702  28.1687  28.1916  28.2432  28.3202  28.3558  28.3679
    28.4590  28.4842  28.5994  28.6875  28.7721  28.7964  28.9031  28.9967
    29.1403  29.2143  29.3320  29.3580  29.4256  29.4340  29.4898  29.5067
    29.5501  29.6238  29.6770  29.7287  29.7337  29.8220  29.8990  29.9843
    30.0123  30.0167  30.0223  30.0880  30.1926  30.2270  30.2482  30.3139
    30.3158  30.4603  30.4938  30.5104  30.5488  30.6448  30.6754  30.7004
    30.7830  30.8692  30.8877  30.8938  30.9824  31.0414  31.1031  31.1422
    31.1607  31.2396  31.2546  31.3556  31.4411  31.4597  31.5139  31.5257
    31.6875  31.7060  31.7526  31.7588  31.9084  31.9153  31.9683  32.0320
    32.0379  32.1737  32.2066  32.2485  32.2871  32.3366  32.3547  32.3754
    32.5988  32.6221  32.7623  32.8272  32.8486  32.8792  32.9423  33.0363
    33.0851  33.1334  33.1341  33.3960  33.4510  33.4855  33.5225  33.5469
    33.6136  33.7293  33.7926  33.7973  33.9123  33.9901  34.0046  34.0700
    34.1389  34.1944  34.2636  34.2835  34.3047  34.3289  34.4006  34.4323
    34.5685  34.5995  34.6095  34.7613  34.7749  34.8315  34.8383  34.8517
    35.0008  35.0611  35.0680  35.2010  35.2157  35.2956  35.3340  35.3710
    35.3986  35.4342  35.4457  35.4655  35.6769  35.7063  35.7867  35.7985
    35.8667  35.8792  35.8816  35.9582

          k = 0.0000 0.0000 0.0563 ( 25430 PWs)   bands (ev):

   -29.8617 -29.8607 -28.6912 -28.6901 -21.5197 -20.9564 -19.7851 -18.5904
   -18.1527 -18.1102 -17.0847 -16.6571 -14.8987 -14.7959 -13.9736 -13.3850
   -13.3324 -12.3799 -12.0132 -11.9183 -11.7441 -11.5218 -10.9574 -10.5217
   -10.4956 -10.3585  -9.9690  -9.4623  -9.2192  -9.0170  -8.7541  -8.7484
    -8.5980  -8.2590  -7.9514  -7.7259  -7.1946  -7.0617  -6.9529  -6.0955
    -6.0029  -5.9882  -5.3745  -5.2646  -4.1720  -3.9773  -0.4646  -0.3888
     0.5303   1.0388   1.1951   1.3481   1.4739   1.9416   2.6095   2.7588
     2.8743   3.2051   3.2380   3.2690   3.5510   3.7005   4.0430   4.1115
     4.4155   4.4716   4.5580   4.7151   4.7693   4.9455   4.9669   5.3149
     5.5731   5.6593   5.7935   5.8330   6.1236   6.1512   6.1954   6.2279
     6.5737   6.6899   6.7301   6.8356   6.9755   7.0703   7.1690   7.2120
     7.2635   7.2702   7.3530   7.4720   7.6301   7.6372   8.1223   8.1390
     8.1607   8.2446   8.2742   8.2763   8.4411   8.4569   8.5143   8.5957
     8.6817   8.7723   8.9009   9.1085   9.1246   9.1445   9.2732   9.3169
     9.4388   9.5599   9.5843   9.6583   9.7097   9.7169   9.8490  10.0670
    10.2158  10.5839  10.6147  10.6163  10.8076  10.8893  10.9051  11.0413
    11.0435  11.1055  11.1181  11.2334  11.2461  11.3535  11.5800  11.6587
    11.6676  11.8438  11.9072  11.9884  12.0848  12.2077  12.2078  12.2303
    12.3114  12.4894  12.5972  12.7343  12.7375  12.9279  13.1295  13.1406
    13.2363  13.2590  13.3257  13.5320  13.7459  13.8266  13.9233  13.9929
    14.0400  14.2646  14.3031  14.3413  14.3811  14.4968  14.6334  14.6889
    14.7674  14.7686  14.8934  14.9587  15.0361  15.0655  15.0811  15.1494
    15.2276  15.3437  15.3570  15.5022  15.5212  15.7531  15.7698  15.7706
    15.8796  15.9549  16.0073  16.1482  16.1857  16.1983  16.2089  16.2180
    16.2226  16.3719  16.4847  16.4858  16.5026  16.7526  16.8408  16.8445
    16.9014  16.9615  17.0062  17.1454  17.1516  17.1587  17.3042  17.3211
    17.3956  17.4951  17.6713  17.6875  17.9102  17.9639  18.0390  18.0734
    18.1069  18.2293  18.2960  18.3083  18.4498  18.5742  18.6320  18.7028
    18.8063  18.9670  19.0189  19.0695  19.1038  19.1436  19.2268  19.2557
    19.4383  19.5011  19.5659  19.6423  19.6426  19.7857  19.8501  19.8580
    20.1217  20.2293  20.2362  20.3760  20.3808  20.4002  20.4498  20.4799
    20.5683  20.6068  20.6525  20.6926  20.7789  20.8416  20.8943  20.9115
    21.0598  21.1140  21.1462  21.1583  21.1632  21.2221  21.2940  21.3261
    21.3265  21.4605  21.5039  21.5198  21.6031  21.6242  21.7099  21.7165
    21.8243  21.8650  21.9460  21.9724  22.1650  22.2307  22.3375  22.3823
    22.5001  22.5201  22.5579  22.5633  22.6835  22.7331  22.8026  22.8114
    22.9452  23.0661  23.0760  23.2025  23.2246  23.3139  23.3700  23.4761
    23.5114  23.5626  23.6753  23.8572  23.9001  23.9085  23.9122  24.2154
    24.2180  24.3377  24.3392  24.3733  24.3846  24.4268  24.4946  24.5445
    24.6625  24.9179  24.9344  25.2039  25.2342  25.2521  25.2766  25.3292
    25.4926  25.6403  25.6665  25.6879  25.7339  25.7505  25.8898  25.9407
    25.9574  25.9642  26.0095  26.0453  26.2217  26.2666  26.3169  26.3175
    26.3742  26.4600  26.4875  26.5256  26.6086  26.6530  26.7915  26.8749
    26.9507  26.9669  27.0018  27.2053  27.2083  27.2632  27.3651  27.4911
    27.4969  27.5684  27.5958  27.6286  27.7340  27.8249  27.8270  27.8405
    27.8764  27.9583  27.9945  28.1932  28.1960  28.2498  28.2997  28.4744
    28.4927  28.5711  28.6617  28.6679  28.6859  28.7918  28.8299  28.8726
    28.8892  29.0198  29.0360  29.1938  29.1954  29.2499  29.3329  29.3352
    29.3379  29.5443  29.5570  29.5945  29.6390  29.6829  29.7576  29.7796
    29.8014  29.9292  29.9506  29.9769  30.0266  30.0725  30.2677  30.2697
    30.3475  30.3630  30.4118  30.4456  30.5000  30.5065  30.6403  30.7188
    30.7282  30.7605  30.8319  30.9054  30.9491  30.9993  31.0097  31.0405
    31.0889  31.1463  31.1904  31.2693  31.2890  31.3242  31.3581  31.3967
    31.5954  31.6358  31.6976  31.7179  31.8190  31.9170  31.9432  32.0025
    32.0033  32.0570  32.1137  32.1493  32.2154  32.2736  32.3040  32.3222
    32.4397  32.4861  32.5015  32.6312  32.7949  32.9543  32.9890  33.0460
    33.1258  33.1468  33.2655  33.3765  33.4523  33.4706  33.4743  33.5000
    33.5520  33.6700  33.7153  33.8361  33.8676  33.9550  33.9681  33.9721
    34.0006  34.0827  34.0910  34.1932  34.2320  34.2765  34.3043  34.3396
    34.3682  34.4987  34.5491  34.5712  34.5922  34.7448  34.7596  34.7688
    34.8563  34.8920  34.9453  35.0605  35.1096  35.2382  35.2664  35.2734
    35.2920  35.3747  35.3749  35.4492  35.5022  35.5623  35.6324  35.7507
    35.7698  35.8055  35.8132  35.8325

          k = 0.0000 0.0000 0.0610 ( 25408 PWs)   bands (ev):

   -29.8332 -29.8322 -28.7284 -28.7273 -21.4615 -20.9001 -19.7319 -18.7445
   -18.2607 -18.1173 -17.2139 -16.6567 -14.9781 -14.7384 -13.8466 -13.4691
   -13.1188 -12.3103 -11.9270 -11.8911 -11.6593 -11.4374 -11.0176 -10.4808
   -10.4567 -10.2973  -9.8957  -9.4741  -9.1585  -9.0348  -8.7998  -8.7917
    -8.5672  -8.2018  -7.9855  -7.8149  -7.2866  -7.2119  -6.9012  -6.1725
    -6.1350  -6.0324  -5.4278  -5.3433  -4.3080  -4.0062  -0.4606  -0.2425
     0.7468   1.1832   1.2737   1.3723   1.5461   2.0150   2.6709   2.8223
     2.9538   3.2722   3.3004   3.3482   3.4655   3.7472   4.1227   4.1538
     4.4756   4.5490   4.6369   4.7571   4.8030   4.9446   4.9863   5.2237
     5.4512   5.6485   5.6516   5.7748   5.9835   6.0788   6.2320   6.2787
     6.3976   6.7470   6.7680   6.7739   6.9013   6.9954   7.0070   7.0625
     7.1778   7.1823   7.2384   7.4285   7.4340   7.4744   7.9584   7.9804
     8.0584   8.1718   8.2181   8.2588   8.3961   8.4679   8.4891   8.5177
     8.6674   8.6762   8.8479   8.9030   9.0813   9.1494   9.2621   9.3032
     9.3530   9.6031   9.6110   9.6214   9.6781   9.7180   9.7654  10.1137
    10.2310  10.5704  10.5716  10.6460  10.6971  10.7148  10.8964  10.9631
    11.0492  11.0967  11.1708  11.1808  11.2582  11.3022  11.5721  11.7038
    11.7495  11.7834  11.8170  11.9511  12.0619  12.1585  12.3056  12.3057
    12.3708  12.3955  12.5914  12.6748  12.7881  12.8263  13.0395  13.1314
    13.1369  13.2019  13.2133  13.4185  13.7341  13.7469  13.8258  14.0581
    14.1374  14.2498  14.3180  14.3244  14.5520  14.5868  14.6621  14.7135
    14.8274  14.8322  14.8466  14.8865  14.9967  15.0624  15.1051  15.1311
    15.4497  15.4675  15.4747  15.5656  15.7184  15.7353  15.7418  15.8017
    15.8662  15.9193  15.9934  16.2138  16.2442  16.2983  16.3001  16.3144
    16.3246  16.5432  16.5587  16.6312  16.6850  16.8045  16.8988  16.9299
    17.0232  17.0621  17.1773  17.2162  17.2264  17.3313  17.3554  17.4848
    17.5469  17.8021  17.8356  17.8779  17.9721  17.9895  18.0023  18.0898
    18.0987  18.2296  18.2843  18.3397  18.3501  18.5852  18.6676  18.7202
    18.9273  18.9800  19.1179  19.1471  19.1529  19.2738  19.3870  19.3876
    19.4238  19.6110  19.7235  19.7620  19.7642  19.8094  19.8122  19.8780
    20.0262  20.1634  20.1741  20.2936  20.2999  20.3811  20.4687  20.5871
    20.6005  20.6829  20.6905  20.7305  20.9228  20.9886  20.9997  21.0299
    21.0613  21.1184  21.1875  21.2911  21.2977  21.3210  21.3835  21.4075
    21.4262  21.4282  21.5068  21.5260  21.5798  21.7423  21.8262  21.8747
    21.9311  21.9812  21.9823  22.0780  22.1845  22.2496  22.4057  22.5056
    22.5844  22.5932  22.6092  22.6426  22.7465  22.7861  22.8043  22.8932
    22.9749  22.9860  23.0507  23.1669  23.2801  23.3211  23.3999  23.4562
    23.5525  23.6855  23.7145  23.7661  23.8373  24.0428  24.0637  24.2271
    24.2334  24.3801  24.4033  24.5669  24.6287  24.6382  24.6991  24.7058
    24.7558  24.8367  24.9656  25.0461  25.1919  25.2158  25.3619  25.4466
    25.5541  25.6986  25.7096  25.7416  25.7699  25.7783  25.7933  25.8810
    25.8886  25.9625  25.9989  26.0640  26.1861  26.2072  26.2897  26.3220
    26.3389  26.4576  26.4643  26.6274  26.6368  26.7474  26.7638  26.7825
    26.9616  26.9997  27.0257  27.1253  27.1435  27.1970  27.3377  27.4644
    27.5498  27.6148  27.6223  27.6307  27.6376  27.7265  27.7747  27.7809
    27.7914  27.9780  28.0019  28.0168  28.1674  28.2237  28.2412  28.4557
    28.4869  28.5748  28.5850  28.6263  28.6446  28.6984  28.7181  28.7371
    28.8520  28.9509  28.9528  29.0258  29.0550  29.1376  29.1477  29.2332
    29.2410  29.2670  29.3683  29.5075  29.5657  29.5719  29.5814  29.6367
    29.6561  29.6919  29.7679  29.9085  29.9169  29.9237  30.0864  30.2180
    30.3013  30.3054  30.3297  30.3868  30.4890  30.6444  30.6524  30.6726
    30.7503  30.7879  30.8122  30.8166  30.9120  30.9569  30.9612  31.0288
    31.0642  31.1078  31.1235  31.1730  31.1731  31.1872  31.2879  31.2974
    31.5786  31.5887  31.6556  31.6711  31.6878  31.7590  31.7637  31.8660
    31.9306  31.9936  32.0587  32.1159  32.1402  32.1678  32.2125  32.3130
    32.3172  32.5401  32.6213  32.6780  32.7385  32.7890  32.8922  32.9851
    33.0317  33.0630  33.1885  33.2520  33.3403  33.3810  33.4145  33.4171
    33.4612  33.5915  33.6345  33.7223  33.7519  33.8300  33.8632  33.9626
    33.9862  34.0094  34.0957  34.1167  34.1944  34.2867  34.2879  34.3219
    34.3804  34.4203  34.4515  34.4978  34.5424  34.6112  34.6275  34.6572
    34.7667  34.8082  34.8314  34.8670  34.9958  35.1010  35.1146  35.1324
    35.1971  35.3210  35.3623  35.3778  35.4756  35.5586  35.5731  35.6201
    35.6435  35.7389  35.7399  35.7688

          k = 0.0000 0.0000 0.0657 ( 25426 PWs)   bands (ev):

   -29.8030 -29.8020 -28.7671 -28.7660 -21.3988 -20.8394 -19.6751 -18.9000
   -18.4084 -18.0763 -17.3396 -16.6621 -15.0471 -14.6858 -13.7243 -13.5502
   -12.9036 -12.2949 -11.8845 -11.7690 -11.5730 -11.3464 -11.0854 -10.4380
   -10.4158 -10.2260  -9.8357  -9.4929  -9.0949  -9.0376  -8.8474  -8.8348
    -8.5494  -8.1401  -8.0212  -7.9027  -7.3794  -7.3704  -6.8458  -6.3413
    -6.1750  -6.0795  -5.5881  -5.3134  -4.4368  -4.0385  -0.4526  -0.1020
     0.9645   1.1408   1.3583   1.5908   1.6232   2.0929   2.7348   2.8880
     3.0392   3.3437   3.3513   3.3680   3.4336   3.8255   4.1908   4.2099
     4.5260   4.6312   4.7226   4.7735   4.7982   4.9765   4.9891   5.1267
     5.4159   5.4981   5.5748   5.7194   5.9328   5.9457   6.2049   6.3186
     6.3646   6.5268   6.7576   6.7894   6.8008   6.8525   6.9316   6.9770
     6.9945   7.2014   7.2327   7.2856   7.3515   7.4093   7.7809   7.7817
     7.9086   7.9962   8.1054   8.2932   8.3031   8.4358   8.4545   8.5485
     8.5993   8.6910   8.7543   8.9294   8.9682   9.0964   9.1552   9.3175
     9.4031   9.5116   9.5987   9.6399   9.7405   9.7458   9.7468  10.1598
    10.2215  10.4173  10.5144  10.5624  10.6154  10.7349  10.9063  10.9107
    10.9394  11.1440  11.1450  11.2281  11.2803  11.3796  11.5322  11.6465
    11.6582  11.8083  11.8197  11.8958  12.0650  12.1356  12.1920  12.3003
    12.3861  12.4854  12.5187  12.6874  12.6900  12.9118  12.9150  13.0279
    13.0608  13.1606  13.2594  13.3747  13.6506  13.7060  13.7266  14.0408
    14.2191  14.2363  14.2454  14.3411  14.4604  14.5848  14.6928  14.7829
    14.8413  14.8754  14.8946  14.9517  15.0072  15.1073  15.1346  15.2349
    15.4353  15.4600  15.5017  15.5477  15.7407  15.8148  15.8621  15.8963
    15.9486  16.0464  16.1162  16.1823  16.2169  16.3749  16.3958  16.4060
    16.4110  16.6038  16.6633  16.8365  16.9210  16.9461  17.0099  17.0378
    17.0830  17.0947  17.2598  17.3306  17.3659  17.4043  17.4958  17.8042
    17.8226  17.8835  17.9654  18.0176  18.0374  18.0440  18.0596  18.1037
    18.1082  18.2637  18.3014  18.4198  18.4651  18.6004  18.6141  18.7039
    19.0114  19.0621  19.0846  19.0983  19.1730  19.3154  19.5258  19.5268
    19.5879  19.6621  19.6924  19.7257  19.7350  19.8854  19.9673  20.0963
    20.1332  20.1485  20.1556  20.2315  20.2656  20.3717  20.5311  20.5536
    20.6072  20.6833  20.7311  20.7726  20.9336  20.9339  21.0851  21.1003
    21.1485  21.1709  21.2630  21.3108  21.3930  21.4140  21.4925  21.5126
    21.5128  21.5316  21.5839  21.5935  21.6845  21.8062  21.8512  21.9257
    21.9921  22.1059  22.1707  22.3030  22.3128  22.3475  22.4392  22.5196
    22.5302  22.6189  22.6209  22.6751  22.7913  22.7971  22.8279  22.9702
    23.0521  23.0885  23.0997  23.2899  23.3901  23.3949  23.4238  23.4321
    23.4689  23.7231  23.8035  23.8264  23.9124  24.0335  24.1399  24.2330
    24.2661  24.5002  24.5629  24.5894  24.6694  24.6718  24.7196  24.8926
    24.9646  25.0146  25.0152  25.0606  25.1757  25.3064  25.3244  25.5389
    25.5513  25.6126  25.6782  25.7034  25.7214  25.7321  25.7806  25.8571
    25.9267  25.9279  25.9574  25.9655  26.1610  26.2018  26.2331  26.3032
    26.3718  26.4521  26.5562  26.5611  26.6582  26.7275  26.8303  26.8443
    26.9093  27.0295  27.0457  27.0526  27.1357  27.1934  27.3219  27.3852
    27.3986  27.4223  27.4297  27.5319  27.5579  27.6831  27.6957  27.7861
    27.8930  27.8957  27.9968  28.0758  28.1297  28.1324  28.1963  28.2337
    28.2412  28.2912  28.2918  28.4559  28.5431  28.5721  28.5881  28.7501
    28.7839  28.8228  28.8964  29.0202  29.0725  29.1323  29.1903  29.2408
    29.2732  29.2864  29.3218  29.3571  29.3940  29.4230  29.5202  29.5390
    29.6373  29.6402  29.6839  29.6890  29.8918  29.9624  30.0072  30.0622
    30.2307  30.2921  30.3118  30.3155  30.3234  30.4383  30.4450  30.5047
    30.6649  30.6739  30.6893  30.8158  30.9031  30.9162  30.9403  30.9437
    31.0328  31.1156  31.1217  31.1663  31.1712  31.2025  31.3244  31.4132
    31.4355  31.4819  31.5344  31.5633  31.6349  31.7439  31.7921  31.8807
    31.9230  31.9347  31.9945  32.0447  32.1440  32.1663  32.2631  32.2804
    32.2843  32.3754  32.6041  32.6263  32.6485  32.6859  32.6887  32.7412
    32.8954  33.0042  33.0067  33.0447  33.0865  33.1406  33.2500  33.3640
    33.3696  33.4099  33.6689  33.7398  33.7701  33.7913  33.8118  33.8667
    33.9523  33.9867  34.0193  34.0690  34.1349  34.1662  34.2841  34.3098
    34.3687  34.3932  34.4245  34.4721  34.4929  34.4952  34.5602  34.6005
    34.7091  34.7318  34.7419  34.7634  34.9215  34.9514  35.0055  35.1039
    35.1439  35.2519  35.2559  35.3812  35.4324  35.4853  35.4980  35.5522
    35.6129  35.6569  35.6575  35.6685

          k = 0.0000 0.0000 0.0704 ( 25410 PWs)   bands (ev):

   -29.7712 -29.7702 -28.8072 -28.8061 -21.3315 -20.7744 -19.6149 -19.0539
   -18.5528 -18.0354 -17.4587 -16.6749 -15.1035 -14.6406 -13.6225 -13.6079
[...]
    12.2671  12.2847  12.2991  12.4065  12.6599  12.9168  13.0014  13.0244
    13.0377  13.2109  13.2944  13.2952  13.3163  13.4723  13.4850  13.6835
    13.7063  13.9665  14.0410  14.1475  14.1550  14.2102  14.3878  14.5331
    14.6646  14.6657  14.8791  14.8823  14.9821  15.1447  15.1844  15.3838
    15.6762  15.7651  15.7864  15.7946  15.8068  16.0593  16.1333  16.1545
    16.2793  16.3054  16.5803  16.6962  16.7451  16.8133  16.8310  16.8701
    16.9046  17.0323  17.0576  17.2770  17.3593  17.4824  17.6716  17.6837
    17.8068  17.8453  17.9050  17.9523  17.9688  18.0933  18.2011  18.2241
    18.2796  18.3021  18.3154  18.4818  18.5474  18.6767  18.7703  18.7985
    19.0117  19.1909  19.2731  19.3032  19.5240  19.5770  19.6253  19.6661
    19.6725  19.7433  19.8054  19.8865  19.9294  19.9566  19.9909  20.0625
    20.1984  20.2095  20.2311  20.2983  20.3577  20.4198  20.4391  20.5099
    20.5279  20.7574  20.7665  20.7682  20.8203  20.8809  20.8884  20.9789
    20.9864  21.0381  21.0721  21.0860  21.3200  21.3256  21.3387  21.4209
    21.4854  21.5347  21.5377  21.5817  21.6118  21.6581  21.7792  21.8251
    21.8706  21.9213  21.9506  22.0556  22.0838  22.1883  22.1970  22.2994
    22.3177  22.3925  22.5846  22.6101  22.6131  22.7811  22.8656  22.8984
    22.9104  22.9830  23.0494  23.0587  23.1743  23.1903  23.2395  23.2698
    23.2868  23.3376  23.3543  23.4801  23.5088  23.6190  23.6302  23.7429
    23.7432  23.7434  23.8803  23.9116  24.0978  24.1127  24.1750  24.2437
    24.3449  24.4627  24.4655  24.4660  24.5375  24.6028  24.6080  24.7108
    24.7281  24.7353  24.8459  24.8607  24.9144  24.9531  24.9920  25.2063
    25.2739  25.2816  25.3571  25.4181  25.4761  25.5068  25.6287  25.6634
    25.7758  25.8454  25.8485  25.8895  25.9446  25.9577  26.0692  26.1599
    26.1837  26.2512  26.3258  26.3811  26.3916  26.4913  26.5103  26.5169
    26.6584  26.8413  26.8744  26.8935  26.9163  26.9767  27.0515  27.1672
    27.2895  27.3524  27.3796  27.4244  27.4596  27.4693  27.5148  27.5672
    27.6262  27.6558  27.6631  27.6764  27.8173  27.8598  27.8903  27.8910
    27.9487  28.0486  28.1036  28.1371  28.1410  28.2794  28.3689  28.3718
    28.4536  28.4897  28.5686  28.5983  28.6212  28.6219  28.6836  28.7381
    28.7790  28.7964  28.8563  28.8662  28.8924  28.9358  29.0331  29.0920
    29.0997  29.1907  29.2981  29.3806  29.4094  29.4777  29.4881  29.5873
    29.5938  29.7328  29.8923  29.9094  29.9277  29.9632  30.0544  30.1013
    30.1400  30.2324  30.3768  30.4120  30.4221  30.4995  30.6582  30.6612
    30.6641  30.7197  30.7903  30.8658  31.0242  31.0249  31.0487  31.1162
    31.1676  31.3766  31.4218  31.4549  31.5620  31.5688  31.5760  31.5973
    31.6184  31.6789  31.7512  31.7663  31.7817  31.8692  31.8974  31.9460
    32.0151  32.0636  32.1234  32.1734  32.2582  32.3431  32.4193  32.4502
    32.4755  32.5419  32.6204  32.6267  32.6820  32.7887  32.8104  32.8119
    32.9005  32.9371  33.0631  33.1161  33.1523  33.1803  33.2829  33.3064
    33.3076  33.4100  33.4728  33.5110  33.5355  33.5818  33.7031  33.7161
    33.8057  33.9012  33.9025  34.1057  34.1433  34.1499  34.3007  34.4029
    34.4533  34.4737  34.4827  34.5071  34.5777  34.6497  34.7106  34.8176
    34.9080  34.9169  35.0310  35.0903  35.1221  35.1255  35.1677  35.2632
    35.3465  35.4064  35.4528  35.4871

          k = 0.0000 0.0000 0.1080 ( 25464 PWs)   bands (ev):

   -29.5106 -29.5096 -29.1124 -29.1113 -20.6330 -20.2216 -20.0410 -19.6598
   -18.9182 -18.5235 -17.3916 -17.0865 -15.0514 -14.8112 -13.5608 -13.3011
   -12.3342 -11.9550 -11.3340 -11.2421 -11.0032 -10.6388 -10.3028 -10.0987
   -10.0691 -10.0649  -9.5331  -9.3168  -9.2452  -9.2433  -9.0602  -8.9580
    -8.8656  -8.5611  -8.2357  -8.0632  -7.9801  -7.7348  -7.3706  -6.9217
    -6.4609  -6.4431  -6.1187  -5.7368  -4.6674  -4.4553  -0.1423   0.1144
     1.4698   1.9959   2.3123   2.3972   2.8060   3.0425   3.1029   3.4058
     3.4292   3.7528   3.8405   3.9659   4.0227   4.0915   4.2550   4.3245
     4.4911   4.6394   4.7618   4.7635   4.8805   4.9980   5.0345   5.1077
     5.1196   5.2511   5.3686   5.4324   5.5134   5.5747   5.6238   5.7133
     5.7851   5.8058   5.9436   6.0068   6.0429   6.1843   6.3339   6.3350
     6.4155   6.5195   6.5774   6.6153   6.8213   6.9659   6.9928   7.3725
     7.4035   7.4545   7.9013   7.9793   7.9837   8.0745   8.3142   8.3324
     8.4406   8.4530   8.6360   8.7604   8.8139   8.9796   9.1049   9.3330
     9.4256   9.4696   9.6756   9.7312   9.7990   9.9024   9.9336  10.0166
    10.3295  10.3749  10.3779  10.4188  10.4572  10.4756  10.4951  10.5023
    10.6820  10.6915  10.9962  11.0469  11.0773  11.1237  11.1430  11.2195
    11.3634  11.5216  11.7657  11.7849  12.0000  12.0461  12.0862  12.2629
    12.3125  12.3244  12.3432  12.4344  12.5721  12.9338  12.9892  12.9999
    13.0294  13.1442  13.2401  13.3283  13.3634  13.4221  13.4554  13.5959
    13.7348  13.9139  14.0151  14.0555  14.1626  14.2214  14.3636  14.5995
    14.7437  14.7601  14.8713  14.8858  14.9729  15.1567  15.2226  15.3426
    15.5694  15.5766  15.8269  15.8503  15.8991  16.0556  16.0594  16.1998
    16.3118  16.3828  16.4945  16.5518  16.6213  16.8054  16.8950  16.9337
    17.0147  17.0488  17.1953  17.3307  17.3905  17.5563  17.6722  17.7041
    17.7132  17.7575  17.8680  17.9510  17.9799  17.9904  18.1363  18.1459
    18.1996  18.2053  18.5715  18.6720  18.7040  18.7706  18.8785  19.0630
    19.1248  19.1480  19.2533  19.3842  19.6156  19.7368  19.7698  19.8282
    19.8352  19.8800  19.8915  19.9518  19.9945  20.0485  20.0706  20.1654
    20.2609  20.2873  20.3276  20.3414  20.3502  20.4593  20.4666  20.4866
    20.5129  20.6531  20.7425  20.7705  20.8368  20.9236  20.9668  21.0604
    21.0948  21.1329  21.1514  21.2279  21.2532  21.2559  21.2966  21.4730
    21.4949  21.5730  21.5959  21.7442  21.7734  21.8160  21.8416  21.8925
    21.9017  21.9769  22.0015  22.0514  22.0884  22.2008  22.2766  22.2838
    22.2895  22.3781  22.4351  22.5483  22.5640  22.5805  22.7530  22.7647
    22.9539  22.9769  23.0018  23.0313  23.0525  23.0821  23.2401  23.2987
    23.3326  23.3492  23.4299  23.4614  23.4750  23.5393  23.6440  23.6916
    23.7276  23.8017  23.9010  23.9230  24.0855  24.1166  24.1255  24.1294
    24.2105  24.2498  24.2603  24.3011  24.4232  24.4907  24.5231  24.6653
    24.6810  24.7013  24.7134  24.8039  24.9096  25.1079  25.1622  25.2579
    25.3058  25.3699  25.5192  25.5206  25.5333  25.5662  25.6157  25.7000
    25.7548  25.7685  25.9403  25.9644  26.0376  26.0467  26.0806  26.1348
    26.2007  26.2128  26.2625  26.3010  26.3737  26.4579  26.4748  26.5042
    26.6759  26.7508  26.8390  26.9003  27.0287  27.0395  27.1714  27.1880
    27.3400  27.3498  27.4603  27.4715  27.4802  27.5069  27.5309  27.5691
    27.5995  27.6489  27.6624  27.6754  27.7282  27.7319  27.9081  27.9134
    27.9809  28.0576  28.0588  28.1435  28.1842  28.2150  28.3093  28.3169
    28.3272  28.4007  28.4452  28.5641  28.5953  28.6489  28.6987  28.7231
    28.7559  28.7708  28.8222  28.9379  28.9591  29.0185  29.0275  29.1174
    29.1801  29.2019  29.2227  29.2901  29.3319  29.3616  29.4964  29.5425
    29.5699  29.6816  29.7160  29.7648  29.8506  29.9620  29.9764  29.9879
    30.1154  30.1251  30.1987  30.4187  30.4905  30.5981  30.6028  30.6598
    30.7325  30.7643  30.7746  30.8296  30.8925  30.8948  30.9650  31.0727
    31.1398  31.2322  31.2792  31.3718  31.4391  31.4438  31.4841  31.5123
    31.5357  31.6673  31.6891  31.8085  31.8325  31.8377  31.9706  32.0541
    32.0727  32.0932  32.1361  32.3245  32.3350  32.3520  32.4405  32.4463
    32.5233  32.6527  32.6616  32.7211  32.7430  32.7532  32.7690  32.8804
    33.0224  33.0408  33.0588  33.1052  33.1326  33.1741  33.2533  33.3478
    33.3548  33.3742  33.4747  33.5096  33.5623  33.5975  33.6890  33.7166
    33.7650  33.8574  33.8593  34.0103  34.0801  34.1068  34.2071  34.2997
    34.3933  34.4575  34.4648  34.4752  34.6061  34.6274  34.6755  34.7109
    34.8842  34.9400  34.9517  35.0000  35.0052  35.1362  35.2349  35.2528
    35.3447  35.3513  35.4476  35.4742

          k = 0.0000 0.0000 0.1127 ( 25466 PWs)   bands (ev):

   -29.4935 -29.4925 -29.1311 -29.1300 -20.5272 -20.3106 -19.9704 -19.7681
   -18.8265 -18.6280 -17.3162 -17.1625 -14.9971 -14.8751 -13.4946 -13.3610
   -12.2464 -12.0539 -11.2662 -11.2283 -10.9220 -10.7262 -10.1644 -10.0616
   -10.0517 -10.0496  -9.4996  -9.3998  -9.2621  -9.2609  -9.0921  -9.0290
    -8.8048  -8.6420  -8.1174  -8.0470  -8.0067  -7.8663  -7.2652  -7.0396
    -6.4680  -6.4589  -6.0287  -5.8366  -4.6166  -4.5096  -0.0822   0.0475
     1.6034   1.8701   2.3961   2.4390   2.8587   3.0107   3.2328   3.4347
     3.4363   3.6114   3.8193   3.8952   4.2085   4.2288   4.3469   4.3860
     4.6063   4.6399   4.6444   4.6836   4.7668   4.9508   4.9765   5.0189
     5.0306   5.3466   5.3714   5.3902   5.4745   5.5817   5.6609   5.7294
     5.8542   5.8594   5.9340   6.0404   6.1412   6.1447   6.1700   6.2493
     6.4248   6.4303   6.4894   6.6130   6.7838   6.8662   6.9680   7.2472
     7.5177   7.6023   7.8236   7.9127   8.0410   8.0991   8.3252   8.3516
     8.4479   8.4814   8.6477   8.7082   8.8301   8.9346   8.9462   9.3007
     9.4728   9.5570   9.7711   9.7850   9.8582   9.8783   9.9147  10.0516
    10.1654  10.2520  10.3305  10.3347  10.5106  10.5147  10.5511  10.6273
    10.7878  10.7995  10.8428  10.9256  11.0346  11.0478  11.0542  11.1605
    11.4147  11.5656  11.7222  11.8676  11.9968  12.0495  12.0820  12.2137
    12.3614  12.3686  12.3832  12.5193  12.5642  12.8316  12.9717  12.9744
    13.0435  13.1497  13.1979  13.2658  13.3598  13.4359  13.4981  13.5949
    13.7029  13.8998  13.9159  14.0769  14.1453  14.1602  14.4623  14.6712
    14.7102  14.7694  14.8938  14.9048  15.0338  15.2121  15.2759  15.2893
    15.4249  15.4612  15.7711  15.7931  16.0400  16.1217  16.1708  16.2376
    16.2961  16.3434  16.4133  16.4850  16.5143  16.7345  16.9600  17.0114
    17.0405  17.1996  17.2569  17.3340  17.4919  17.5266  17.6014  17.6337
    17.7299  17.7657  17.8761  17.8897  17.9498  17.9534  17.9902  18.0919
    18.1422  18.1861  18.6804  18.7737  18.8251  18.9425  19.0154  19.0677
    19.2065  19.2780  19.4506  19.4612  19.6880  19.7935  19.8160  19.8235
    19.8679  19.8943  19.9013  19.9582  20.0285  20.1544  20.2086  20.2382
    20.2535  20.2874  20.3095  20.3947  20.4129  20.4168  20.4218  20.5348
    20.6397  20.6586  20.6934  20.7757  20.7799  20.7843  21.0264  21.0578
    21.0931  21.1467  21.2555  21.2691  21.3574  21.4060  21.4131  21.4766
    21.5237  21.5639  21.5687  21.7547  21.7648  21.9003  21.9087  21.9807
    22.0126  22.0171  22.0854  22.1149  22.1482  22.1512  22.2800  22.3571
    22.3647  22.4166  22.4747  22.4856  22.4970  22.5247  22.6451  22.7229
    22.7802  22.9364  22.9640  22.9677  23.0336  23.0698  23.0902  23.1471
    23.2532  23.3173  23.3403  23.4270  23.4600  23.4880  23.5218  23.6241
    23.6698  23.7547  23.8954  23.9218  24.0130  24.0191  24.1141  24.2352
    24.2786  24.2937  24.3105  24.4065  24.4498  24.4953  24.5424  24.5751
    24.7016  24.7109  24.7448  24.7855  24.9835  25.0117  25.1184  25.1658
    25.2240  25.2742  25.3982  25.5009  25.5566  25.6093  25.6349  25.6945
    25.7748  25.8193  25.8324  25.9090  25.9780  26.1441  26.2169  26.2232
    26.2233  26.2868  26.3358  26.3809  26.4724  26.5251  26.6028  26.6073
    26.7570  26.7824  26.8762  26.8896  26.9871  27.0356  27.1196  27.1768
    27.2507  27.2831  27.3099  27.3361  27.4693  27.4899  27.4903  27.5413
    27.6598  27.6841  27.7817  27.7917  27.8226  27.8484  27.8556  27.8672
    27.9074  28.0139  28.0398  28.0537  28.1020  28.1472  28.2285  28.2951
    28.3625  28.4396  28.4628  28.5260  28.5488  28.5743  28.6020  28.6242
    28.7662  28.8047  28.8549  28.8858  28.9773  29.0131  29.0140  29.0355
    29.1720  29.2550  29.2606  29.3445  29.4063  29.4796  29.5183  29.6372
    29.6462  29.6516  29.7489  29.7662  29.7753  29.8214  29.8984  29.9429
    30.0071  30.1322  30.2711  30.3123  30.4563  30.4624  30.5686  30.6155
    30.6435  30.6436  30.7123  30.7298  30.7953  30.7983  30.9033  30.9518
    30.9878  31.0777  31.3474  31.3556  31.4098  31.4107  31.4947  31.5779
    31.7252  31.7706  31.7955  31.8374  31.8713  31.9090  32.0519  32.0603
    32.0918  32.1024  32.1805  32.1813  32.3036  32.3331  32.3373  32.3869
    32.4164  32.5093  32.6745  32.7543  32.7927  32.8483  32.8877  32.9508
    33.0114  33.0216  33.1438  33.1760  33.2120  33.2205  33.2742  33.3144
    33.3516  33.4355  33.4757  33.6045  33.6209  33.7109  33.7618  33.7872
    33.8299  33.8713  33.8735  33.9890  33.9916  34.0858  34.1415  34.1760
    34.3308  34.3390  34.3600  34.4098  34.5423  34.5562  34.6238  34.7164
    34.8016  34.8699  34.8708  34.8821  35.0347  35.0816  35.1236  35.1297
    35.3316  35.3484  35.3523  35.3547

          k = 0.0000 0.0000-0.1174 ( 25452 PWs)   bands (ev):

   -29.4873 -29.4863 -29.1378 -29.1367 -20.4187 -20.4186 -19.8732 -19.8729
   -18.7295 -18.7292 -17.2396 -17.2392 -14.9379 -14.9376 -13.4270 -13.4268
   -12.1520 -12.1516 -11.2341 -11.2338 -10.8257 -10.8255 -10.0774 -10.0772
   -10.0452 -10.0448  -9.4635  -9.4635  -9.2678  -9.2670  -9.0804  -9.0804
    -8.7243  -8.7240  -8.0287  -8.0283  -7.9941  -7.9941  -7.1545  -7.1544
    -6.4673  -6.4673  -5.9343  -5.9341  -4.5638  -4.5635  -0.0187  -0.0184
     1.7376   1.7381   2.4411   2.4416   2.9240   2.9242   3.4251   3.4255
     3.4444   3.4446   3.8386   3.8387   4.3260   4.3260   4.4053   4.4053
     4.5780   4.5780   4.6390   4.6390   4.7910   4.7910   4.9696   4.9696
     5.1856   5.1856   5.4141   5.4142   5.5405   5.5405   5.6699   5.6699
     5.9090   5.9091   6.0118   6.0118   6.0887   6.0887   6.2793   6.2793
     6.2915   6.2915   6.6058   6.6059   6.7547   6.7548   7.0993   7.0996
     7.6681   7.6681   7.7552   7.7552   8.1592   8.1593   8.2641   8.2642
     8.5177   8.5178   8.6762   8.6762   8.8096   8.8096   9.1162   9.1165
     9.6091   9.6092   9.7083   9.7084   9.9248   9.9249  10.0072  10.0072
    10.1776  10.1776  10.2455  10.2455  10.5475  10.5479  10.6837  10.6837
    10.7729  10.7729  10.8654  10.8654  10.9742  10.9742  11.0906  11.0909
    11.5102  11.5103  11.7868  11.7869  12.0822  12.0822  12.0859  12.0859
    12.3933  12.3933  12.4525  12.4526  12.6984  12.6984  12.9672  12.9672
    13.0959  13.0966  13.2034  13.2034  13.4049  13.4051  13.5679  13.5680
    13.7473  13.7473  14.0286  14.0287  14.1303  14.1304  14.5897  14.5898
    14.7332  14.7333  14.9132  14.9136  15.1654  15.1655  15.2734  15.2737
    15.3983  15.3984  15.7454  15.7454  16.1923  16.1924  16.2269  16.2269
    16.2705  16.2709  16.3596  16.3597  16.6316  16.6317  16.9987  16.9988
    17.1536  17.1536  17.3485  17.3486  17.5014  17.5014  17.5683  17.5683
    17.7987  17.7987  17.8584  17.8584  17.9102  17.9102  18.0045  18.0046
    18.1635  18.1636  18.7602  18.7603  18.8670  18.8671  19.1343  19.1343
    19.3384  19.3387  19.5288  19.5289  19.7458  19.7459  19.7568  19.7568
    19.8741  19.8742  20.0026  20.0027  20.0402  20.0402  20.1556  20.1557
    20.3069  20.3070  20.3940  20.3941  20.4793  20.4794  20.4913  20.4913
    20.6234  20.6234  20.6949  20.6950  20.8248  20.8248  21.0834  21.0835
    21.1327  21.1330  21.2313  21.2315  21.3661  21.3662  21.4687  21.4688
    21.5708  21.5710  21.7175  21.7176  21.8185  21.8185  21.9279  21.9279
    22.0424  22.0424  22.1597  22.1597  22.2081  22.2082  22.2363  22.2363
    22.3571  22.3571  22.5903  22.5904  22.6142  22.6142  22.7071  22.7072
    22.7459  22.7459  22.8280  22.8281  23.0417  23.0417  23.1689  23.1689
    23.2610  23.2611  23.2915  23.2915  23.3812  23.3812  23.5372  23.5372
    23.6192  23.6193  23.8974  23.8974  24.1025  24.1027  24.2731  24.2731
    24.3100  24.3100  24.3401  24.3401  24.4410  24.4412  24.5784  24.5784
    24.8096  24.8096  24.8681  24.8681  24.9928  24.9929  25.0057  25.0057
    25.1350  25.1351  25.3705  25.3705  25.5813  25.5814  25.5835  25.5836
    25.7565  25.7565  25.9686  25.9686  26.1628  26.1628  26.2490  26.2491
    26.3821  26.3821  26.4385  26.4386  26.4443  26.4443  26.5767  26.5767
    26.6798  26.6798  27.0428  27.0428  27.0733  27.0734  27.1190  27.1190
    27.2446  27.2446  27.2549  27.2549  27.4320  27.4320  27.4685  27.4685
    27.6178  27.6178  27.7408  27.7408  27.8095  27.8096  27.8987  27.8988
    27.9676  27.9676  28.0700  28.0701  28.1933  28.1934  28.3588  28.3589
    28.3591  28.3591  28.4738  28.4738  28.5013  28.5014  28.6301  28.6301
    28.7105  28.7105  28.8408  28.8408  28.8946  28.8946  29.0550  29.0550
    29.2621  29.2621  29.3587  29.3587  29.4794  29.4795  29.5409  29.5409
    29.6186  29.6186  29.8169  29.8170  29.9145  29.9145  29.9334  29.9335
    30.0891  30.0892  30.2798  30.2798  30.3642  30.3643  30.4213  30.4213
    30.5246  30.5246  30.7087  30.7088  30.8294  30.8294  30.8816  30.8816
    31.0158  31.0158  31.2984  31.2984  31.3910  31.3910  31.7598  31.7598
    31.7912  31.7913  31.9197  31.9197  31.9522  31.9522  31.9818  31.9818
    32.1193  32.1193  32.1479  32.1479  32.1904  32.1904  32.2427  32.2427
    32.3945  32.3945  32.8133  32.8133  32.8817  32.8817  32.9331  32.9332
    32.9446  32.9447  33.2222  33.2222  33.2614  33.2614  33.3137  33.3137
    33.4381  33.4381  33.5844  33.5844  33.7126  33.7126  33.7342  33.7343
    33.8018  33.8018  33.8315  33.8316  34.1909  34.1910  34.2312  34.2313
    34.2913  34.2914  34.3679  34.3679  34.4621  34.4621  34.6275  34.6276
    34.7399  34.7400  34.8172  34.8173  35.0410  35.0410  35.0593  35.0593
    35.2977  35.2977  35.3994  35.3994

     the Fermi energy is    -2.3042 ev

     Writing output data file F8.save/

     init_run     :      4.50s CPU      4.59s WALL (       1 calls)
     electrons    :   1910.09s CPU   1934.47s WALL (       1 calls)

     Called by init_run:
     wfcinit      :      0.00s CPU      0.00s WALL (       1 calls)
     potinit      :      0.25s CPU      0.28s WALL (       1 calls)
     hinit0       :      3.76s CPU      3.78s WALL (       1 calls)

     Called by electrons:
     c_bands      :   1910.09s CPU   1934.43s WALL (       1 calls)
     v_of_rho     :      0.21s CPU      0.22s WALL (       1 calls)
     newd         :      0.13s CPU      0.16s WALL (       1 calls)

     Called by c_bands:
     init_us_2    :      0.01s CPU      0.07s WALL (      26 calls)
     cegterg      :   1879.42s CPU   1902.11s WALL (      26 calls)

     Called by sum_band:

     Called by *egterg:
     h_psi        :    158.82s CPU    163.13s WALL (     478 calls)
     s_psi        :      9.09s CPU      9.16s WALL (     478 calls)
     g_psi        :      1.55s CPU      1.57s WALL (     426 calls)
     cdiaghg      :   1408.80s CPU   1416.33s WALL (     452 calls)

     Called by h_psi:
     h_psi:pot    :    157.16s CPU    160.83s WALL (     478 calls)
     h_psi:calbec :     10.00s CPU     10.37s WALL (     478 calls)
     vloc_psi     :    138.19s CPU    141.35s WALL (     478 calls)
     add_vuspsi   :      8.96s CPU      9.11s WALL (     478 calls)

     General routines
     calbec       :     10.00s CPU     10.37s WALL (     478 calls)
     fft          :      0.20s CPU      0.21s WALL (      14 calls)
     ffts         :      0.00s CPU      0.00s WALL (       1 calls)
     fftw         :    124.50s CPU    127.36s WALL (  275722 calls)
     interpolate  :      0.01s CPU      0.01s WALL (       1 calls)
     davcio       :      0.00s CPU      0.59s WALL (      52 calls)

     Parallel routines
     fft_scatt_xy :     21.19s CPU     21.63s WALL (  275737 calls)
     fft_scatt_yz :     35.60s CPU     36.68s WALL (  275737 calls)

     PWSCF        : 32m 0.18s CPU    33m28.85s WALL


   This run was terminated on:  22:45:46  19Apr2021            

=------------------------------------------------------------------------------=
   JOB DONE.
=------------------------------------------------------------------------------=
