
     Program PWSCF v.6.3 starts on 23Apr2021 at  7:17:26 

     This program is part of the open-source Quantum ESPRESSO suite
     for quantum simulation of materials; please cite
         "P. Giannozzi et al., J. Phys.:Condens. Matter 21 395502 (2009);
         "P. Giannozzi et al., J. Phys.:Condens. Matter 29 465901 (2017);
          URL http://www.quantum-espresso.org", 
     in publications or presentations arising from this work. More details at
     http://www.quantum-espresso.org/quote

     Parallel version (MPI), running on    16 processors
     R & G space division:  proc/nbgrp/npool/nimage =      16
     Waiting for input...
     Reading input from standard input
     Message from routine read_cards :
     DEPRECATED: no units specified in CELL_PARAMETERS card

     Current dimensions of program PWSCF are:
     Max number of different atomic species (ntypx) = 10
     Max number of k-points (npk) =  40000
     Max angular momentum in pseudopotentials (lmaxx) =  3

     Atomic positions and unit cell read from directory:
     /home/zfwang/scratch/GNRDATASET/AGNR/LS9_2_13_2_a/LS9_2_13_2_a.save/


     Subspace diagonalization in iterative solution of the eigenvalue problem:
     a serial algorithm will be used


     Parallelization info
     --------------------
     sticks:   dense  smooth     PW     G-vecs:    dense   smooth      PW
     Min        2556     852    219               382876    73664    9645
     Max        2557     853    221               382881    73669    9648
     Sum       40909   13645   3521              6126037  1178677  154333



     bravais-lattice index     =            0
     lattice parameter (alat)  =       1.8897  a.u.
     unit-cell volume          =   34497.4860 (a.u.)^3
     number of atoms/cell      =          108
     number of atomic types    =            2
     number of electrons       =       372.00
     number of Kohn-Sham states=          500
     kinetic-energy cutoff     =      40.0000  Ry
     charge density cutoff     =     480.0000  Ry
     Exchange-correlation      = PBE ( 1  4  3  4 0 0)

     celldm(1)=  18.897261  celldm(2)=   3.000000  celldm(3)=   1.704000
     celldm(4)=   0.000000  celldm(5)=   0.000000  celldm(6)=   0.000000

     crystal axes: (cart. coord. in units of alat)
               a(1) = (  10.000000   0.000000   0.000000 )  
               a(2) = (   0.000000  30.000000   0.000000 )  
               a(3) = (   0.000000   0.000000  17.040000 )  

     reciprocal axes: (cart. coord. in units 2 pi/alat)
               b(1) = (  0.100000  0.000000  0.000000 )  
               b(2) = (  0.000000  0.033333  0.000000 )  
               b(3) = (  0.000000  0.000000  0.058685 )  


     PseudoPot. # 1 for C  read from file:
     /home/zfwang/hp_home/MySoftware/qe-6.3/pseudo/C.pbe-n-rrkjus_psl.0.1.UPF
     MD5 check sum: fff530ed632a789b3b184014e67dd7f1
     Pseudo is Ultrasoft + core correction, Zval =  4.0
     Generated using "atomic" code by A. Dal Corso v.5.0.2 svn rev. 9415
     Using radial grid of 1073 points,  4 beta functions with: 
                l(1) =   0
                l(2) =   0
                l(3) =   1
                l(4) =   1
     Q(r) pseudized with 0 coefficients 


     PseudoPot. # 2 for H  read from file:
     /home/zfwang/hp_home/MySoftware/qe-6.3/pseudo/H.pbe-rrkjus_psl.0.1.UPF
     MD5 check sum: e164a6907b691c6980f16942be34de84
     Pseudo is Ultrasoft, Zval =  1.0
     Generated using "atomic" code by A. Dal Corso v.5.0.2 svn rev. 9415
     Using radial grid of  929 points,  2 beta functions with: 
                l(1) =   0
                l(2) =   0
     Q(r) pseudized with 0 coefficients 


     atomic species   valence    mass     pseudopotential
        C              4.00    12.01070     C ( 1.00)
        H              1.00     1.00794     H ( 1.00)

     No symmetry found



   Cartesian axes

     site n.     atom                  positions (alat units)
         1           C   tau(   1) = (   4.9999993   7.5423831   7.1673850  )
         2           C   tau(   2) = (   5.0000011   7.4944570  11.2332521  )
         3           C   tau(   3) = (   5.0000003   8.7826988   7.8055159  )
         4           C   tau(   4) = (   5.0000026   8.6733254  11.9366184  )
         5           C   tau(   5) = (   4.9999999   7.4944587   5.8067484  )
         6           C   tau(   6) = (   5.0000003   7.5423854   9.8726057  )
         7           C   tau(   7) = (   5.0000000  10.1639819   2.7110642  )
         8           C   tau(   8) = (   5.0000009  10.0135148   7.0931832  )
         9           C   tau(   9) = (   5.0000010   9.9759891  11.3713938  )
        10           C   tau(  10) = (   4.9999989  10.1768079  15.6708439  )
        11           C   tau(  11) = (   5.0000006  11.3105924   3.5291060  )
        12           C   tau(  12) = (   5.0000008  11.2621434   7.8080645  )
        13           C   tau(  13) = (   5.0000001  11.2501038  12.0862579  )
        14           C   tau(  14) = (   5.0000008  11.3891410  16.3409519  )
        15           C   tau(  15) = (   5.0000016   8.6733169   5.1033707  )
        16           C   tau(  16) = (   5.0000004   8.7826977   9.2344807  )
        17           C   tau(  17) = (   5.0000008  10.1768120   1.3693126  )
        18           C   tau(  18) = (   5.0000013   9.9759964   5.6686048  )
        19           C   tau(  19) = (   5.0000004  10.0135146   9.9468181  )
        20           C   tau(  20) = (   4.9999963  10.1639488  14.3287853  )
        21           C   tau(  21) = (   5.0000006  12.5557457   2.8504320  )
        22           C   tau(  22) = (   5.0000008  12.4997483   7.1027178  )
        23           C   tau(  23) = (   5.0000003  12.4875084  11.3682444  )
        24           C   tau(  24) = (   5.0000000  12.5794394  15.6079007  )
        25           C   tau(  25) = (   5.0000004  13.7752332   3.5682403  )
        26           C   tau(  26) = (   5.0000005  13.7488479   7.8083994  )
        27           C   tau(  27) = (   5.0000000  13.7546147  12.0564300  )
        28           C   tau(  28) = (   4.9999998  13.7927155  16.3298407  )
        29           C   tau(  29) = (   5.0000011  11.3891184   0.6990128  )
        30           C   tau(  30) = (   5.0000010  11.2501116   4.9537468  )
        31           C   tau(  31) = (   5.0000006  11.2621450   9.2319371  )
        32           C   tau(  32) = (   4.9999987  11.3105963  13.5109244  )
        33           C   tau(  33) = (   5.0000006  12.5794684   1.4321445  )
        34           C   tau(  34) = (   5.0000009  12.4875005   5.6717568  )
        35           C   tau(  35) = (   5.0000006  12.4997452   9.9372890  )
        36           C   tau(  36) = (   4.9999997  12.5557418  14.1895323  )
        37           C   tau(  37) = (   5.0000002  14.9999999   2.8555828  )
        38           C   tau(  38) = (   5.0000002  15.0000003   7.1105904  )
        39           C   tau(  39) = (   5.0000001  15.0000006  11.3488396  )
        40           C   tau(  40) = (   4.9999998  14.9999987  15.6093887  )
        41           C   tau(  41) = (   5.0000001  16.2247670   3.5682396  )
        42           C   tau(  42) = (   4.9999999  16.2511520   7.8083996  )
        43           C   tau(  43) = (   5.0000000  16.2453845  12.0564301  )
        44           C   tau(  44) = (   5.0000000  16.2072875  16.3298417  )
        45           C   tau(  45) = (   5.0000002  13.7926984   0.7101542  )
        46           C   tau(  46) = (   5.0000004  13.7546215   4.9835724  )
        47           C   tau(  47) = (   5.0000005  13.7488500   9.2316067  )
        48           C   tau(  48) = (   5.0000000  13.7752334  13.4717734  )
        49           C   tau(  49) = (   5.0000001  15.0000014   1.4306318  )
        50           C   tau(  50) = (   5.0000002  14.9999997   5.6911619  )
        51           C   tau(  51) = (   5.0000001  14.9999998   9.9294196  )
        52           C   tau(  52) = (   4.9999999  15.0000002  14.1844072  )
        53           C   tau(  53) = (   5.0000000  17.4442548   2.8504365  )
        54           C   tau(  54) = (   4.9999997  17.5002521   7.1027175  )
        55           C   tau(  55) = (   4.9999999  17.5124927  11.3682447  )
        56           C   tau(  56) = (   5.0000001  17.4205573  15.6078965  )
        57           C   tau(  57) = (   4.9999987  18.6894071   3.5291025  )
        58           C   tau(  58) = (   4.9999989  18.7378567   7.8080644  )
        59           C   tau(  59) = (   5.0000001  18.7498955  12.0862578  )
        60           C   tau(  60) = (   5.0000007  18.6108610  16.3409565  )
        61           C   tau(  61) = (   5.0000000  16.2072990   0.7101551  )
        62           C   tau(  62) = (   4.9999999  16.2453797   4.9835725  )
        63           C   tau(  63) = (   4.9999998  16.2511504   9.2316068  )
        64           C   tau(  64) = (   4.9999999  16.2247664  13.4717727  )
        65           C   tau(  65) = (   5.0000003  17.4205352   1.4321398  )
        66           C   tau(  66) = (   4.9999999  17.5124987   5.6717570  )
        67           C   tau(  67) = (   4.9999996  17.5002544   9.9372886  )
        68           C   tau(  68) = (   5.0000000  17.4442581  14.1895367  )
        69           C   tau(  69) = (   4.9999958  19.8360218   2.7110830  )
        70           C   tau(  70) = (   4.9999986  19.9864854   7.0931827  )
        71           C   tau(  71) = (   4.9999998  20.0240106  11.3713936  )
        72           C   tau(  72) = (   5.0000007  19.8231918  15.6708267  )
        73           C   tau(  73) = (   4.9999979  21.2173013   7.8055157  )
        74           C   tau(  74) = (   4.9999998  21.3266757  11.9366192  )
        75           C   tau(  75) = (   5.0000010  18.6108794   0.6990171  )
        76           C   tau(  76) = (   4.9999998  18.7498894   4.9537460  )
        77           C   tau(  77) = (   4.9999991  18.7378552   9.2319371  )
        78           C   tau(  78) = (   5.0000005  18.6894048  13.5109213  )
        79           C   tau(  79) = (   4.9999992  19.8231887   1.3692938  )
        80           C   tau(  80) = (   5.0000007  20.0240043   5.6686047  )
        81           C   tau(  81) = (   4.9999992  19.9864855   9.9468175  )
        82           C   tau(  82) = (   5.0000009  19.8360475  14.3288027  )
        83           C   tau(  83) = (   4.9999969  22.4576169   7.1673853  )
        84           C   tau(  84) = (   5.0000001  22.5055425  11.2332519  )
        85           C   tau(  85) = (   5.0000039  21.3266819   5.1033716  )
        86           C   tau(  86) = (   4.9999989  21.2173022   9.2344805  )
        87           C   tau(  87) = (   5.0000000  22.5055417   5.8067477  )
        88           C   tau(  88) = (   4.9999999  22.4576149   9.8726060  )
        89           H   tau(  89) = (   4.9999982   6.6085568   7.7107472  )
        90           H   tau(  90) = (   5.0000014   6.5474154  11.7727782  )
        91           H   tau(  91) = (   4.9999993   6.5474140   5.2672119  )
        92           H   tau(  92) = (   5.0000007   6.6085595   9.3292476  )
        93           H   tau(  93) = (   4.9999962  23.3914433   7.7107470  )
        94           H   tau(  94) = (   5.0000005  23.4525848  11.7727784  )
        95           H   tau(  95) = (   5.0000011  23.4525857   5.2672119  )
        96           H   tau(  96) = (   5.0000004  23.3914407   9.3292475  )
        97           H   tau(  97) = (   5.0000068   8.4398168  12.9691584  )
        98           H   tau(  98) = (   4.9999983   9.1811008   3.0815361  )
        99           H   tau(  99) = (   4.9999981   9.2221818  16.1821117  )
       100           H   tau( 100) = (   5.0000037   8.4398139   4.0708455  )
       101           H   tau( 101) = (   5.0000003   9.2221584   0.8578785  )
       102           H   tau( 102) = (   4.9999908   9.1811310  13.9584811  )
       103           H   tau( 103) = (   4.9999884  20.8188953   3.0815341  )
       104           H   tau( 104) = (   5.0000005  20.7778207  16.1821134  )
       105           H   tau( 105) = (   4.9999992  21.5601834  12.9691580  )
       106           H   tau( 106) = (   4.9999985  20.7778391   0.8578806  )
       107           H   tau( 107) = (   5.0000018  20.8188727  13.9584790  )
       108           H   tau( 108) = (   5.0000128  21.5601860   4.0708446  )

     number of k points=    26  Marzari-Vanderbilt smearing, width (Ry)=  0.0100
                       cart. coord. in units 2pi/alat
        k(    1) = (   0.0000000   0.0000000   0.0000000), wk =   0.0400000
        k(    2) = (   0.0000000   0.0000000   0.0011737), wk =   0.0800000
        k(    3) = (   0.0000000   0.0000000   0.0023474), wk =   0.0800000
        k(    4) = (   0.0000000   0.0000000   0.0035211), wk =   0.0800000
        k(    5) = (   0.0000000   0.0000000   0.0046948), wk =   0.0800000
        k(    6) = (   0.0000000   0.0000000   0.0058685), wk =   0.0800000
        k(    7) = (   0.0000000   0.0000000   0.0070423), wk =   0.0800000
        k(    8) = (   0.0000000   0.0000000   0.0082160), wk =   0.0800000
        k(    9) = (   0.0000000   0.0000000   0.0093897), wk =   0.0800000
        k(   10) = (   0.0000000   0.0000000   0.0105634), wk =   0.0800000
        k(   11) = (   0.0000000   0.0000000   0.0117371), wk =   0.0800000
        k(   12) = (   0.0000000   0.0000000   0.0129108), wk =   0.0800000
        k(   13) = (   0.0000000   0.0000000   0.0140845), wk =   0.0800000
        k(   14) = (   0.0000000   0.0000000   0.0152582), wk =   0.0800000
        k(   15) = (   0.0000000   0.0000000   0.0164319), wk =   0.0800000
        k(   16) = (   0.0000000   0.0000000   0.0176056), wk =   0.0800000
        k(   17) = (   0.0000000   0.0000000   0.0187793), wk =   0.0800000
        k(   18) = (   0.0000000   0.0000000   0.0199531), wk =   0.0800000
        k(   19) = (   0.0000000   0.0000000   0.0211268), wk =   0.0800000
        k(   20) = (   0.0000000   0.0000000   0.0223005), wk =   0.0800000
        k(   21) = (   0.0000000   0.0000000   0.0234742), wk =   0.0800000
        k(   22) = (   0.0000000   0.0000000   0.0246479), wk =   0.0800000
        k(   23) = (   0.0000000   0.0000000   0.0258216), wk =   0.0800000
        k(   24) = (   0.0000000   0.0000000   0.0269953), wk =   0.0800000
        k(   25) = (   0.0000000   0.0000000   0.0281690), wk =   0.0800000
        k(   26) = (   0.0000000   0.0000000  -0.0293427), wk =   0.0400000

     Dense  grid:  6126037 G-vectors     FFT dimensions: ( 135, 400, 225)

     Smooth grid:  1178677 G-vectors     FFT dimensions: (  80, 240, 135)

     Estimated max dynamical RAM per process >       1.29 GB

     Estimated total dynamical RAM >      20.72 GB

     The potential is recalculated from file :
     /home/zfwang/scratch/GNRDATASET/AGNR/LS9_2_13_2_a/LS9_2_13_2_a.save/charge-density.dat


     negative rho (up, down):  3.574E-04 0.000E+00
     Starting wfcs are  372 randomized atomic wfcs +  128 random wfcs

     Band Structure Calculation
     Davidson diagonalization with overlap

     ethr =  2.69E-09,  avg # of iterations = 41.8

     total cpu time spent up to now is    10906.7 secs

     End of band structure calculation

          k = 0.0000 0.0000 0.0000 (147325 PWs)   bands (ev):

   -21.4931 -21.1416 -21.0733 -21.0497 -20.7955 -20.5807 -20.5661 -20.0795
   -20.0019 -19.9912 -19.9780 -19.8918 -19.8114 -19.4351 -19.2512 -19.2204
   -19.2190 -18.7939 -18.6992 -18.4319 -18.2607 -18.2538 -18.2081 -18.2012
   -18.1377 -17.7099 -17.6968 -17.5648 -17.4552 -17.3947 -17.1926 -17.0908
   -16.9663 -16.9353 -16.6662 -16.6150 -16.3627 -16.2768 -16.2141 -16.1077
   -16.0555 -15.9044 -15.6123 -15.2283 -15.0263 -14.9631 -14.9045 -14.8413
   -14.8210 -14.6044 -14.4325 -14.3304 -14.2157 -14.1838 -14.0316 -13.8026
   -13.7856 -13.5113 -13.4651 -13.0172 -12.9896 -12.9537 -12.7768 -12.7058
   -12.6905 -12.4998 -12.4477 -12.4236 -12.2644 -12.2545 -12.1947 -11.8887
   -11.7152 -11.6056 -11.5612 -11.3968 -11.1179 -11.1149 -11.0775 -10.9362
   -10.8827 -10.7909 -10.5636 -10.5630 -10.4615 -10.4421 -10.3918 -10.2407
    -9.9914  -9.7852  -9.7849  -9.7652  -9.6221  -9.5564  -9.5437  -9.4828
    -9.4828  -9.4371  -9.4304  -9.3791  -9.3421  -9.3235  -9.1538  -9.0778
    -9.0665  -8.9329  -8.8952  -8.8668  -8.7105  -8.7029  -8.7014  -8.6433
    -8.5892  -8.5601  -8.5297  -8.5255  -8.5109  -8.5087  -8.5017  -8.4845
    -8.3119  -8.2505  -8.2389  -8.1758  -8.1722  -8.0221  -7.9243  -7.8304
    -7.8014  -7.7991  -7.7972  -7.7832  -7.6940  -7.6414  -7.5988  -7.5686
    -7.3680  -7.2990  -7.2317  -7.2152  -7.1490  -7.1138  -7.0663  -6.9622
    -6.9376  -6.8914  -6.8890  -6.6765  -6.5530  -6.5044  -6.4547  -6.4372
    -6.3186  -6.2740  -6.2475  -6.0840  -6.0247  -5.9236  -5.9149  -5.9078
    -5.8304  -5.8133  -5.8102  -5.6140  -5.4316  -5.3091  -5.3074  -5.2141
    -5.2047  -5.1277  -5.1163  -4.9295  -4.7898  -4.7438  -4.7097  -4.6466
    -4.5594  -4.2189  -4.2083  -4.1415  -4.0152  -3.8813  -3.6223  -3.4217
    -3.2146  -2.1987  -2.1511  -1.2034  -0.8215  -0.6995  -0.6849  -0.4450
    -0.4206  -0.2597  -0.1992  -0.0561   0.1842   0.1847   0.3987   0.4147
     0.4868   0.8214   0.8345   0.8372   0.8782   1.1553   1.1788   1.2498
     1.2860   1.3272   1.3403   1.3657   1.5315   1.5889   1.6203   1.6558
     1.6670   1.6681   1.6972   1.7150   1.7372   1.8952   2.0073   2.0451
     2.0489   2.0852   2.1710   2.2357   2.3546   2.3957   2.4434   2.4552
     2.5330   2.5456   2.6226   2.6690   2.6782   2.7261   2.7371   2.7559
     2.7897   2.8715   2.8756   2.9648   2.9786   3.0249   3.0479   3.0660
     3.0684   3.1362   3.1632   3.1713   3.1721   3.1929   3.2425   3.2525
     3.2830   3.2895   3.2914   3.3430   3.3480   3.4766   3.5165   3.5731
     3.5812   3.5833   3.5896   3.5987   3.6571   3.6701   3.7144   3.8284
     3.8575   3.8611   3.8942   3.9078   3.9286   3.9353   3.9396   3.9483
     3.9850   4.0095   4.1246   4.1391   4.1807   4.2868   4.2905   4.2926
     4.2993   4.3621   4.3657   4.4214   4.4485   4.4559   4.4897   4.4899
     4.5234   4.5243   4.5416   4.5649   4.5693   4.6238   4.6299   4.6481
     4.7380   4.7555   4.7662   4.7689   4.7985   4.8002   4.8400   4.8508
     4.8541   4.8835   4.8843   4.9268   4.9734   4.9910   5.0019   5.0137
     5.0323   5.0400   5.1179   5.1801   5.1899   5.2052   5.2164   5.2433
     5.2434   5.2873   5.3017   5.3138   5.3378   5.4405   5.4563   5.5166
     5.5282   5.5541   5.5682   5.5899   5.6027   5.6032   5.6040   5.6140
     5.6169   5.6286   5.6399   5.6570   5.6905   5.7010   5.7121   5.7703
     5.8470   5.8786   5.8860   5.8984   5.8992   5.9080   5.9405   5.9600
     5.9811   5.9849   5.9945   6.0368   6.0515   6.0579   6.0591   6.1189
     6.1439   6.1638   6.1672   6.1829   6.1881   6.1965   6.2411   6.2522
     6.2673   6.2856   6.2945   6.3113   6.3393   6.3948   6.4098   6.4209
     6.4487   6.4598   6.4879   6.5263   6.5267   6.5425   6.5582   6.5661
     6.6065   6.6114   6.6363   6.6618   6.6705   6.6897   6.6952   6.7036
     6.7167   6.7596   6.8104   6.8743   6.8781   6.9002   6.9389   6.9530
     6.9693   6.9945   6.9949   7.0056   7.0085   7.0143   7.0626   7.0673
     7.0691   7.0701   7.0821   7.1521   7.1552   7.1600   7.1610   7.1746
     7.1774   7.2077   7.2156   7.2291   7.2567   7.2666   7.2755   7.2855
     7.2922   7.3458   7.3563   7.3670   7.3792   7.3943   7.4097   7.4176
     7.4436   7.4502   7.4753   7.4969   7.5316   7.5326   7.5391   7.5477
     7.5522   7.5750   7.6011   7.6330   7.6688   7.6862   7.6896   7.6995
     7.7050   7.7252   7.7492   7.7720   7.7871   7.8149   7.8286   7.8288
     7.8444   7.8497   7.9000   7.9238   7.9319   7.9654   7.9695   7.9763
     8.0063   8.0123   8.0125   8.0386   8.0521   8.0547   8.0885   8.1219
     8.1638   8.2004   8.2436   8.2452   8.2593   8.2671   8.2801   8.2822
     8.3025   8.3322   8.3399   8.3498   8.3522   8.4188   8.4301   8.4645
     8.4662   8.4872   8.4883   8.4986

          k = 0.0000 0.0000 0.0012 (147355 PWs)   bands (ev):

   -21.4930 -21.1442 -21.0704 -21.0496 -20.7961 -20.5807 -20.5652 -20.0844
   -20.0022 -19.9929 -19.9747 -19.8880 -19.8121 -19.4352 -19.2543 -19.2177
   -19.2176 -18.7936 -18.6994 -18.4322 -18.2632 -18.2529 -18.2427 -18.1657
   -18.1373 -17.7157 -17.6967 -17.5579 -17.4552 -17.3949 -17.1936 -17.0920
   -16.9653 -16.9351 -16.6654 -16.6142 -16.3642 -16.2757 -16.2166 -16.1086
   -16.0547 -15.9050 -15.6147 -15.2255 -15.0288 -14.9626 -14.9034 -14.8403
   -14.8185 -14.6045 -14.4334 -14.3298 -14.2190 -14.1799 -14.0309 -13.8096
   -13.7785 -13.5125 -13.4632 -13.0181 -12.9916 -12.9546 -12.7894 -12.7452
   -12.6401 -12.5047 -12.4466 -12.4215 -12.2613 -12.2531 -12.1922 -11.8907
   -11.7139 -11.6118 -11.5563 -11.3939 -11.1241 -11.1169 -11.0764 -10.9343
   -10.8809 -10.7872 -10.5743 -10.5658 -10.4540 -10.4402 -10.3884 -10.2394
    -9.9935  -9.7977  -9.7888  -9.7564  -9.6182  -9.5562  -9.5552  -9.4862
    -9.4855  -9.4332  -9.4236  -9.3764  -9.3423  -9.3158  -9.1573  -9.0740
    -9.0664  -8.9338  -8.8969  -8.8682  -8.7156  -8.7116  -8.7013  -8.6306
    -8.5909  -8.5603  -8.5296  -8.5286  -8.5095  -8.5087  -8.4968  -8.4818
    -8.3123  -8.2541  -8.2346  -8.1788  -8.1688  -8.0243  -7.9290  -7.8307
    -7.8001  -7.7976  -7.7973  -7.7834  -7.6881  -7.6419  -7.5993  -7.5697
    -7.3682  -7.3005  -7.2316  -7.2146  -7.1512  -7.1128  -7.0638  -6.9674
    -6.9330  -6.8924  -6.8880  -6.6771  -6.5673  -6.4929  -6.4544  -6.4370
    -6.3169  -6.2772  -6.2443  -6.0834  -6.0255  -5.9280  -5.9143  -5.9051
    -5.8605  -5.8121  -5.7791  -5.6139  -5.4319  -5.3146  -5.3073  -5.2140
    -5.2052  -5.1289  -5.1092  -4.9295  -4.7905  -4.7438  -4.7094  -4.6469
    -4.5595  -4.2291  -4.1980  -4.1427  -4.0147  -3.8810  -3.6219  -3.4217
    -3.2155  -2.2181  -2.1320  -1.2028  -0.8217  -0.6996  -0.6841  -0.4448
    -0.4207  -0.2598  -0.1977  -0.0565   0.1828   0.1831   0.3995   0.4170
     0.4866   0.8214   0.8309   0.8374   0.8784   1.1555   1.1814   1.2468
     1.2802   1.3315   1.3333   1.3748   1.5317   1.5734   1.6164   1.6309
     1.6656   1.7002   1.7031   1.7119   1.7519   1.8960   2.0065   2.0282
     2.0662   2.0832   2.1743   2.2354   2.3546   2.3961   2.4434   2.4537
     2.5335   2.5427   2.6199   2.6684   2.6761   2.7272   2.7429   2.7559
     2.7924   2.8688   2.8740   2.9681   2.9762   3.0236   3.0489   3.0661
     3.0668   3.1365   3.1408   3.1640   3.1845   3.2170   3.2363   3.2495
     3.2696   3.2896   3.3060   3.3480   3.3528   3.4648   3.5225   3.5548
     3.5759   3.5807   3.5869   3.6314   3.6420   3.6855   3.7171   3.8278
     3.8542   3.8557   3.8986   3.9010   3.9188   3.9364   3.9422   3.9485
     3.9950   4.0172   4.1128   4.1515   4.1790   4.2711   4.2874   4.2905
     4.3228   4.3379   4.3837   4.4103   4.4495   4.4600   4.4860   4.4949
     4.4989   4.5249   4.5590   4.5700   4.5760   4.6096   4.6441   4.6446
     4.7319   4.7413   4.7657   4.7689   4.8029   4.8075   4.8145   4.8474
     4.8620   4.8912   4.9018   4.9297   4.9710   4.9925   5.0007   5.0235
     5.0339   5.0400   5.1211   5.1637   5.1824   5.1953   5.2095   5.2429
     5.2667   5.3017   5.3018   5.3178   5.3377   5.4347   5.4626   5.5152
     5.5245   5.5437   5.5672   5.5795   5.5902   5.5950   5.6009   5.6063
     5.6365   5.6366   5.6394   5.6664   5.6824   5.7006   5.7370   5.7755
     5.8390   5.8647   5.8772   5.8918   5.8932   5.9214   5.9392   5.9468
     5.9817   5.9982   5.9994   6.0369   6.0498   6.0607   6.0630   6.1223
     6.1440   6.1708   6.1727   6.1790   6.1892   6.1989   6.2298   6.2522
     6.2772   6.2853   6.2953   6.3203   6.3364   6.3959   6.4049   6.4131
     6.4479   6.4595   6.4787   6.5264   6.5378   6.5386   6.5619   6.5664
     6.6117   6.6127   6.6364   6.6605   6.6737   6.6945   6.6946   6.7050
     6.7157   6.7514   6.8107   6.8713   6.8726   6.8995   6.9383   6.9531
     6.9782   6.9864   6.9886   7.0046   7.0052   7.0172   7.0477   7.0607
     7.0641   7.0704   7.1066   7.1529   7.1556   7.1557   7.1571   7.1802
     7.1838   7.2069   7.2124   7.2360   7.2505   7.2616   7.2713   7.2865
     7.3004   7.3286   7.3588   7.3752   7.3804   7.3927   7.4109   7.4231
     7.4428   7.4520   7.4838   7.5080   7.5207   7.5318   7.5387   7.5500
     7.5536   7.5771   7.6010   7.6336   7.6485   7.6864   7.6878   7.6972
     7.7054   7.7462   7.7496   7.7690   7.7857   7.8179   7.8250   7.8302
     7.8479   7.8575   7.8752   7.9318   7.9524   7.9555   7.9740   7.9842
     7.9970   8.0127   8.0266   8.0372   8.0515   8.0559   8.0911   8.1209
     8.1646   8.1833   8.2365   8.2444   8.2448   8.2535   8.2664   8.3121
     8.3144   8.3240   8.3258   8.3621   8.3654   8.4228   8.4287   8.4613
     8.4670   8.4816   8.4862   8.5050

          k = 0.0000 0.0000 0.0023 (147377 PWs)   bands (ev):

   -21.4927 -21.1511 -21.0627 -21.0492 -20.7981 -20.5807 -20.5625 -20.0975
   -20.0031 -19.9976 -19.9661 -19.8772 -19.8141 -19.4356 -19.2618 -19.2137
   -19.2113 -18.7930 -18.6997 -18.4335 -18.2787 -18.2688 -18.2517 -18.1362
   -18.1263 -17.7303 -17.6965 -17.5401 -17.4550 -17.3957 -17.1963 -17.0954
   -16.9621 -16.9344 -16.6634 -16.6117 -16.3687 -16.2729 -16.2238 -16.1112
   -16.0525 -15.9068 -15.6218 -15.2173 -15.0357 -14.9611 -14.9003 -14.8373
   -14.8112 -14.6047 -14.4362 -14.3284 -14.2257 -14.1712 -14.0290 -13.8210
   -13.7664 -13.5155 -13.4580 -13.0208 -12.9978 -12.9576 -12.8347 -12.7638
   -12.5809 -12.5174 -12.4432 -12.4169 -12.2525 -12.2490 -12.1849 -11.8965
   -11.7102 -11.6262 -11.5457 -11.3854 -11.1388 -11.1228 -11.0769 -10.9279
   -10.8759 -10.7768 -10.6004 -10.5718 -10.4406 -10.4350 -10.3767 -10.2357
    -9.9998  -9.8203  -9.7984  -9.7460  -9.6076  -9.5815  -9.5557  -9.4942
    -9.4925  -9.4239  -9.4109  -9.3682  -9.3425  -9.2940  -9.1662  -9.0660
    -9.0641  -8.9365  -8.9020  -8.8720  -8.7431  -8.7147  -8.6972  -8.6081
    -8.5950  -8.5618  -8.5334  -8.5281  -8.5087  -8.5054  -8.4863  -8.4744
    -8.3134  -8.2596  -8.2267  -8.1826  -8.1641  -8.0305  -7.9416  -7.8317
    -7.8032  -7.7962  -7.7921  -7.7787  -7.6727  -7.6434  -7.6006  -7.5731
    -7.3689  -7.3051  -7.2313  -7.2129  -7.1572  -7.1099  -7.0572  -6.9780
    -6.9241  -6.8955  -6.8847  -6.6785  -6.5950  -6.4736  -6.4536  -6.4364
    -6.3117  -6.2846  -6.2369  -6.0813  -6.0285  -5.9374  -5.9125  -5.9010
    -5.8967  -5.8089  -5.7394  -5.6135  -5.4329  -5.3296  -5.3072  -5.2138
    -5.2065  -5.1307  -5.0915  -4.9294  -4.7928  -4.7438  -4.7084  -4.6475
    -4.5599  -4.2431  -4.1837  -4.1460  -4.0133  -3.8801  -3.6207  -3.4218
    -3.2181  -2.2509  -2.0999  -1.2008  -0.8223  -0.6998  -0.6818  -0.4441
    -0.4209  -0.2600  -0.1936  -0.0576   0.1774   0.1801   0.4020   0.4236
     0.4861   0.8204   0.8217   0.8379   0.8789   1.1560   1.1887   1.2379
     1.2677   1.3162   1.3464   1.3908   1.5321   1.5324   1.6062   1.6280
     1.6642   1.6778   1.7168   1.7663   1.7736   1.8986   2.0040   2.0098
     2.0783   2.0856   2.1831   2.2343   2.3546   2.3974   2.4432   2.4495
     2.5348   2.5349   2.6092   2.6668   2.6767   2.7304   2.7535   2.7558
     2.8017   2.8616   2.8695   2.9697   2.9771   3.0192   3.0514   3.0570
     3.0696   3.1133   3.1373   3.1624   3.2009   3.2216   3.2406   3.2442
     3.2616   3.2898   3.3248   3.3602   3.3657   3.4417   3.5188   3.5299
     3.5736   3.5761   3.6031   3.6223   3.6688   3.7063   3.7244   3.8256
     3.8403   3.8511   3.8809   3.8996   3.9094   3.9393   3.9491   3.9497
     4.0149   4.0357   4.0973   4.1694   4.1733   4.2501   4.2894   4.2902
     4.3077   4.3504   4.3919   4.3953   4.4359   4.4656   4.4757   4.4796
     4.5043   4.5320   4.5616   4.5815   4.5938   4.6021   4.6340   4.6621
     4.7126   4.7194   4.7606   4.7706   4.7818   4.8031   4.8245   4.8377
     4.8667   4.9144   4.9298   4.9388   4.9718   4.9975   4.9979   5.0384
     5.0401   5.0435   5.1304   5.1333   5.1480   5.1919   5.2044   5.2420
     5.3019   5.3024   5.3259   5.3342   5.3375   5.4263   5.4717   5.5098
     5.5148   5.5158   5.5492   5.5655   5.5730   5.5752   5.6048   5.6154
     5.6378   5.6487   5.6582   5.6685   5.6784   5.7124   5.7786   5.7877
     5.8199   5.8376   5.8685   5.8697   5.8770   5.9097   5.9374   5.9604
     5.9808   5.9961   6.0230   6.0386   6.0389   6.0672   6.0882   6.1260
     6.1432   6.1748   6.1815   6.1862   6.1928   6.2112   6.2133   6.2523
     6.2841   6.2921   6.2979   6.3287   6.3415   6.3914   6.3923   6.3985
     6.4459   6.4598   6.4715   6.5143   6.5396   6.5419   6.5673   6.5826
     6.6125   6.6257   6.6367   6.6584   6.6839   6.6923   6.7061   6.7102
     6.7127   6.7287   6.8115   6.8570   6.8667   6.8981   6.9355   6.9522
     6.9718   6.9775   6.9828   6.9912   6.9945   7.0311   7.0344   7.0572
     7.0591   7.0693   7.1360   7.1455   7.1485   7.1537   7.1577   7.1844
     7.2011   7.2046   7.2059   7.2246   7.2491   7.2707   7.2817   7.2892
     7.2978   7.3023   7.3424   7.3838   7.3923   7.4124   7.4136   7.4335
     7.4423   7.4539   7.4888   7.4915   7.5324   7.5369   7.5383   7.5556
     7.5655   7.5794   7.6042   7.6201   7.6344   7.6733   7.6837   7.6998
     7.7055   7.7387   7.7560   7.7917   7.7990   7.8077   7.8194   7.8297
     7.8523   7.8571   7.8868   7.9313   7.9404   7.9690   7.9928   7.9941
     8.0028   8.0132   8.0347   8.0442   8.0493   8.0598   8.0972   8.1073
     8.1669   8.1707   8.2092   8.2149   8.2178   8.2588   8.2633   8.2922
     8.3047   8.3228   8.3559   8.3862   8.3972   8.4273   8.4416   8.4429
     8.4481   8.4717   8.5142   8.5226

          k = 0.0000 0.0000 0.0035 (147387 PWs)   bands (ev):

   -21.4921 -21.1603 -21.0520 -21.0486 -20.8012 -20.5807 -20.5581 -20.1154
   -20.0047 -20.0040 -19.9551 -19.8611 -19.8174 -19.4361 -19.2712 -19.2072
   -19.2038 -18.7918 -18.7003 -18.4369 -18.3117 -18.2762 -18.2514 -18.1350
   -18.0865 -17.7488 -17.6961 -17.5169 -17.4537 -17.3969 -17.2007 -17.1009
   -16.9570 -16.9332 -16.6605 -16.6071 -16.3755 -16.2687 -16.2356 -16.1153
   -16.0492 -15.9097 -15.6331 -15.2043 -15.0463 -14.9583 -14.8958 -14.8330
   -14.7988 -14.6051 -14.4407 -14.3271 -14.2320 -14.1607 -14.0259 -13.8326
   -13.7536 -13.5194 -13.4503 -13.0252 -13.0081 -12.9624 -12.8918 -12.7742
   -12.5342 -12.5210 -12.4374 -12.4120 -12.2423 -12.2390 -12.1730 -11.9054
   -11.7048 -11.6441 -11.5332 -11.3722 -11.1573 -11.1319 -11.0830 -10.9163
   -10.8684 -10.7616 -10.6324 -10.5804 -10.4314 -10.4273 -10.3556 -10.2296
   -10.0104  -9.8471  -9.8113  -9.7408  -9.6118  -9.5934  -9.5549  -9.5041
    -9.5014  -9.4120  -9.4001  -9.3549  -9.3423  -9.2622  -9.1780  -9.0654
    -9.0507  -8.9408  -8.9102  -8.8776  -8.7736  -8.7196  -8.6924  -8.6001
    -8.5881  -8.5651  -8.5347  -8.5240  -8.5086  -8.4989  -8.4741  -8.4638
    -8.3148  -8.2641  -8.2176  -8.1860  -8.1595  -8.0399  -7.9599  -7.8335
    -7.8131  -7.7899  -7.7842  -7.7688  -7.6511  -7.6458  -7.6029  -7.5784
    -7.3699  -7.3128  -7.2306  -7.2102  -7.1655  -7.1053  -7.0479  -6.9903
    -6.9145  -6.9003  -6.8794  -6.6810  -6.6268  -6.4557  -6.4522  -6.4355
    -6.3033  -6.2938  -6.2277  -6.0778  -6.0355  -5.9488  -5.9291  -5.9096
    -5.8981  -5.8039  -5.6990  -5.6130  -5.4346  -5.3501  -5.3070  -5.2134
    -5.2087  -5.1330  -5.0670  -4.9293  -4.7962  -4.7442  -4.7069  -4.6484
    -4.5605  -4.2574  -4.1689  -4.1513  -4.0114  -3.8785  -3.6186  -3.4219
    -3.2224  -2.2859  -2.0660  -1.1976  -0.8231  -0.7002  -0.6781  -0.4430
    -0.4209  -0.2601  -0.1870  -0.0595   0.1692   0.1752   0.4059   0.4339
     0.4853   0.8041   0.8220   0.8389   0.8798   1.1567   1.1997   1.2233
     1.2533   1.3001   1.3618   1.4081   1.4848   1.5336   1.5923   1.6359
     1.6547   1.6643   1.7339   1.7958   1.8226   1.9028   1.9918   1.9997
     2.0725   2.1053   2.1957   2.2324   2.3546   2.3994   2.4430   2.4430
     2.5235   2.5370   2.5906   2.6641   2.6845   2.7354   2.7556   2.7618
     2.8187   2.8519   2.8626   2.9609   2.9899   3.0112   3.0365   3.0535
     3.0757   3.0953   3.1384   3.1670   3.2030   3.2199   3.2281   3.2341
     3.2903   3.2923   3.3443   3.3762   3.3837   3.4160   3.4828   3.5338
     3.5634   3.5772   3.6028   3.6257   3.7065   3.7278   3.7343   3.8207
     3.8247   3.8449   3.8585   3.8799   3.9163   3.9434   3.9501   3.9622
     4.0349   4.0586   4.0848   4.1626   4.1877   4.2345   4.2748   4.2893
     4.2928   4.3729   4.3786   4.3981   4.4198   4.4316   4.4613   4.5004
     4.5127   4.5453   4.5592   4.5791   4.5928   4.6215   4.6274   4.6792
     4.6803   4.7092   4.7333   4.7727   4.7756   4.7954   4.8116   4.8459
     4.8932   4.9209   4.9496   4.9666   4.9836   4.9954   5.0061   5.0396
     5.0447   5.0634   5.1006   5.1138   5.1449   5.1685   5.2189   5.2408
     5.3018   5.3318   5.3374   5.3397   5.3734   5.4190   5.4653   5.4929
     5.4971   5.5021   5.5261   5.5436   5.5561   5.5737   5.6093   5.6267
     5.6350   5.6575   5.6626   5.6782   5.6804   5.7357   5.7966   5.7969
     5.8016   5.8356   5.8394   5.8490   5.8541   5.8997   5.9397   5.9686
     5.9744   5.9870   6.0349   6.0457   6.0615   6.0739   6.1117   6.1148
     6.1415   6.1881   6.1922   6.1994   6.1996   6.1999   6.2335   6.2524
     6.2821   6.2992   6.3110   6.3180   6.3573   6.3674   6.3842   6.3977
     6.4430   6.4625   6.4736   6.4953   6.5355   6.5464   6.5679   6.6033
     6.6172   6.6364   6.6371   6.6597   6.6884   6.6957   6.7027   6.7087
     6.7145   6.7261   6.8130   6.8406   6.8564   6.8969   6.9239   6.9470
     6.9479   6.9632   6.9715   6.9813   6.9851   7.0215   7.0450   7.0573
     7.0675   7.0722   7.1332   7.1378   7.1379   7.1592   7.1632   7.1865
     7.1912   7.2062   7.2187   7.2288   7.2396   7.2760   7.2842   7.2927
     7.3006   7.3015   7.3332   7.3898   7.3929   7.4141   7.4329   7.4441
     7.4505   7.4568   7.4618   7.4924   7.5337   7.5394   7.5469   7.5641
     7.5753   7.6011   7.6077   7.6163   7.6333   7.6521   7.6788   7.7037
     7.7060   7.7261   7.7354   7.7881   7.8151   7.8179   7.8273   7.8366
     7.8530   7.8835   7.8983   7.9284   7.9366   7.9692   7.9896   8.0136
     8.0214   8.0268   8.0339   8.0446   8.0607   8.0690   8.0803   8.1028
     8.1702   8.1755   8.1822   8.1846   8.1916   8.2541   8.2548   8.2708
     8.2811   8.3258   8.3952   8.4039   8.4236   8.4296   8.4383   8.4387
     8.4609   8.4616   8.5221   8.5513

          k = 0.0000 0.0000 0.0047 (147403 PWs)   bands (ev):

   -21.4912 -21.1708 -21.0477 -21.0395 -20.8054 -20.5807 -20.5522 -20.1361
   -20.0113 -20.0070 -19.9433 -19.8411 -19.8218 -19.4368 -19.2815 -19.1983
   -19.1961 -18.7902 -18.7010 -18.4452 -18.3388 -18.2851 -18.2519 -18.1341
   -18.0466 -17.7681 -17.6955 -17.4949 -17.4478 -17.3986 -17.2063 -17.1084
   -16.9501 -16.9315 -16.6576 -16.6003 -16.3841 -16.2638 -16.2516 -16.1205
   -16.0452 -15.9133 -15.6479 -15.1883 -15.0587 -14.9543 -14.8905 -14.8280
   -14.7812 -14.6057 -14.4467 -14.3274 -14.2356 -14.1495 -14.0220 -13.8437
   -13.7405 -13.5236 -13.4410 -13.0313 -13.0227 -12.9689 -12.9509 -12.7852
   -12.5526 -12.4622 -12.4284 -12.4079 -12.2337 -12.2221 -12.1572 -11.9165
   -11.6982 -11.6637 -11.5197 -11.3552 -11.1776 -11.1436 -11.0946 -10.8999
   -10.8593 -10.7434 -10.6664 -10.5900 -10.4269 -10.4181 -10.3283 -10.2217
   -10.0251  -9.8773  -9.8253  -9.7430  -9.6400  -9.5784  -9.5537  -9.5145
    -9.5102  -9.3989  -9.3917  -9.3407  -9.3386  -9.2249  -9.1911  -9.0645
    -9.0353  -8.9464  -8.9212  -8.8843  -8.8041  -8.7260  -8.6889  -8.6054
    -8.5764  -8.5693  -8.5286  -8.5169  -8.5086  -8.4902  -8.4617  -8.4511
    -8.3159  -8.2669  -8.2077  -8.1888  -8.1555  -8.0511  -7.9819  -7.8360
    -7.8241  -7.7814  -7.7744  -7.7567  -7.6490  -7.6258  -7.6060  -7.5855
    -7.3714  -7.3234  -7.2294  -7.2067  -7.1749  -7.0993  -7.0371  -7.0036
    -6.9068  -6.9051  -6.8719  -6.6843  -6.6606  -6.4503  -6.4412  -6.4342
    -6.3041  -6.2919  -6.2175  -6.0726  -6.0500  -5.9614  -5.9537  -5.9056
    -5.8967  -5.7979  -5.6586  -5.6121  -5.4369  -5.3733  -5.3065  -5.2129
    -5.2118  -5.1359  -5.0382  -4.9290  -4.8006  -4.7453  -4.7049  -4.6494
    -4.5612  -4.2719  -4.1583  -4.1541  -4.0092  -3.8762  -3.6156  -3.4221
    -3.2283  -2.3216  -2.0319  -1.1932  -0.8239  -0.7011  -0.6733  -0.4414
    -0.4204  -0.2599  -0.1784  -0.0622   0.1589   0.1687   0.4109   0.4471
     0.4844   0.7832   0.8225   0.8402   0.8811   1.1577   1.2031   1.2132
     1.2384   1.2838   1.3781   1.4259   1.4385   1.5353   1.5768   1.6314
     1.6485   1.6659   1.7527   1.8177   1.8797   1.9088   1.9742   1.9934
     2.0672   2.1254   2.2107   2.2296   2.3545   2.4023   2.4351   2.4429
     2.5103   2.5394   2.5679   2.6604   2.6972   2.7415   2.7551   2.7671
     2.8413   2.8414   2.8539   2.9513   3.0000   3.0049   3.0066   3.0543
     3.0851   3.0857   3.1395   3.1766   3.1834   3.2138   3.2199   3.2405
     3.2911   3.3251   3.3649   3.3924   3.3942   3.4043   3.4475   3.5358
     3.5514   3.5788   3.5836   3.6507   3.7437   3.7443   3.7497   3.8080
     3.8111   3.8366   3.8393   3.8646   3.9207   3.9481   3.9515   3.9782
     4.0435   4.0821   4.0850   4.1469   4.2057   4.2257   4.2399   4.2868
     4.2981   4.3540   4.3939   4.3977   4.4027   4.4071   4.4444   4.5178
     4.5204   4.5550   4.5628   4.5672   4.5958   4.6109   4.6399   4.6502
     4.6884   4.7051   4.7116   4.7734   4.7842   4.7852   4.7878   4.8692
     4.9225   4.9234   4.9572   4.9862   5.0047   5.0071   5.0174   5.0362
     5.0539   5.0591   5.0834   5.0912   5.1428   5.1636   5.2389   5.2397
     5.3010   5.3321   5.3378   5.3772   5.4005   5.4157   5.4407   5.4746
     5.4878   5.4954   5.5068   5.5289   5.5380   5.5733   5.6155   5.6291
     5.6375   5.6463   5.6710   5.6840   5.7031   5.7552   5.7721   5.7734
     5.8033   5.8137   5.8249   5.8276   5.8840   5.9045   5.9181   5.9652
     5.9765   5.9848   6.0376   6.0665   6.0790   6.0924   6.0946   6.1267
     6.1398   6.1909   6.1961   6.2105   6.2165   6.2234   6.2505   6.2525
     6.2792   6.3021   6.3082   6.3284   6.3458   6.3483   6.3950   6.4019
     6.4399   6.4649   6.4818   6.4829   6.5262   6.5531   6.5674   6.6042
     6.6349   6.6360   6.6371   6.6571   6.6699   6.6827   6.7036   6.7243
     6.7319   6.7450   6.8151   6.8228   6.8429   6.8953   6.9003   6.9176
     6.9424   6.9510   6.9622   6.9679   6.9681   7.0208   7.0406   7.0532
     7.0805   7.0857   7.1152   7.1162   7.1322   7.1660   7.1663   7.1801
     7.1948   7.2112   7.2211   7.2332   7.2459   7.2685   7.2920   7.2974
     7.3011   7.3206   7.3386   7.3936   7.3994   7.4092   7.4115   7.4160
     7.4554   7.4805   7.4864   7.4976   7.5350   7.5419   7.5512   7.5674
     7.5738   7.5949   7.6247   7.6338   7.6385   7.6611   7.6750   7.6988
     7.7027   7.7137   7.7203   7.7656   7.8124   7.8218   7.8497   7.8618
     7.8811   7.8953   7.9043   7.9238   7.9473   7.9676   7.9872   8.0117
     8.0361   8.0373   8.0421   8.0436   8.0554   8.0829   8.0841   8.1006
     8.1554   8.1576   8.1600   8.1751   8.2048   8.2264   8.2502   8.2574
     8.2775   8.3250   8.3760   8.4031   8.4251   8.4492   8.4530   8.4623
     8.4716   8.4817   8.5276   8.5485

          k = 0.0000 0.0000 0.0059 (147375 PWs)   bands (ev):

   -21.4901 -21.1818 -21.0466 -21.0260 -20.8106 -20.5807 -20.5449 -20.1583
   -20.0189 -20.0101 -19.9313 -19.8270 -19.8184 -19.4377 -19.2924 -19.1885
   -19.1872 -18.7882 -18.7020 -18.4617 -18.3565 -18.2952 -18.2534 -18.1342
   -18.0067 -17.7861 -17.6946 -17.4829 -17.4299 -17.4008 -17.2129 -17.1175
   -16.9418 -16.9294 -16.6551 -16.5911 -16.3939 -16.2714 -16.2586 -16.1270
   -16.0409 -15.9174 -15.6654 -15.1726 -15.0693 -14.9490 -14.8849 -14.8227
   -14.7586 -14.6065 -14.4542 -14.3309 -14.2348 -14.1379 -14.0179 -13.8537
   -13.7274 -13.5276 -13.4306 -13.0414 -13.0388 -13.0105 -12.9770 -12.7979
   -12.5709 -12.4254 -12.4042 -12.3956 -12.2236 -12.2030 -12.1381 -11.9289
   -11.6910 -11.6841 -11.5048 -11.3355 -11.1985 -11.1573 -11.1106 -10.8800
   -10.8503 -10.7246 -10.6999 -10.5991 -10.4250 -10.4079 -10.2988 -10.2124
   -10.0437  -9.9103  -9.8386  -9.7539  -9.6631  -9.5653  -9.5522  -9.5245
    -9.5177  -9.3855  -9.3841  -9.3365  -9.3211  -9.2049  -9.1859  -9.0634
    -9.0187  -8.9529  -8.9346  -8.8916  -8.8331  -8.7336  -8.6879  -8.6111
    -8.5734  -8.5733  -8.5161  -8.5086  -8.5068  -8.4798  -8.4506  -8.4369
    -8.3155  -8.2672  -8.1970  -8.1912  -8.1530  -8.0624  -8.0061  -7.8394
    -7.8351  -7.7708  -7.7636  -7.7436  -7.6530  -7.6099  -7.5979  -7.5940
    -7.3733  -7.3368  -7.2276  -7.2027  -7.1849  -7.0923  -7.0259  -7.0174
    -6.9147  -6.8961  -6.8624  -6.6956  -6.6885  -6.4478  -6.4325  -6.4300
    -6.3154  -6.2785  -6.2063  -6.0747  -6.0655  -5.9748  -5.9677  -5.9008
    -5.8968  -5.7914  -5.6185  -5.6110  -5.4397  -5.3972  -5.3059  -5.2158
    -5.2122  -5.1395  -5.0069  -4.9287  -4.8059  -4.7474  -4.7022  -4.6503
    -4.5618  -4.2867  -4.1665  -4.1393  -4.0073  -3.8731  -3.6116  -3.4223
    -3.2357  -2.3577  -1.9980  -1.1878  -0.8244  -0.7027  -0.6675  -0.4393
    -0.4190  -0.2592  -0.1682  -0.0658   0.1472   0.1609   0.4163   0.4624
     0.4836   0.7590   0.8230   0.8419   0.8828   1.1588   1.1772   1.2237
     1.2280   1.2678   1.3947   1.3951   1.4439   1.5375   1.5606   1.6084
     1.6641   1.6684   1.7725   1.8393   1.9165   1.9373   1.9570   1.9852
     2.0633   2.1457   2.2257   2.2272   2.3543   2.4060   2.4264   2.4430
     2.4956   2.5421   2.5437   2.6556   2.7126   2.7481   2.7539   2.7709
     2.8313   2.8441   2.8667   2.9424   2.9728   2.9866   3.0210   3.0539
     3.0788   3.0971   3.1384   3.1659   3.1900   3.1991   3.2067   3.2619
     3.2923   3.3377   3.3836   3.3912   3.4131   3.4136   3.4259   3.5370
     3.5386   3.5648   3.5809   3.6750   3.7509   3.7719   3.7766   3.7891
     3.7981   3.8191   3.8373   3.8566   3.9239   3.9529   3.9533   3.9953
     4.0358   4.1023   4.1039   4.1287   4.2037   4.2230   4.2235   4.2820
     4.3056   4.3355   4.3639   4.3846   4.3852   4.4248   4.4352   4.5185
     4.5331   4.5487   4.5641   4.5804   4.5822   4.6055   4.6298   4.6351
     4.6586   4.7140   4.7314   4.7588   4.7770   4.7879   4.7960   4.8939
     4.9211   4.9543   4.9641   4.9848   5.0086   5.0225   5.0289   5.0299
     5.0490   5.0659   5.0707   5.1071   5.1189   5.1852   5.2358   5.2662
     5.2988   5.3269   5.3396   5.3595   5.4143   5.4349   5.4461   5.4596
     5.4729   5.4817   5.5094   5.5181   5.5208   5.5715   5.6170   5.6234
     5.6411   5.6447   5.6672   5.6980   5.7262   5.7398   5.7465   5.7542
     5.7960   5.7990   5.8101   5.8228   5.8839   5.9172   5.9294   5.9666
     5.9710   5.9899   6.0405   6.0674   6.0826   6.0867   6.1268   6.1312
     6.1415   6.1887   6.2001   6.2262   6.2487   6.2492   6.2511   6.2534
     6.2771   6.3013   6.3066   6.3215   6.3379   6.3569   6.3936   6.4194
     6.4369   6.4524   6.4946   6.4970   6.5159   6.5596   6.5644   6.5983
     6.6125   6.6278   6.6398   6.6522   6.6758   6.6829   6.6993   6.7376
     6.7612   6.7673   6.8030   6.8167   6.8273   6.8776   6.8868   6.8925
     6.9298   6.9316   6.9452   6.9558   6.9657   7.0292   7.0319   7.0476
     7.0566   7.0844   7.0951   7.1235   7.1385   7.1497   7.1726   7.1819
     7.2057   7.2149   7.2227   7.2416   7.2491   7.2621   7.3036   7.3042
     7.3091   7.3423   7.3434   7.3699   7.3787   7.3936   7.4111   7.4184
     7.4719   7.4997   7.5045   7.5073   7.5334   7.5436   7.5560   7.5616
     7.5814   7.6009   7.6073   7.6487   7.6493   7.6764   7.6785   7.6905
     7.7018   7.7200   7.7229   7.7533   7.8109   7.8283   7.8438   7.8860
     7.8951   7.9148   7.9181   7.9225   7.9508   7.9635   7.9970   8.0004
     8.0328   8.0328   8.0472   8.0508   8.0651   8.0894   8.0957   8.1022
     8.1213   8.1457   8.1562   8.1784   8.2139   8.2297   8.2415   8.2480
     8.2835   8.3150   8.3604   8.3773   8.4147   8.4410   8.4778   8.4856
     8.5019   8.5055   8.5141   8.5306

          k = 0.0000 0.0000 0.0070 (147319 PWs)   bands (ev):

   -21.4888 -21.1929 -21.0453 -21.0117 -20.8165 -20.5807 -20.5363 -20.1813
   -20.0266 -20.0140 -19.9193 -19.8330 -19.7938 -19.4386 -19.3036 -19.1812
   -19.1740 -18.7858 -18.7031 -18.4872 -18.3642 -18.3061 -18.2558 -18.1359
   -17.9671 -17.8018 -17.6933 -17.4808 -17.4035 -17.4012 -17.2200 -17.1279
   -16.9322 -16.9269 -16.6533 -16.5799 -16.4045 -16.2943 -16.2533 -16.1345
   -16.0366 -15.9218 -15.6847 -15.1645 -15.0707 -14.9425 -14.8790 -14.8175
   -14.7318 -14.6074 -14.4627 -14.3381 -14.2292 -14.1259 -14.0141 -13.8624
   -13.7142 -13.5314 -13.4192 -13.0702 -13.0641 -13.0476 -12.9865 -12.8122
   -12.5885 -12.4127 -12.4008 -12.3371 -12.2127 -12.1824 -12.1166 -11.9418
   -11.7049 -11.6838 -11.4884 -11.3140 -11.2195 -11.1722 -11.1293 -10.8577
   -10.8441 -10.7301 -10.7079 -10.6052 -10.4243 -10.3970 -10.2691 -10.2028
   -10.0660  -9.9452  -9.8502  -9.7725  -9.6812  -9.5573  -9.5504  -9.5326
    -9.5231  -9.3767  -9.3722  -9.3283  -9.3034  -9.2188  -9.1483  -9.0620
    -9.0013  -8.9602  -8.9500  -8.8991  -8.8584  -8.7420  -8.6899  -8.6180
    -8.5764  -8.5741  -8.5086  -8.5037  -8.4936  -8.4678  -8.4417  -8.4216
    -8.3122  -8.2648  -8.1938  -8.1852  -8.1527  -8.0721  -8.0318  -7.8457
    -7.8436  -7.7585  -7.7526  -7.7301  -7.6574  -7.6148  -7.6035  -7.5683
    -7.3756  -7.3527  -7.2251  -7.1984  -7.1950  -7.0848  -7.0317  -7.0145
    -6.9233  -6.8877  -6.8508  -6.7314  -6.6935  -6.4448  -6.4306  -6.4216
    -6.3275  -6.2643  -6.1945  -6.1072  -6.0565  -5.9887  -5.9735  -5.8984
    -5.8952  -5.7851  -5.6097  -5.5789  -5.4432  -5.4204  -5.3048  -5.2207
    -5.2115  -5.1438  -4.9740  -4.9284  -4.8117  -4.7506  -4.6991  -4.6510
    -4.5624  -4.3020  -4.1756  -4.1246  -4.0060  -3.8691  -3.6064  -3.4226
    -3.2446  -2.3939  -1.9644  -1.1816  -0.8245  -0.7053  -0.6609  -0.4366
    -0.4161  -0.2579  -0.1568  -0.0703   0.1348   0.1520   0.4216   0.4790
     0.4835   0.7327   0.8237   0.8440   0.8848   1.1458   1.1597   1.2097
     1.2428   1.2520   1.3556   1.4115   1.4619   1.5405   1.5442   1.5857
     1.6718   1.6818   1.7929   1.8604   1.9259   1.9402   1.9755   1.9949
     2.0608   2.1663   2.2206   2.2446   2.3540   2.4105   2.4174   2.4436
     2.4798   2.5197   2.5448   2.6499   2.7296   2.7515   2.7542   2.7743
     2.8223   2.8335   2.8934   2.9351   2.9379   2.9718   3.0374   3.0527
     3.0719   3.1107   3.1286   3.1576   3.1848   3.1951   3.2056   3.2832
     3.2940   3.3193   3.3806   3.3997   3.4240   3.4339   3.4479   3.5257
     3.5381   3.5467   3.5835   3.6945   3.7511   3.7690   3.7705   3.7942
     3.8092   3.8136   3.8420   3.8587   3.9265   3.9555   3.9576   4.0103
     4.0233   4.1111   4.1220   4.1247   4.1664   4.2282   4.2391   4.2737
     4.3155   4.3175   4.3309   4.3676   4.3723   4.4022   4.4619   4.5156
     4.5305   4.5400   4.5504   4.5780   4.5985   4.6059   4.6184   4.6229
     4.6250   4.7255   4.7325   4.7597   4.7840   4.7993   4.8108   4.9179
     4.9200   4.9709   4.9736   4.9792   4.9824   5.0073   5.0331   5.0425
     5.0640   5.0689   5.0839   5.1163   5.1268   5.2084   5.2302   5.2946
     5.2965   5.3083   5.3243   5.3433   5.4157   5.4267   5.4501   5.4580
     5.4707   5.5031   5.5068   5.5075   5.5174   5.5697   5.6011   5.6311
     5.6405   5.6443   5.6581   5.6996   5.7001   5.7350   5.7436   5.7488
     5.7705   5.8007   5.8037   5.8344   5.8520   5.9338   5.9527   5.9583
     5.9896   5.9928   6.0439   6.0444   6.0849   6.0992   6.1279   6.1378
     6.1655   6.1910   6.2047   6.2401   6.2462   6.2521   6.2750   6.2759
     6.2839   6.2919   6.3074   6.3153   6.3362   6.3794   6.3975   6.4280
     6.4348   6.4430   6.5034   6.5157   6.5203   6.5577   6.5670   6.5685
     6.5900   6.6144   6.6401   6.6663   6.6684   6.6934   6.6970   6.7542
     6.7695   6.7811   6.8034   6.8128   6.8142   6.8593   6.8643   6.8882
     6.8960   6.9147   6.9422   6.9465   6.9615   7.0226   7.0230   7.0434
     7.0438   7.0533   7.0748   7.1337   7.1516   7.1646   7.1705   7.1760
     7.2148   7.2167   7.2231   7.2407   7.2482   7.2744   7.3020   7.3105
     7.3254   7.3388   7.3425   7.3536   7.3631   7.3923   7.4189   7.4215
     7.4919   7.4974   7.5106   7.5248   7.5345   7.5492   7.5616   7.5624
     7.5840   7.5918   7.6154   7.6543   7.6583   7.6786   7.6817   7.6898
     7.6902   7.7341   7.7488   7.7728   7.8095   7.8354   7.8357   7.8769
     7.8930   7.9101   7.9357   7.9459   7.9516   7.9774   7.9822   8.0071
     8.0159   8.0361   8.0431   8.0578   8.0695   8.0809   8.1013   8.1107
     8.1235   8.1435   8.1677   8.1810   8.2044   8.2368   8.2481   8.2621
     8.2899   8.2922   8.3498   8.3571   8.4033   8.4273   8.4707   8.4713
     8.5084   8.5099   8.5197   8.5218

          k = 0.0000 0.0000 0.0082 (147293 PWs)   bands (ev):

   -21.4873 -21.2041 -21.0437 -20.9968 -20.8229 -20.5808 -20.5267 -20.2047
   -20.0340 -20.0187 -19.9074 -19.8394 -19.7678 -19.4396 -19.3151 -19.1742
   -19.1591 -18.7830 -18.7043 -18.5186 -18.3648 -18.3177 -18.2594 -18.1395
   -17.9281 -17.8142 -17.6913 -17.4827 -17.4067 -17.3678 -17.2274 -17.1393
   -16.9240 -16.9217 -16.6522 -16.5675 -16.4158 -16.3195 -16.2481 -16.1433
   -16.0325 -15.9261 -15.7050 -15.1710 -15.0559 -14.9348 -14.8729 -14.8126
   -14.7012 -14.6085 -14.4721 -14.3486 -14.2198 -14.1133 -14.0112 -13.8690
   -13.7012 -13.5348 -13.4072 -13.1297 -13.0906 -13.0575 -12.9974 -12.8278
   -12.6047 -12.4004 -12.3971 -12.2774 -12.2017 -12.1608 -12.0936 -11.9540
   -11.7258 -11.6769 -11.4701 -11.2914 -11.2403 -11.1878 -11.1499 -10.8463
   -10.8338 -10.7515 -10.6973 -10.6048 -10.4245 -10.3854 -10.2409 -10.1945
   -10.0913  -9.9800  -9.8596  -9.7954  -9.6969  -9.5590  -9.5482  -9.5350
    -9.5265  -9.3697  -9.3592  -9.3154  -9.2860  -9.2327  -9.1160  -9.0604
    -8.9832  -8.9681  -8.9661  -8.9066  -8.8777  -8.7510  -8.6940  -8.6266
    -8.5792  -8.5754  -8.5086  -8.4952  -8.4776  -8.4546  -8.4354  -8.4056
    -8.3049  -8.2596  -8.1974  -8.1721  -8.1545  -8.0785  -8.0582  -7.8557
    -7.8489  -7.7447  -7.7421  -7.7162  -7.6621  -7.6203  -7.6137  -7.5374
    -7.3782  -7.3709  -7.2219  -7.2054  -7.1941  -7.0773  -7.0464  -7.0036
    -6.9322  -6.8798  -6.8373  -6.7675  -6.6991  -6.4413  -6.4285  -6.4153
    -6.3404  -6.2504  -6.1820  -6.1439  -6.0453  -6.0030  -5.9745  -5.9013
    -5.8890  -5.7795  -5.6079  -5.5400  -5.4472  -5.4421  -5.3031  -5.2264
    -5.2106  -5.1488  -4.9402  -4.9280  -4.8180  -4.7552  -4.6955  -4.6512
    -4.5627  -4.3178  -4.1855  -4.1104  -4.0056  -3.8642  -3.6001  -3.4229
    -3.2548  -2.4301  -1.9313  -1.1747  -0.8238  -0.7091  -0.6539  -0.4333
    -0.4114  -0.2560  -0.1444  -0.0758   0.1221   0.1423   0.4260   0.4844
     0.4960   0.7055   0.8244   0.8464   0.8872   1.1093   1.1598   1.1970
     1.2365   1.2569   1.3204   1.4282   1.4795   1.5278   1.5444   1.5637
     1.6761   1.7012   1.8137   1.8809   1.9238   1.9371   1.9649   2.0521
     2.0596   2.1872   2.2141   2.2625   2.3533   2.4087   2.4157   2.4451
     2.4623   2.4970   2.5476   2.6432   2.7474   2.7474   2.7589   2.7779
     2.8154   2.8227   2.9018   2.9216   2.9307   2.9564   3.0505   3.0532
     3.0640   3.1110   3.1251   3.1565   3.1733   3.1852   3.2223   3.2937
     3.2964   3.3009   3.3537   3.4176   3.4550   3.4619   3.4693   3.5130
     3.5297   3.5399   3.5865   3.7015   3.7445   3.7480   3.7529   3.8097
     3.8168   3.8269   3.8536   3.8791   3.9289   3.9580   3.9622   4.0107
     4.0183   4.1010   4.1284   4.1333   4.1473   4.2405   4.2538   4.2612
     4.2973   4.3000   4.3298   4.3504   4.3579   4.3760   4.4829   4.5117
     4.5167   4.5262   4.5284   4.5849   4.5902   4.6071   4.6096   4.6109
     4.6291   4.7075   4.7337   4.7901   4.7949   4.8199   4.8280   4.9142
     4.9430   4.9468   4.9521   4.9803   4.9809   5.0199   5.0252   5.0543
     5.0718   5.0781   5.0867   5.1487   5.1531   5.2179   5.2318   5.2685
     5.2881   5.3139   5.3283   5.3495   5.3856   5.4082   5.4424   5.4695
     5.4839   5.4913   5.4959   5.5242   5.5510   5.5692   5.5825   5.6324
     5.6354   5.6423   5.6491   5.6589   5.6831   5.7382   5.7413   5.7440
     5.7754   5.7972   5.8026   5.8260   5.8510   5.9425   5.9577   5.9580
     5.9847   6.0196   6.0263   6.0479   6.0865   6.1123   6.1220   6.1365
     6.1900   6.1920   6.2152   6.2378   6.2514   6.2662   6.2693   6.2738
     6.3054   6.3064   6.3179   6.3200   6.3403   6.3941   6.4068   6.4326
     6.4339   6.4492   6.4939   6.5235   6.5312   6.5458   6.5468   6.5787
     6.5835   6.5964   6.6406   6.6619   6.6715   6.7000   6.7035   6.7571
     6.7672   6.7757   6.7920   6.7986   6.8438   6.8440   6.8564   6.8570
     6.8819   6.9081   6.9386   6.9410   6.9527   6.9924   7.0019   7.0240
     7.0495   7.0505   7.0662   7.1433   7.1492   7.1650   7.1759   7.1828
     7.2165   7.2181   7.2247   7.2255   7.2605   7.2689   7.2938   7.3064
     7.3378   7.3378   7.3394   7.3530   7.3818   7.3888   7.4209   7.4260
     7.4770   7.5065   7.5119   7.5289   7.5376   7.5644   7.5683   7.5727
     7.5823   7.6064   7.6348   7.6402   7.6539   7.6637   7.6792   7.7101
     7.7253   7.7471   7.7486   7.8063   7.8169   7.8198   7.8492   7.8718
     7.8759   7.9047   7.9334   7.9430   7.9525   7.9799   7.9934   8.0128
     8.0141   8.0241   8.0437   8.0459   8.0722   8.0790   8.1169   8.1374
     8.1458   8.1535   8.1714   8.1846   8.2061   8.2316   8.2643   8.2655
     8.2740   8.3055   8.3217   8.3600   8.3976   8.4053   8.4505   8.4540
     8.4883   8.5037   8.5063   8.5320

          k = 0.0000 0.0000 0.0094 (147291 PWs)   bands (ev):

   -21.4855 -21.2151 -21.0419 -20.9815 -20.8299 -20.5809 -20.5161 -20.2283
   -20.0413 -20.0244 -19.8955 -19.8461 -19.7409 -19.4405 -19.3267 -19.1676
   -19.1425 -18.7798 -18.7057 -18.5531 -18.3614 -18.3297 -18.2644 -18.1449
   -17.8903 -17.8231 -17.6883 -17.4866 -17.4102 -17.3322 -17.2348 -17.1513
   -16.9207 -16.9105 -16.6517 -16.5551 -16.4274 -16.3458 -16.2432 -16.1534
   -16.0291 -15.9302 -15.7253 -15.1889 -15.0284 -14.9261 -14.8666 -14.8081
   -14.6677 -14.6095 -14.4821 -14.3614 -14.2080 -14.1001 -14.0100 -13.8732
   -13.6881 -13.5379 -13.3948 -13.1889 -13.1205 -13.0684 -13.0096 -12.8444
   -12.6193 -12.3930 -12.3872 -12.2191 -12.1903 -12.1385 -12.0698 -11.9644
   -11.7462 -11.6705 -11.4499 -11.2689 -11.2605 -11.2029 -11.1716 -10.8631
   -10.8090 -10.7582 -10.6955 -10.5959 -10.4253 -10.3730 -10.2150 -10.1906
   -10.1191 -10.0114  -9.8659  -9.8197  -9.7124  -9.5683  -9.5457  -9.5342
    -9.5282  -9.3635  -9.3462  -9.2979  -9.2693  -9.2465  -9.0944  -9.0586
    -8.9804  -8.9769  -8.9647  -8.9138  -8.8878  -8.7604  -8.6993  -8.6365
    -8.5825  -8.5764  -8.5087  -8.4924  -8.4597  -8.4404  -8.4315  -8.3890
    -8.2934  -8.2519  -8.2037  -8.1575  -8.1570  -8.0851  -8.0809  -7.8652
    -7.8552  -7.7328  -7.7297  -7.7022  -7.6664  -7.6266  -7.6241  -7.5055
    -7.3911  -7.3810  -7.2182  -7.2161  -7.1899  -7.0707  -7.0613  -6.9933
    -6.9404  -6.8725  -6.8219  -6.8034  -6.7055  -6.4374  -6.4263  -6.4106
    -6.3540  -6.2375  -6.1827  -6.1690  -6.0319  -6.0176  -5.9728  -5.9058
    -5.8825  -5.7752  -5.6058  -5.5025  -5.4612  -5.4516  -5.3004  -5.2330
    -5.2097  -5.1544  -4.9275  -4.9058  -4.8247  -4.7609  -4.6915  -4.6510
    -4.5628  -4.3344  -4.1959  -4.0967  -4.0063  -3.8584  -3.5924  -3.4233
    -3.2662  -2.4662  -1.8988  -1.1675  -0.8222  -0.7143  -0.6465  -0.4294
    -0.4045  -0.2536  -0.1311  -0.0823   0.1096   0.1319   0.4286   0.4871
     0.5122   0.6789   0.8251   0.8492   0.8899   1.0685   1.1574   1.1875
     1.2213   1.2693   1.2892   1.4449   1.4963   1.5116   1.5427   1.5498
     1.6811   1.7217   1.8346   1.9009   1.9079   1.9498   1.9540   2.0595
     2.1086   2.2060   2.2083   2.2803   2.3522   2.4008   2.4215   2.4429
     2.4478   2.4770   2.5505   2.6356   2.7413   2.7612   2.7652   2.7822
     2.8110   2.8119   2.8669   2.9297   2.9407   2.9489   3.0475   3.0547
     3.0650   3.0940   3.1399   3.1504   3.1717   3.1770   3.2376   3.2675
     3.2999   3.3004   3.3486   3.4339   3.4766   3.4870   3.5009   3.5010
     3.5168   3.5430   3.5901   3.6902   3.7241   3.7333   3.7446   3.8226
     3.8286   3.8392   3.8701   3.9113   3.9310   3.9609   3.9665   3.9998
     4.0140   4.0898   4.1024   4.1399   4.1680   4.2442   4.2593   4.2652
     4.2687   4.2830   4.3337   4.3413   4.3458   4.3469   4.4832   4.4852
     4.5085   4.5134   4.5367   4.5599   4.5700   4.5977   4.6189   4.6266
     4.6490   4.6835   4.7392   4.8088   4.8210   4.8463   4.8473   4.9082
     4.9102   4.9200   4.9746   4.9774   4.9909   4.9967   5.0429   5.0648
     5.0756   5.0921   5.0980   5.1862   5.1864   5.1894   5.2424   5.2523
     5.2803   5.3057   5.3551   5.3582   5.3608   5.3859   5.4272   5.4710
     5.4815   5.4835   5.5110   5.5275   5.5590   5.5698   5.5977   5.6220
     5.6232   5.6244   5.6399   5.6462   5.6731   5.7091   5.7372   5.7523
     5.7958   5.7995   5.8009   5.8146   5.8667   5.9377   5.9589   5.9611
     5.9767   6.0226   6.0233   6.0530   6.0878   6.1184   6.1277   6.1408
     6.1861   6.1976   6.2327   6.2422   6.2498   6.2542   6.2793   6.2940
     6.3015   6.3086   6.3435   6.3505   6.3532   6.3954   6.4172   6.4351
     6.4427   6.4698   6.4788   6.4852   6.5284   6.5399   6.5592   6.5749
     6.5863   6.6051   6.6407   6.6570   6.6661   6.7020   6.7209   6.7312
     6.7667   6.7712   6.7737   6.7954   6.8143   6.8384   6.8461   6.8716
     6.8762   6.9129   6.9341   6.9362   6.9404   6.9651   6.9718   7.0242
     7.0345   7.0556   7.0833   7.1253   7.1479   7.1722   7.1845   7.1891
     7.1944   7.2117   7.2135   7.2244   7.2557   7.2711   7.3027   7.3053
     7.3319   7.3459   7.3489   7.3691   7.3810   7.3970   7.4189   7.4333
     7.4683   7.4892   7.4977   7.5361   7.5528   7.5616   7.5832   7.5838
     7.6225   7.6227   7.6258   7.6455   7.6545   7.6572   7.6728   7.7300
     7.7495   7.7607   7.7736   7.7938   7.8007   7.8242   7.8703   7.8778
     7.8843   7.8941   7.8974   7.9335   7.9539   7.9638   8.0067   8.0083
     8.0149   8.0293   8.0390   8.0599   8.0818   8.0895   8.1334   8.1626
     8.1634   8.1671   8.1753   8.2053   8.2126   8.2250   8.2392   8.2687
     8.2782   8.2934   8.3288   8.3648   8.3823   8.4035   8.4345   8.4438
     8.4663   8.4846   8.4980   8.5144

          k = 0.0000 0.0000 0.0106 (147327 PWs)   bands (ev):

   -21.4835 -21.2260 -21.0398 -20.9659 -20.8371 -20.5810 -20.5047 -20.2519
   -20.0482 -20.0311 -19.8837 -19.8527 -19.7133 -19.4415 -19.3383 -19.1614
   -19.1245 -18.7763 -18.7072 -18.5891 -18.3555 -18.3421 -18.2711 -18.1518
   -17.8545 -17.8284 -17.6834 -17.4915 -17.4140 -17.2954 -17.2420 -17.1637
   -16.9170 -16.8988 -16.6518 -16.5444 -16.4392 -16.3715 -16.2387 -16.1652
   -16.0266 -15.9340 -15.7447 -15.2125 -14.9939 -14.9162 -14.8600 -14.8040
   -14.6330 -14.6092 -14.4926 -14.3759 -14.1951 -14.0859 -14.0109 -13.8745
   -13.6751 -13.5407 -13.3824 -13.2475 -13.1535 -13.0799 -13.0228 -12.8615
   -12.6323 -12.3882 -12.3733 -12.1889 -12.1536 -12.1158 -12.0459 -11.9718
   -11.7660 -11.6649 -11.4276 -11.2798 -11.2510 -11.2132 -11.1941 -10.8914
   -10.7837 -10.7532 -10.7008 -10.5805 -10.4267 -10.3594 -10.1958 -10.1927
   -10.1488 -10.0341  -9.8686  -9.8437  -9.7287  -9.5803  -9.5429  -9.5344
    -9.5288  -9.3589  -9.3331  -9.2768  -9.2601  -9.2538  -9.0894  -9.0565
    -8.9893  -8.9869  -8.9458  -8.9201  -8.8857  -8.7700  -8.7053  -8.6473
    -8.5866  -8.5767  -8.5088  -8.4954  -8.4410  -8.4288  -8.4254  -8.3721
    -8.2784  -8.2421  -8.2136  -8.1577  -8.1409  -8.1122  -8.0803  -7.8742
    -7.8627  -7.7257  -7.7141  -7.6880  -7.6696  -7.6345  -7.6334  -7.4729
    -7.4131  -7.3840  -7.2272  -7.2142  -7.1859  -7.0763  -7.0658  -6.9844
    -6.9467  -6.8657  -6.8387  -6.8048  -6.7124  -6.4330  -6.4239  -6.4069
    -6.3683  -6.2261  -6.2225  -6.1556  -6.0323  -6.0166  -5.9696  -5.9119
    -5.8757  -5.7725  -5.6033  -5.4773  -5.4670  -5.4564  -5.2960  -5.2404
    -5.2088  -5.1605  -4.9269  -4.8710  -4.8316  -4.7677  -4.6871  -4.6504
    -4.5627  -4.3518  -4.2067  -4.0838  -4.0082  -3.8518  -3.5833  -3.4237
    -3.2786  -2.5023  -1.8669  -1.1600  -0.8193  -0.7209  -0.6391  -0.4248
    -0.3953  -0.2507  -0.1172  -0.0898   0.0974   0.1211   0.4291   0.4919
     0.5254   0.6554   0.8258   0.8524   0.8930   1.0245   1.1502   1.1832
     1.2064   1.2615   1.2794   1.4612   1.4958   1.5114   1.5232   1.5574
     1.6870   1.7431   1.8551   1.8924   1.9202   1.9436   1.9640   2.0602
     2.1635   2.1963   2.2294   2.2973   2.3507   2.3940   2.4223   2.4280
     2.4524   2.4600   2.5534   2.6271   2.7333   2.7608   2.7789   2.7909
     2.8013   2.8091   2.8323   2.9245   2.9334   2.9762   3.0434   3.0440
     3.0606   3.0900   3.1412   3.1545   3.1699   3.1784   3.2419   3.2424
     3.2904   3.3045   3.3655   3.4475   3.4858   3.4894   3.4990   3.5226
     3.5399   3.5485   3.5941   3.6695   3.7002   3.7196   3.7392   3.8271
     3.8447   3.8614   3.8895   3.9324   3.9414   3.9640   3.9706   3.9955
     4.0001   4.0510   4.1103   4.1465   4.1830   4.2232   4.2392   4.2659
     4.2817   4.2832   4.3115   4.3177   4.3266   4.3638   4.4512   4.4692
     4.4955   4.5071   4.5385   4.5479   4.5597   4.5877   4.6289   4.6489
     4.6610   4.6693   4.7439   4.8239   4.8513   4.8663   4.8686   4.8811
     4.8889   4.9066   4.9603   4.9838   5.0027   5.0033   5.0524   5.0725
     5.0731   5.1052   5.1230   5.1494   5.2215   5.2232   5.2311   5.2580
     5.2795   5.2983   5.3336   5.3650   5.3713   5.3813   5.4120   5.4705
     5.4715   5.4791   5.5235   5.5244   5.5284   5.5686   5.5971   5.6145
     5.6197   5.6232   5.6448   5.6513   5.6766   5.6808   5.7200   5.7644
     5.7861   5.7992   5.8243   5.8275   5.8759   5.9338   5.9539   5.9594
     5.9674   6.0055   6.0310   6.0634   6.0893   6.1178   6.1219   6.1716
     6.1723   6.2000   6.2356   6.2465   6.2498   6.2499   6.2905   6.3019
     6.3144   6.3180   6.3663   6.3687   6.3884   6.3944   6.4257   6.4366
     6.4394   6.4513   6.4782   6.5002   6.5058   6.5367   6.5411   6.5799
     6.5999   6.6359   6.6398   6.6538   6.6562   6.7004   6.7032   6.7408
     6.7430   6.7551   6.7683   6.7716   6.8124   6.8343   6.8388   6.8516
     6.8982   6.9084   6.9110   6.9400   6.9446   6.9451   6.9577   7.0196
     7.0357   7.0642   7.0868   7.1172   7.1520   7.1541   7.1657   7.1744
     7.1853   7.2038   7.2138   7.2334   7.2656   7.2781   7.3048   7.3053
     7.3268   7.3519   7.3623   7.3642   7.3895   7.4071   7.4142   7.4457
     7.4723   7.4748   7.4835   7.5349   7.5546   7.5581   7.6010   7.6105
     7.6172   7.6243   7.6394   7.6607   7.6631   7.6712   7.6824   7.7459
     7.7505   7.7712   7.7737   7.7934   7.8173   7.8205   7.8547   7.8591
     7.8722   7.8918   7.9049   7.9296   7.9523   7.9771   7.9926   8.0136
     8.0153   8.0269   8.0701   8.0735   8.0905   8.1059   8.1348   8.1711
     8.1820   8.1825   8.1984   8.2067   8.2171   8.2187   8.2528   8.2558
     8.2658   8.2836   8.3448   8.3691   8.3717   8.4130   8.4168   8.4398
     8.4466   8.4649   8.4692   8.4850

          k = 0.0000 0.0000 0.0117 (147325 PWs)   bands (ev):

   -21.4813 -21.2365 -21.0375 -20.9499 -20.8446 -20.5812 -20.4926 -20.2753
   -20.0548 -20.0388 -19.8719 -19.8592 -19.6852 -19.4425 -19.3498 -19.1557
   -19.1052 -18.7725 -18.7090 -18.6256 -18.3546 -18.3481 -18.2800 -18.1596
   -17.8302 -17.8222 -17.6751 -17.4972 -17.4180 -17.2578 -17.2489 -17.1763
   -16.9131 -16.8868 -16.6524 -16.5385 -16.4510 -16.3937 -16.2345 -16.1788
   -16.0253 -15.9371 -15.7624 -15.2390 -14.9553 -14.9053 -14.8531 -14.8004
   -14.6167 -14.5888 -14.5033 -14.3916 -14.1820 -14.0704 -14.0140 -13.8731
   -13.6621 -13.5434 -13.3712 -13.3044 -13.1893 -13.0920 -13.0370 -12.8789
   -12.6438 -12.3827 -12.3590 -12.1837 -12.0955 -12.0930 -12.0224 -11.9749
   -11.7847 -11.6602 -11.4033 -11.2981 -11.2515 -11.2169 -11.2049 -10.9250
   -10.7582 -10.7427 -10.7099 -10.5630 -10.4287 -10.3443 -10.2137 -10.1817
   -10.1731 -10.0441  -9.8672  -9.8668  -9.7456  -9.5934  -9.5398  -9.5362
    -9.5288  -9.3570  -9.3199  -9.2734  -9.2527  -9.2399  -9.0997  -9.0543
    -8.9982  -8.9929  -8.9264  -8.9252  -8.8718  -8.7796  -8.7114  -8.6587
    -8.5917  -8.5758  -8.5089  -8.5031  -8.4266  -8.4229  -8.4096  -8.3558
    -8.2616  -8.2306  -8.2257  -8.1553  -8.1394  -8.1223  -8.0778  -7.8826
    -7.8715  -7.7219  -7.6986  -7.6738  -7.6708  -7.6446  -7.6401  -7.4397
    -7.4365  -7.3870  -7.2387  -7.2102  -7.1822  -7.0914  -7.0635  -6.9778
    -6.9498  -6.8721  -6.8595  -6.7861  -6.7198  -6.4283  -6.4216  -6.4040
    -6.3831  -6.2627  -6.2165  -6.1420  -6.0471  -5.9997  -5.9654  -5.9197
    -5.8688  -5.7716  -5.6003  -5.4899  -5.4616  -5.4349  -5.2886  -5.2487
    -5.2078  -5.1672  -4.9262  -4.8387  -4.8362  -4.7752  -4.6824  -4.6495
    -4.5623  -4.3700  -4.2177  -4.0716  -4.0113  -3.8446  -3.5728  -3.4243
    -3.2917  -2.5381  -1.8357  -1.1527  -0.8152  -0.7289  -0.6319  -0.4193
    -0.3837  -0.2472  -0.1027  -0.0983   0.0857   0.1099   0.4275   0.4986
     0.5310   0.6397   0.8262   0.8560   0.8964   0.9782   1.1394   1.1834
     1.1918   1.2366   1.2863   1.4748   1.4827   1.5058   1.5239   1.5681
     1.6935   1.7649   1.8738   1.8774   1.9352   1.9389   1.9797   2.0616
     2.1849   2.2159   2.2506   2.3114   2.3487   2.3885   2.4029   2.4349
     2.4455   2.4600   2.5564   2.6178   2.7238   2.7576   2.7817   2.7913
     2.8012   2.8081   2.8093   2.9090   2.9405   3.0019   3.0332   3.0382
     3.0433   3.0923   3.1368   3.1625   3.1687   3.1888   3.2201   3.2238
     3.2994   3.3107   3.3866   3.4575   3.4719   3.4788   3.5215   3.5414
     3.5565   3.5767   3.5982   3.6482   3.6772   3.7046   3.7345   3.8244
     3.8716   3.8827   3.9104   3.9317   3.9532   3.9666   3.9747   3.9839
     4.0115   4.0130   4.1142   4.1598   4.1796   4.1990   4.2289   4.2502
     4.2755   4.2967   4.3024   4.3084   4.3090   4.3821   4.4211   4.4440
     4.4766   4.5071   4.5249   4.5255   4.5797   4.5853   4.6400   4.6405
     4.6696   4.6886   4.7502   4.8389   4.8394   4.8509   4.8793   4.8940
     4.9048   4.9078   4.9302   4.9826   5.0167   5.0323   5.0588   5.0621
     5.0787   5.1102   5.1137   5.1578   5.2160   5.2451   5.2575   5.2623
     5.2791   5.2933   5.3258   5.3501   5.3858   5.3920   5.3969   5.4567
     5.4696   5.4880   5.4945   5.5116   5.5168   5.5657   5.5789   5.5927
     5.6196   5.6382   5.6550   5.6573   5.6800   5.6922   5.7041   5.7745
     5.7780   5.7950   5.8487   5.8495   5.8744   5.9334   5.9458   5.9581
     5.9585   5.9838   6.0393   6.0747   6.0913   6.1080   6.1329   6.1554
     6.1857   6.1955   6.2404   6.2494   6.2502   6.2578   6.2766   6.3210
     6.3337   6.3384   6.3828   6.3898   6.3904   6.3965   6.4316   6.4355
     6.4476   6.4582   6.4728   6.4802   6.5052   6.5342   6.5440   6.5916
     6.6166   6.6362   6.6441   6.6519   6.6644   6.6727   6.6976   6.7107
     6.7315   6.7345   6.7659   6.7711   6.8155   6.8214   6.8291   6.8514
     6.8883   6.8999   6.9122   6.9157   6.9504   6.9520   6.9596   7.0091
     7.0575   7.0697   7.0736   7.1107   7.1307   7.1347   7.1573   7.1578
     7.1745   7.2184   7.2207   7.2456   7.2688   7.2815   7.3004   7.3113
     7.3242   7.3352   7.3502   7.3870   7.4076   7.4108   7.4127   7.4604
     7.4699   7.4731   7.4868   7.5350   7.5421   7.5546   7.5968   7.6108
     7.6231   7.6282   7.6559   7.6748   7.6814   7.6947   7.7168   7.7444
     7.7513   7.7725   7.7731   7.7863   7.8053   7.8219   7.8297   7.8632
     7.8684   7.8710   7.9120   7.9362   7.9789   7.9890   7.9939   8.0171
     8.0171   8.0353   8.0850   8.0971   8.1011   8.1183   8.1330   8.1737
     8.1785   8.1841   8.1997   8.2105   8.2203   8.2327   8.2505   8.2548
     8.2857   8.2916   8.3456   8.3682   8.3771   8.3772   8.4064   8.4166
     8.4453   8.4532   8.4754   8.4755

          k = 0.0000 0.0000 0.0129 (147299 PWs)   bands (ev):

   -21.4790 -21.2468 -21.0350 -20.9336 -20.8522 -20.5816 -20.4800 -20.2985
   -20.0611 -20.0476 -19.8653 -19.8601 -19.6569 -19.4434 -19.3610 -19.1503
   -19.0847 -18.7685 -18.7113 -18.6619 -18.3673 -18.3395 -18.2913 -18.1676
   -17.8289 -17.7958 -17.6615 -17.5036 -17.4221 -17.2553 -17.2196 -17.1889
   -16.9088 -16.8746 -16.6536 -16.5417 -16.4629 -16.4078 -16.2307 -16.1944
   -16.0254 -15.9395 -15.7778 -15.2672 -14.9145 -14.8928 -14.8459 -14.7971
   -14.6173 -14.5502 -14.5136 -14.4081 -14.1696 -14.0535 -14.0192 -13.8693
   -13.6491 -13.5462 -13.3769 -13.3439 -13.2274 -13.1043 -13.0519 -12.8963
   -12.6539 -12.3765 -12.3447 -12.1836 -12.0705 -12.0370 -11.9997 -11.9729
   -11.8017 -11.6562 -11.3772 -11.3152 -11.2651 -11.2399 -11.1835 -10.9606
   -10.7349 -10.7302 -10.7186 -10.5468 -10.4316 -10.3275 -10.2419 -10.2130
   -10.1609 -10.0430  -9.8880  -9.8614  -9.7630  -9.6070  -9.5391  -9.5363
    -9.5285  -9.3588  -9.3069  -9.2864  -9.2293  -9.2265  -9.1164  -9.0519
    -9.0111  -8.9939  -8.9289  -8.9068  -8.8508  -8.7892  -8.7176  -8.6703
    -8.5976  -8.5738  -8.5138  -8.5092  -8.4240  -8.4068  -8.3931  -8.3418
    -8.2448  -8.2368  -8.2171  -8.1664  -8.1500  -8.1017  -8.0743  -7.8904
    -7.8816  -7.7221  -7.6852  -7.6693  -7.6595  -7.6541  -7.6450  -7.4610
    -7.4061  -7.3900  -7.2510  -7.2068  -7.1789  -7.1065  -7.0643  -6.9767
    -6.9490  -6.9004  -6.8539  -6.7660  -6.7278  -6.4231  -6.4194  -6.4016
    -6.3984  -6.3030  -6.2085  -6.1283  -6.0619  -5.9816  -5.9604  -5.9294
    -5.8618  -5.7724  -5.5967  -5.4986  -5.4671  -5.4079  -5.2766  -5.2577
    -5.2068  -5.1743  -4.9254  -4.8459  -4.8015  -4.7832  -4.6775  -4.6483
    -4.5618  -4.3892  -4.2289  -4.0605  -4.0156  -3.8367  -3.5608  -3.4249
    -3.3055  -2.5736  -1.8054  -1.1456  -0.8095  -0.7382  -0.6249  -0.4132
    -0.3698  -0.2433  -0.1076  -0.0878   0.0745   0.0986   0.4240   0.5066
     0.5239   0.6373   0.8263   0.8599   0.9001   0.9310   1.1269   1.1776
     1.1859   1.2139   1.2893   1.4637   1.4909   1.4942   1.5334   1.5823
     1.7008   1.7871   1.8629   1.8869   1.9330   1.9568   1.9967   2.0635
     2.1718   2.2641   2.2718   2.3178   2.3462   2.3844   2.3897   2.4335
     2.4423   2.4720   2.5594   2.6077   2.7136   2.7522   2.7588   2.7819
     2.7944   2.8110   2.8275   2.8935   2.9513   3.0116   3.0243   3.0317
     3.0366   3.0873   3.1404   3.1521   3.1822   3.1962   3.2022   3.2033
     3.3181   3.3187   3.4076   3.4563   3.4633   3.4690   3.5445   3.5615
     3.5667   3.5981   3.6019   3.6415   3.6566   3.6893   3.7319   3.8209
     3.9002   3.9008   3.9259   3.9318   3.9486   3.9613   3.9721   3.9791
     3.9851   4.0452   4.1120   4.1562   4.1725   4.1799   4.2351   4.2362
     4.2380   4.2876   4.2906   4.3131   4.3337   4.3928   4.3964   4.4144
     4.4612   4.5035   4.5082   4.5179   4.5732   4.6110   4.6205   4.6530
     4.6860   4.7053   4.7602   4.8097   4.8195   4.8520   4.8925   4.8986
     4.9172   4.9172   4.9372   4.9806   5.0339   5.0390   5.0604   5.0647
     5.0812   5.0925   5.1141   5.1933   5.2046   5.2259   5.2665   5.2679
     5.2979   5.3019   5.3339   5.3504   5.3818   5.3918   5.3972   5.4418
     5.4647   5.4682   5.4899   5.4994   5.5039   5.5630   5.5652   5.5686
     5.6284   5.6349   5.6607   5.6633   5.6716   5.7039   5.7396   5.7617
     5.7893   5.7922   5.8649   5.8685   5.8747   5.9272   5.9430   5.9468
     5.9522   5.9782   6.0448   6.0841   6.0941   6.1014   6.1234   6.1676
     6.1769   6.1903   6.2288   6.2480   6.2483   6.2656   6.2951   6.3276
     6.3522   6.3561   6.3626   6.3876   6.4037   6.4039   6.4441   6.4578
     6.4581   6.4674   6.4703   6.4708   6.4822   6.5530   6.5667   6.6061
     6.6247   6.6296   6.6324   6.6400   6.6499   6.6814   6.6827   6.6986
     6.7003   6.7124   6.7627   6.7732   6.8145   6.8200   6.8229   6.8656
     6.8756   6.8911   6.8945   6.9193   6.9447   6.9597   6.9625   7.0092
     7.0566   7.0685   7.0787   7.0872   7.0969   7.1406   7.1479   7.1577
     7.1679   7.2285   7.2336   7.2507   7.2604   7.2840   7.3019   7.3134
     7.3182   7.3239   7.3434   7.3991   7.4135   7.4154   7.4316   7.4580
     7.4655   7.4900   7.5075   7.5272   7.5375   7.5414   7.5730   7.6088
     7.6302   7.6417   7.6713   7.6824   7.7061   7.7114   7.7429   7.7468
     7.7522   7.7592   7.7752   7.7830   7.7921   7.7923   7.8338   7.8349
     7.8597   7.9002   7.9348   7.9615   7.9754   7.9937   8.0080   8.0184
     8.0264   8.0643   8.0950   8.1039   8.1111   8.1240   8.1392   8.1530
     8.1690   8.1900   8.2072   8.2113   8.2116   8.2253   8.2678   8.2776
     8.2859   8.3330   8.3339   8.3431   8.3590   8.3839   8.4013   8.4077
     8.4269   8.4448   8.4894   8.5010

          k = 0.0000 0.0000 0.0141 (147253 PWs)   bands (ev):

   -21.4764 -21.2568 -21.0323 -20.9172 -20.8599 -20.5820 -20.4668 -20.3213
   -20.0669 -20.0575 -19.8710 -19.8485 -19.6286 -19.4443 -19.3717 -19.1454
   -19.0634 -18.7643 -18.7175 -18.6944 -18.3801 -18.3303 -18.3052 -18.1749
   -17.8251 -17.7770 -17.6407 -17.5106 -17.4260 -17.2612 -17.2011 -17.1810
   -16.9042 -16.8625 -16.6554 -16.5568 -16.4745 -16.4111 -16.2283 -16.2114
   -16.0268 -15.9410 -15.7903 -15.2964 -14.8840 -14.8672 -14.8385 -14.7940
   -14.6194 -14.5267 -14.5061 -14.4252 -14.1583 -14.0351 -14.0259 -13.8636
   -13.6361 -13.5497 -13.4260 -13.3391 -13.2674 -13.1165 -13.0675 -12.9134
   -12.6627 -12.3696 -12.3310 -12.1872 -12.0493 -11.9801 -11.9781 -11.9653
   -11.8162 -11.6527 -11.3496 -11.3309 -11.2810 -11.2630 -11.1597 -10.9965
   -10.7360 -10.7170 -10.7035 -10.5348 -10.4356 -10.3108 -10.2723 -10.2460
   -10.1526 -10.0362  -9.9064  -9.8513  -9.7804  -9.6204  -9.5424  -9.5326
    -9.5284  -9.3652  -9.2992  -9.2945  -9.2253  -9.1987  -9.1303  -9.0493
    -9.0254  -8.9925  -8.9310  -8.8869  -8.8283  -8.7987  -8.7237  -8.6818
    -8.6044  -8.5713  -8.5255  -8.5096  -8.4201  -8.3941  -8.3762  -8.3330
    -8.2419  -8.2301  -8.2008  -8.1932  -8.1420  -8.0795  -8.0704  -7.8978
    -7.8930  -7.7256  -7.6793  -7.6658  -7.6628  -7.6452  -7.6430  -7.4862
    -7.3927  -7.3723  -7.2639  -7.2046  -7.1760  -7.1213  -7.0672  -6.9873
    -6.9443  -6.9171  -6.8488  -6.7446  -6.7361  -6.4179  -6.4177  -6.4140
    -6.3996  -6.3429  -6.2019  -6.1145  -6.0767  -5.9629  -5.9549  -5.9412
    -5.8551  -5.7747  -5.5925  -5.5036  -5.4727  -5.3877  -5.2676  -5.2583
    -5.2058  -5.1818  -4.9246  -4.8530  -4.7915  -4.7671  -4.6723  -4.6470
    -4.5611  -4.4095  -4.2401  -4.0504  -4.0210  -3.8284  -3.5472  -3.4257
    -3.3197  -2.6087  -1.7760  -1.1389  -0.8023  -0.7486  -0.6185  -0.4062
    -0.3538  -0.2390  -0.1176  -0.0724   0.0638   0.0872   0.4193   0.5054
     0.5156   0.6469   0.8250   0.8642   0.8843   0.9042   1.1140   1.1638
     1.1895   1.1932   1.2879   1.4489   1.4792   1.5094   1.5408   1.5990
     1.7088   1.8093   1.8489   1.8889   1.9426   1.9739   2.0149   2.0659
     2.1571   2.2928   2.3053   2.3107   2.3437   2.3819   2.3871   2.4256
     2.4500   2.4904   2.5625   2.5969   2.7033   2.7256   2.7452   2.7734
     2.7981   2.8140   2.8472   2.8783   2.9650   2.9994   3.0056   3.0238
     3.0600   3.0770   3.1366   3.1484   3.1669   3.1944   3.1947   3.2184
     3.3284   3.3395   3.4269   3.4408   3.4601   3.4654   3.5677   3.5684
     3.5814   3.5978   3.6024   3.6418   3.6634   3.6741   3.7348   3.8168
     3.9022   3.9112   3.9298   3.9401   3.9448   3.9518   3.9693   3.9838
     3.9851   4.0837   4.1066   4.1279   4.1449   4.2005   4.2016   4.2228
     4.2466   4.2711   4.2733   4.3296   4.3551   4.3666   4.3853   4.3976
     4.4603   4.4822   4.5097   4.5161   4.5680   4.6029   4.6355   4.6655
     4.6970   4.7135   4.7747   4.7886   4.7894   4.8595   4.8694   4.8913
     4.9417   4.9433   4.9639   4.9681   5.0205   5.0553   5.0709   5.0723
     5.0795   5.0942   5.1174   5.1924   5.2034   5.2275   5.2539   5.2612
     5.3005   5.3391   5.3407   5.3668   5.3733   5.3889   5.3890   5.4386
     5.4538   5.4593   5.4658   5.4792   5.5139   5.5396   5.5543   5.5699
     5.6274   5.6327   5.6646   5.6682   5.6811   5.7113   5.7486   5.7817
     5.7867   5.8080   5.8532   5.8787   5.8998   5.9164   5.9251   5.9501
     5.9507   5.9873   6.0516   6.0823   6.0983   6.1015   6.1064   6.1589
     6.1882   6.1975   6.2087   6.2356   6.2458   6.2654   6.3262   6.3296
     6.3393   6.3565   6.3774   6.3840   6.4018   6.4144   6.4173   6.4488
     6.4784   6.4803   6.4906   6.4934   6.5046   6.5678   6.5918   6.5961
     6.6140   6.6176   6.6227   6.6395   6.6413   6.6635   6.6832   6.6832
     6.6832   6.7051   6.7391   6.7772   6.8162   6.8322   6.8366   6.8564
     6.8647   6.8648   6.9131   6.9259   6.9407   6.9532   6.9595   7.0184
     7.0354   7.0531   7.0627   7.0865   7.1084   7.1346   7.1382   7.1430
     7.1841   7.2283   7.2377   7.2407   7.2701   7.2806   7.2894   7.3247
     7.3262   7.3322   7.3359   7.3889   7.4154   7.4390   7.4483   7.4506
     7.4670   7.5099   7.5130   7.5152   7.5315   7.5433   7.5603   7.6082
     7.6267   7.6558   7.6847   7.6917   7.7015   7.7040   7.7161   7.7466
     7.7537   7.7589   7.7798   7.7850   7.8042   7.8101   7.8207   7.8467
     7.8483   7.9233   7.9542   7.9777   7.9945   8.0041   8.0122   8.0176
     8.0430   8.0832   8.0844   8.1040   8.1190   8.1230   8.1236   8.1579
     8.1876   8.1892   8.1895   8.2105   8.2213   8.2241   8.2512   8.2788
     8.3211   8.3259   8.3439   8.3461   8.3780   8.3854   8.3903   8.4130
     8.4160   8.4340   8.4932   8.5083

          k = 0.0000 0.0000 0.0153 (147267 PWs)   bands (ev):

   -21.4737 -21.2664 -21.0294 -20.9005 -20.8676 -20.5826 -20.4531 -20.3437
   -20.0724 -20.0683 -19.8761 -19.8369 -19.6008 -19.4452 -19.3814 -19.1409
   -19.0412 -18.7600 -18.7429 -18.7077 -18.3930 -18.3215 -18.3206 -18.1813
   -17.8193 -17.7657 -17.6130 -17.5181 -17.4296 -17.2666 -17.2129 -17.1421
   -16.8994 -16.8505 -16.6586 -16.5812 -16.4859 -16.4056 -16.2369 -16.2203
   -16.0296 -15.9413 -15.7999 -15.3263 -14.8694 -14.8309 -14.8239 -14.7906
   -14.6220 -14.5360 -14.4640 -14.4427 -14.1484 -14.0337 -14.0155 -13.8566
   -13.6232 -13.5563 -13.4781 -13.3285 -13.3092 -13.1285 -13.0836 -12.9299
   -12.6703 -12.3620 -12.3187 -12.1927 -12.0302 -11.9580 -11.9557 -11.9226
   -11.8267 -11.6492 -11.3449 -11.3227 -11.2953 -11.2860 -11.1367 -11.0311
   -10.7479 -10.7038 -10.6783 -10.5303 -10.4409 -10.3160 -10.2792 -10.2767
   -10.1487 -10.0294  -9.9198  -9.8382  -9.7976  -9.6327  -9.5459  -9.5287
    -9.5285  -9.3765  -9.3116  -9.2831  -9.2322  -9.1700  -9.1343  -9.0465
    -9.0407  -8.9886  -8.9318  -8.8668  -8.8083  -8.8079  -8.7302  -8.6927
    -8.6117  -8.5715  -8.5344  -8.5101  -8.4137  -8.3878  -8.3587  -8.3300
    -8.2379  -8.2196  -8.2184  -8.1815  -8.1315  -8.0666  -8.0559  -7.9058
    -7.9046  -7.7313  -7.6838  -7.6708  -7.6615  -7.6323  -7.6309  -7.5113
    -7.3952  -7.3387  -7.2776  -7.2046  -7.1734  -7.1354  -7.0707  -7.0112
    -6.9364  -6.9208  -6.8441  -6.7448  -6.7222  -6.4299  -6.4192  -6.4121
    -6.3979  -6.3799  -6.1965  -6.1010  -6.0913  -5.9552  -5.9491  -5.9440
    -5.8485  -5.7781  -5.5875  -5.5053  -5.4785  -5.3745  -5.2782  -5.2336
    -5.2049  -5.1897  -4.9236  -4.8600  -4.7998  -4.7330  -4.6669  -4.6456
    -4.5603  -4.4307  -4.2513  -4.0413  -4.0275  -3.8198  -3.5323  -3.4267
    -3.3340  -2.6434  -1.7476  -1.1329  -0.7935  -0.7599  -0.6126  -0.3984
    -0.3360  -0.2343  -0.1281  -0.0566   0.0535   0.0759   0.4135   0.4810
     0.5250   0.6634   0.8146   0.8464   0.8688   0.9086   1.1011   1.1504
     1.1740   1.1938   1.2819   1.4343   1.4709   1.5242   1.5469   1.6174
     1.7172   1.8313   1.8355   1.8833   1.9604   1.9900   2.0342   2.0688
     2.1411   2.2931   2.3131   2.3310   2.3477   2.3811   2.3872   2.4269
     2.4579   2.5163   2.5655   2.5853   2.6921   2.6938   2.7372   2.7660
     2.8028   2.8178   2.8635   2.8668   2.9809   2.9842   2.9877   3.0146
     3.0648   3.0840   3.1177   3.1377   3.1575   3.1924   3.2062   3.2367
     3.3399   3.3622   3.4256   3.4426   3.4519   3.4647   3.5503   3.5907
     3.5959   3.6006   3.6100   3.6381   3.6597   3.6829   3.7508   3.8123
     3.8706   3.8931   3.9309   3.9518   3.9521   3.9657   3.9783   3.9900
     3.9966   4.0992   4.0998   4.1172   4.1236   4.1649   4.2017   4.2344
     4.2501   4.2563   4.2596   4.3395   4.3425   4.3439   4.3853   4.3902
     4.4616   4.4751   4.5112   4.5194   4.5639   4.5874   4.6575   4.6753
[...]
    -6.8853  -6.8572  -6.8237  -6.7995  -6.7490  -6.5581  -6.5029  -6.3946
    -6.3898  -6.3878  -6.1933  -6.1768  -6.1202  -6.0105  -5.9020  -5.8244
    -5.8097  -5.8032  -5.5216  -5.4998  -5.4561  -5.4003  -5.3640  -5.2579
    -5.1991  -4.9889  -4.9007  -4.8680  -4.8414  -4.6775  -4.6360  -4.6292
    -4.5444  -4.4636  -4.3525  -4.1085  -4.0013  -3.7508  -3.4650  -3.4114
    -3.3762  -2.8973  -1.5670  -1.1080  -0.8566  -0.6749  -0.6022  -0.3376
    -0.1944  -0.1708  -0.1631  -0.0494  -0.0060   0.1225   0.2939   0.3118
     0.4644   0.6008   0.8320   0.8463   0.9215   0.9558   1.0012   1.0543
     1.0657   1.1327   1.2527   1.3211   1.4677   1.5879   1.6236   1.7396
     1.7462   1.8056   1.8993   1.9696   1.9880   2.0524   2.0818   2.0922
     2.2107   2.2138   2.2908   2.3212   2.3765   2.4162   2.4625   2.4658
     2.4895   2.5080   2.5435   2.6011   2.6199   2.6726   2.7534   2.7702
     2.7773   2.8630   2.8768   2.8821   2.8887   2.9334   2.9507   2.9572
     3.0260   3.0516   3.1695   3.1998   3.2370   3.2793   3.2849   3.3056
     3.3166   3.3241   3.3922   3.4304   3.4345   3.4714   3.4835   3.5778
     3.5854   3.6259   3.6326   3.6550   3.7111   3.7534   3.7582   3.8049
     3.8322   3.8659   3.8672   3.9132   3.9548   3.9996   4.0021   4.0118
     4.0353   4.0356   4.0454   4.0963   4.1033   4.1408   4.1699   4.2052
     4.2195   4.2395   4.2664   4.2981   4.3273   4.4153   4.4353   4.4393
     4.4429   4.4530   4.4772   4.5032   4.5192   4.5456   4.5548   4.6382
     4.6491   4.7472   4.7611   4.7963   4.8137   4.8345   4.8904   4.8985
     4.9326   4.9349   4.9785   4.9832   5.0409   5.0844   5.0869   5.0908
     5.1069   5.1263   5.1457   5.1567   5.1859   5.2023   5.2652   5.2678
     5.2681   5.2715   5.2910   5.2995   5.3285   5.3527   5.3980   5.4003
     5.4593   5.4709   5.4733   5.4796   5.5447   5.5836   5.6145   5.6149
     5.6582   5.7073   5.7177   5.7244   5.7418   5.7809   5.8020   5.8049
     5.8310   5.8553   5.8813   5.8880   5.8895   5.9335   5.9402   5.9918
     6.0119   6.0134   6.0323   6.0612   6.0798   6.0857   6.0972   6.1093
     6.1346   6.1485   6.1828   6.2214   6.2240   6.2568   6.2718   6.2892
     6.2932   6.3191   6.3217   6.3269   6.3747   6.3998   6.4037   6.4462
     6.4482   6.4656   6.4725   6.4818   6.5094   6.5260   6.5495   6.5626
     6.5630   6.6164   6.6271   6.6272   6.6365   6.6493   6.7228   6.7520
     6.7576   6.7730   6.7783   6.8069   6.8465   6.8578   6.8733   6.8783
     6.8929   6.9114   6.9116   6.9244   6.9689   6.9711   6.9726   7.0335
     7.0498   7.0573   7.0786   7.0871   7.1093   7.1204   7.1239   7.1566
     7.1573   7.1692   7.1788   7.1878   7.2329   7.2348   7.2438   7.2688
     7.3186   7.3333   7.3363   7.3885   7.4205   7.4362   7.4438   7.4608
     7.4985   7.5143   7.5206   7.5421   7.5483   7.5611   7.6172   7.6187
     7.6265   7.6437   7.6459   7.6499   7.6872   7.7034   7.7351   7.7690
     7.7821   7.7838   7.8062   7.8119   7.8390   7.8442   7.8591   7.8720
     7.8847   7.9200   7.9530   7.9877   7.9956   8.0136   8.0344   8.0600
     8.0636   8.0859   8.0896   8.1091   8.1196   8.1197   8.1291   8.1937
     8.2354   8.2413   8.2590   8.2671   8.2681   8.2809   8.3035   8.3135
     8.3342   8.3849   8.3872   8.4003   8.4087   8.4160   8.4224   8.4246
     8.4429   8.4533   8.4717   8.4789

          k = 0.0000 0.0000 0.0270 (147192 PWs)   bands (ev):

   -21.4472 -21.3319 -20.9973 -20.9286 -20.7444 -20.6153 -20.5028 -20.3129
   -20.2006 -20.1040 -19.9001 -19.7469 -19.5150 -19.4504 -19.2397 -19.1170
   -19.1018 -18.8085 -18.7483 -18.7189 -18.5419 -18.4601 -18.2394 -18.2038
   -17.7804 -17.7302 -17.5982 -17.4556 -17.3310 -17.2831 -17.1726 -17.0003
   -16.8794 -16.7554 -16.7269 -16.6661 -16.5834 -16.5360 -16.3148 -16.2023
   -16.0663 -15.8737 -15.8066 -15.5835 -14.7826 -14.7627 -14.7050 -14.6577
   -14.6311 -14.6005 -14.3125 -14.1342 -14.0999 -14.0417 -14.0032 -13.8230
   -13.8203 -13.7405 -13.5572 -13.5118 -13.3164 -13.2220 -13.1650 -13.0222
   -12.7054 -12.3650 -12.2792 -12.1355 -12.0569 -11.8367 -11.7894 -11.7620
   -11.6495 -11.4788 -11.4540 -11.4385 -11.3708 -11.2443 -11.0233 -10.9672
   -10.9319 -10.7575 -10.6900 -10.5834 -10.4771 -10.4598 -10.3507 -10.1720
   -10.1568  -9.9684  -9.9108  -9.8259  -9.8178  -9.6651  -9.5669  -9.4995
    -9.4888  -9.4796  -9.4504  -9.4077  -9.3478  -9.1163  -9.0212  -8.9635
    -8.9159  -8.8814  -8.8716  -8.8708  -8.8362  -8.8185  -8.7474  -8.7230
    -8.6780  -8.6740  -8.5654  -8.5458  -8.5178  -8.4154  -8.2773  -8.1946
    -8.1718  -8.1158  -8.0848  -8.0773  -8.0716  -7.9832  -7.9466  -7.9430
    -7.9322  -7.8470  -7.7980  -7.7229  -7.7075  -7.6589  -7.5139  -7.4460
    -7.3987  -7.3923  -7.3084  -7.3007  -7.2785  -7.1624  -7.0234  -6.9534
    -6.8836  -6.8581  -6.8269  -6.7970  -6.7836  -6.5658  -6.4828  -6.3941
    -6.3940  -6.3895  -6.1965  -6.1763  -6.1324  -6.0065  -5.8996  -5.8198
    -5.8082  -5.8041  -5.5237  -5.4865  -5.4519  -5.4148  -5.3647  -5.2620
    -5.1989  -4.9816  -4.9002  -4.8641  -4.8232  -4.7073  -4.6360  -4.6273
    -4.5442  -4.4417  -4.3654  -4.1144  -4.0002  -3.7471  -3.4697  -3.4126
    -3.3654  -2.9113  -1.5589  -1.1074  -0.8618  -0.6640  -0.6059  -0.3367
    -0.1912  -0.1649  -0.1542  -0.0606  -0.0102   0.1475   0.2860   0.2888
     0.4490   0.6040   0.8317   0.8592   0.9267   0.9598   0.9942   1.0485
     1.0613   1.1201   1.2600   1.3118   1.4684   1.5903   1.6289   1.7365
     1.7431   1.8210   1.9109   1.9531   1.9958   2.0419   2.0854   2.0892
     2.2262   2.2319   2.2876   2.3142   2.3775   2.3947   2.4565   2.4727
     2.4978   2.5095   2.5315   2.6081   2.6438   2.6659   2.7472   2.7475
     2.7859   2.8632   2.8755   2.8834   2.8853   2.9236   2.9406   2.9509
     3.0609   3.0753   3.1909   3.2097   3.2264   3.2825   3.2905   3.2935
     3.3022   3.3176   3.3875   3.3885   3.4362   3.4913   3.4938   3.5677
     3.5941   3.6171   3.6386   3.6744   3.7063   3.7412   3.7519   3.7769
     3.8588   3.8776   3.8940   3.9105   3.9538   3.9768   4.0032   4.0080
     4.0132   4.0369   4.0409   4.0808   4.0888   4.1660   4.1828   4.2071
     4.2410   4.2534   4.2923   4.3007   4.3216   4.3852   4.4143   4.4194
     4.4244   4.4620   4.4732   4.4939   4.5320   4.5435   4.5857   4.6357
     4.6619   4.7490   4.7619   4.7805   4.8044   4.8450   4.8796   4.9173
     4.9447   4.9460   4.9523   4.9844   5.0217   5.0753   5.0867   5.0871
     5.1062   5.1132   5.1465   5.1596   5.2101   5.2120   5.2456   5.2677
     5.2801   5.2847   5.2884   5.3091   5.3277   5.3534   5.3745   5.3885
     5.4332   5.4649   5.4912   5.5091   5.5424   5.5830   5.6162   5.6382
     5.6462   5.7067   5.7132   5.7287   5.7491   5.7706   5.8063   5.8367
     5.8461   5.8523   5.8865   5.8967   5.9099   5.9391   5.9425   5.9570
     6.0006   6.0115   6.0319   6.0416   6.0472   6.0960   6.0989   6.1087
     6.1240   6.1432   6.1575   6.2378   6.2616   6.2621   6.2746   6.2880
     6.2938   6.3215   6.3264   6.3279   6.3878   6.4006   6.4211   6.4346
     6.4434   6.4440   6.4478   6.4786   6.5023   6.5110   6.5470   6.5598
     6.5790   6.6061   6.6123   6.6298   6.6359   6.6664   6.6982   6.7288
     6.7650   6.7695   6.7773   6.8094   6.8544   6.8653   6.8892   6.8899
     6.9042   6.9180   6.9190   6.9538   6.9545   6.9976   7.0013   7.0240
     7.0499   7.0585   7.0819   7.1018   7.1127   7.1156   7.1197   7.1547
     7.1568   7.1632   7.1648   7.1949   7.2049   7.2137   7.2246   7.2732
     7.3168   7.3241   7.3338   7.3760   7.4170   7.4440   7.4584   7.4605
     7.4858   7.5069   7.5397   7.5510   7.5589   7.5627   7.6050   7.6152
     7.6325   7.6397   7.6453   7.6573   7.7010   7.7246   7.7282   7.7572
     7.7826   7.7848   7.7962   7.8036   7.8431   7.8495   7.8684   7.8812
     7.8940   7.9458   7.9462   7.9768   7.9818   7.9987   8.0145   8.0531
     8.0677   8.0682   8.0906   8.1049   8.1144   8.1286   8.1330   8.1746
     8.2285   8.2429   8.2577   8.2604   8.2839   8.3139   8.3169   8.3462
     8.3500   8.3766   8.3854   8.4074   8.4138   8.4224   8.4270   8.4309
     8.4350   8.4427   8.4679   8.4723

          k = 0.0000 0.0000 0.0282 (147224 PWs)   bands (ev):

   -21.4462 -21.3337 -20.9958 -20.9308 -20.7368 -20.6197 -20.5067 -20.3048
   -20.2087 -20.1047 -19.9005 -19.7441 -19.5172 -19.4505 -19.2078 -19.1365
   -19.1155 -18.7905 -18.7572 -18.7191 -18.5496 -18.4630 -18.2370 -18.2041
   -17.7818 -17.7261 -17.6019 -17.4553 -17.3311 -17.2834 -17.1347 -17.0408
   -16.8773 -16.7527 -16.6915 -16.6671 -16.6089 -16.5479 -16.3128 -16.2018
   -16.0673 -15.8681 -15.8059 -15.5932 -14.7824 -14.7602 -14.6869 -14.6594
   -14.6497 -14.6020 -14.2611 -14.1653 -14.1017 -14.0617 -13.9639 -13.8447
   -13.8146 -13.7565 -13.5585 -13.5078 -13.3188 -13.2267 -13.1643 -13.0236
   -12.7060 -12.3688 -12.2757 -12.1314 -12.0611 -11.8334 -11.7816 -11.7653
   -11.6323 -11.4858 -11.4667 -11.4365 -11.3802 -11.1932 -11.0743 -10.9461
   -10.9284 -10.7618 -10.7053 -10.5835 -10.4820 -10.4511 -10.3507 -10.1725
   -10.1627  -9.9612  -9.8892  -9.8331  -9.8288  -9.6731  -9.5673  -9.4862
    -9.4801  -9.4769  -9.4626  -9.4115  -9.3650  -9.1153  -9.0204  -8.9513
    -8.9100  -8.8734  -8.8733  -8.8661  -8.8433  -8.8209  -8.7519  -8.7309
    -8.6797  -8.6638  -8.5741  -8.5516  -8.5179  -8.4207  -8.2758  -8.1911
    -8.1564  -8.1096  -8.0927  -8.0749  -8.0519  -7.9744  -7.9598  -7.9438
    -7.9382  -7.8518  -7.8009  -7.7228  -7.7081  -7.6605  -7.5098  -7.4504
    -7.3906  -7.3824  -7.3217  -7.3141  -7.2825  -7.1622  -7.0199  -6.9174
    -6.8826  -6.8593  -6.8423  -6.8048  -6.7947  -6.5706  -6.4672  -6.4012
    -6.3936  -6.3893  -6.1979  -6.1759  -6.1405  -6.0040  -5.8982  -5.8170
    -5.8073  -5.8045  -5.5250  -5.4744  -5.4492  -5.4275  -5.3651  -5.2647
    -5.1988  -4.9780  -4.8999  -4.8638  -4.7972  -4.7375  -4.6359  -4.6261
    -4.5440  -4.4230  -4.3786  -4.1182  -3.9995  -3.7447  -3.4727  -3.4133
    -3.3585  -2.9202  -1.5541  -1.1071  -0.8649  -0.6562  -0.6092  -0.3364
    -0.1893  -0.1598  -0.1487  -0.0689  -0.0128   0.1700   0.2669   0.2812
     0.4402   0.6061   0.8315   0.8677   0.9305   0.9624   0.9894   1.0448
     1.0587   1.1119   1.2661   1.3045   1.4688   1.5919   1.6324   1.7343
     1.7409   1.8328   1.9199   1.9408   2.0006   2.0328   2.0875   2.0883
     2.2342   2.2507   2.2856   2.3062   2.3782   2.3798   2.4502   2.4816
     2.5027   2.5103   2.5212   2.6144   2.6601   2.6664   2.7254   2.7433
     2.7930   2.8626   2.8656   2.8882   2.8891   2.9176   2.9328   2.9461
     3.0669   3.1230   3.2013   3.2095   3.2192   3.2781   3.2832   3.2943
     3.2967   3.3224   3.3514   3.3843   3.4370   3.5055   3.5085   3.5514
     3.6030   3.6034   3.6559   3.6948   3.6959   3.7296   3.7504   3.7509
     3.8839   3.8870   3.9098   3.9218   3.9507   3.9543   3.9814   4.0070
     4.0083   4.0377   4.0424   4.0646   4.0834   4.1635   4.2064   4.2229
     4.2571   4.2666   4.3024   4.3055   4.3187   4.3568   4.3983   4.4017
     4.4143   4.4663   4.4706   4.4783   4.5425   4.5579   4.6158   4.6189
     4.6827   4.7346   4.7407   4.7759   4.8119   4.8631   4.8777   4.9310
     4.9352   4.9378   4.9509   4.9938   5.0116   5.0551   5.0861   5.0887
     5.0917   5.1219   5.1383   5.1737   5.2172   5.2279   5.2329   5.2705
     5.2862   5.2869   5.2920   5.3137   5.3332   5.3519   5.3608   5.3792
     5.4071   5.4591   5.5011   5.5430   5.5437   5.5829   5.6170   5.6286
     5.6652   5.6726   5.7199   5.7326   5.7529   5.7757   5.8090   5.8335
     5.8588   5.8783   5.8799   5.9126   5.9285   5.9422   5.9448   5.9461
     5.9974   6.0021   6.0076   6.0247   6.0350   6.0735   6.1126   6.1133
     6.1236   6.1319   6.1563   6.2260   6.2594   6.2948   6.2963   6.2996
     6.3020   6.3225   6.3253   6.3300   6.3900   6.3945   6.4008   6.4118
     6.4456   6.4476   6.4493   6.4751   6.4930   6.5092   6.5430   6.5587
     6.5956   6.6002   6.6034   6.6307   6.6356   6.6666   6.6811   6.7157
     6.7698   6.7724   6.7767   6.8073   6.8618   6.8744   6.8859   6.8933
     6.9062   6.9212   6.9288   6.9548   6.9877   7.0139   7.0209   7.0383
     7.0442   7.0598   7.0720   7.0908   7.0990   7.1093   7.1204   7.1497
     7.1537   7.1673   7.1756   7.1761   7.2013   7.2088   7.2223   7.2751
     7.3095   7.3281   7.3290   7.3681   7.4002   7.4188   7.4657   7.4722
     7.4974   7.5084   7.5453   7.5567   7.5662   7.5735   7.5946   7.6058
     7.6235   7.6502   7.6600   7.6768   7.7040   7.7240   7.7325   7.7436
     7.7491   7.7735   7.8023   7.8032   7.8527   7.8548   7.8892   7.9001
     7.9045   7.9400   7.9657   7.9674   7.9718   7.9744   8.0044   8.0348
     8.0566   8.0704   8.0911   8.1025   8.1123   8.1350   8.1497   8.1523
     8.2163   8.2202   8.2753   8.2774   8.3018   8.3216   8.3486   8.3560
     8.3576   8.3824   8.3856   8.3927   8.3986   8.4255   8.4302   8.4352
     8.4381   8.4444   8.4625   8.4648

          k = 0.0000 0.0000-0.0293 (147164 PWs)   bands (ev):

   -21.4458 -21.3343 -20.9953 -20.9315 -20.7341 -20.6214 -20.5080 -20.3017
   -20.2118 -20.1049 -19.9006 -19.7431 -19.5179 -19.4506 -19.1839 -19.1607
   -19.1155 -18.7800 -18.7645 -18.7192 -18.5522 -18.4639 -18.2362 -18.2041
   -17.7823 -17.7246 -17.6032 -17.4552 -17.3312 -17.2835 -17.1088 -17.0674
   -16.8766 -16.7518 -16.6691 -16.6675 -16.6289 -16.5508 -16.3121 -16.2017
   -16.0677 -15.8661 -15.8057 -15.5966 -14.7823 -14.7594 -14.6704 -14.6664
   -14.6600 -14.6025 -14.2192 -14.2018 -14.1023 -14.0671 -13.9441 -13.8596
   -13.8126 -13.7608 -13.5589 -13.5065 -13.3196 -13.2283 -13.1640 -13.0241
   -12.7062 -12.3701 -12.2746 -12.1299 -12.0625 -11.8322 -11.7786 -11.7668
   -11.6257 -11.4882 -11.4720 -11.4360 -11.3833 -11.1574 -11.1100 -10.9358
   -10.9297 -10.7632 -10.7112 -10.5833 -10.4837 -10.4480 -10.3508 -10.1726
   -10.1648  -9.9599  -9.8718  -9.8476  -9.8299  -9.6754  -9.5674  -9.4842
    -9.4759  -9.4721  -9.4679  -9.4128  -9.3724  -9.1149  -9.0201  -8.9466
    -8.9081  -8.8739  -8.8705  -8.8656  -8.8450  -8.8214  -8.7538  -8.7338
    -8.6802  -8.6600  -8.5771  -8.5539  -8.5179  -8.4224  -8.2754  -8.1900
    -8.1491  -8.1072  -8.0999  -8.0764  -8.0329  -7.9772  -7.9713  -7.9441
    -7.9352  -7.8534  -7.8019  -7.7226  -7.7083  -7.6611  -7.5084  -7.4523
    -7.3900  -7.3727  -7.3325  -7.3161  -7.2839  -7.1621  -7.0187  -6.8923
    -6.8823  -6.8632  -6.8598  -6.8091  -6.7938  -6.5723  -6.4608  -6.4048
    -6.3934  -6.3892  -6.1983  -6.1758  -6.1433  -6.0032  -5.8977  -5.8161
    -5.8070  -5.8047  -5.5255  -5.4684  -5.4482  -5.4337  -5.3653  -5.2656
    -5.1987  -4.9769  -4.8998  -4.8639  -4.7722  -4.7636  -4.6358  -4.6257
    -4.5440  -4.4131  -4.3865  -4.1195  -3.9993  -3.7440  -3.4737  -3.4135
    -3.3562  -2.9232  -1.5524  -1.1070  -0.8660  -0.6532  -0.6107  -0.3364
    -0.1886  -0.1576  -0.1468  -0.0720  -0.0137   0.1808   0.2562   0.2797
     0.4374   0.6068   0.8315   0.8706   0.9319   0.9633   0.9876   1.0435
     1.0579   1.1090   1.2687   1.3015   1.4689   1.5924   1.6335   1.7336
     1.7401   1.8375   1.9233   1.9360   2.0023   2.0291   2.0881   2.0883
     2.2370   2.2597   2.2849   2.3012   2.3744   2.3784   2.4480   2.4859
     2.5044   2.5106   2.5165   2.6171   2.6575   2.6798   2.7120   2.7420
     2.7960   2.8617   2.8624   2.8894   2.8916   2.9156   2.9296   2.9443
     3.0690   3.1644   3.1676   3.2185   3.2240   3.2713   3.2741   3.2957
     3.3127   3.3240   3.3277   3.3832   3.4373   3.5125   3.5159   3.5429
     3.5967   3.6062   3.6725   3.6799   3.7124   3.7262   3.7323   3.7506
     3.8905   3.8978   3.9120   3.9342   3.9448   3.9548   3.9581   4.0071
     4.0084   4.0380   4.0432   4.0585   4.0814   4.1626   4.2059   4.2462
     4.2635   4.2719   4.2981   4.3029   4.3181   4.3516   4.3919   4.3947
     4.4084   4.4679   4.4694   4.4732   4.5422   4.5727   4.6072   4.6310
     4.6922   4.7202   4.7378   4.7653   4.8385   4.8403   4.9025   4.9188
     4.9297   4.9362   4.9530   5.0013   5.0104   5.0441   5.0858   5.0862
     5.0894   5.1260   5.1346   5.1814   5.2188   5.2190   5.2414   5.2840
     5.2860   5.2863   5.2937   5.2975   5.3487   5.3505   5.3583   5.3754
     5.3916   5.4570   5.5047   5.5440   5.5609   5.5829   5.6172   5.6234
     5.6555   5.6742   5.7320   5.7342   5.7348   5.7873   5.8098   5.8316
     5.8687   5.8707   5.8865   5.9163   5.9376   5.9452   5.9478   5.9606
     5.9700   6.0002   6.0034   6.0155   6.0411   6.0558   6.1096   6.1177
     6.1290   6.1299   6.1567   6.2203   6.2550   6.2953   6.3041   6.3157
     6.3224   6.3225   6.3248   6.3357   6.3642   6.3922   6.3962   6.4008
     6.4470   6.4475   6.4597   6.4738   6.4908   6.5080   6.5416   6.5579
     6.5873   6.5985   6.6262   6.6336   6.6355   6.6384   6.6870   6.7116
     6.7714   6.7744   6.7766   6.8059   6.8649   6.8841   6.8845   6.8929
     6.8938   6.9216   6.9393   6.9577   7.0086   7.0106   7.0291   7.0370
     7.0611   7.0671   7.0722   7.0743   7.0827   7.1006   7.1217   7.1472
     7.1484   7.1647   7.1687   7.1901   7.1975   7.2165   7.2221   7.2738
     7.3035   7.3267   7.3448   7.3654   7.3688   7.4201   7.4686   7.4765
     7.5046   7.5076   7.5497   7.5537   7.5681   7.5817   7.5901   7.5992
     7.6202   7.6660   7.6725   7.6893   7.6903   7.7173   7.7228   7.7356
     7.7541   7.7677   7.7948   7.8065   7.8580   7.8591   7.8990   7.9017
     7.9300   7.9375   7.9458   7.9573   7.9664   7.9882   8.0013   8.0217
     8.0529   8.0713   8.0869   8.1118   8.1118   8.1339   8.1355   8.1687
     8.1990   8.2174   8.2836   8.2919   8.3113   8.3139   8.3480   8.3639
     8.3675   8.3777   8.3908   8.3937   8.4074   8.4085   8.4285   8.4305
     8.4399   8.4451   8.4552   8.4623

     the Fermi energy is    -2.1766 ev

     Writing output data file LS9_2_13_2_a.save/

     init_run     :     23.39s CPU     23.97s WALL (       1 calls)
     electrons    :  10823.76s CPU  10881.66s WALL (       1 calls)

     Called by init_run:
     wfcinit      :      0.00s CPU      0.01s WALL (       1 calls)
     potinit      :      1.69s CPU      1.82s WALL (       1 calls)
     hinit0       :     17.32s CPU     17.42s WALL (       1 calls)

     Called by electrons:
     c_bands      :  10823.61s CPU  10881.50s WALL (       1 calls)
     v_of_rho     :      1.22s CPU      1.28s WALL (       1 calls)
     newd         :      1.63s CPU      1.91s WALL (       1 calls)

     Called by c_bands:
     init_us_2    :      1.17s CPU      1.20s WALL (      26 calls)
     cegterg      :  10579.28s CPU  10628.75s WALL (      76 calls)

     Called by sum_band:

     Called by *egterg:
     h_psi        :   3455.19s CPU   3480.18s WALL (    1188 calls)
     s_psi        :    444.94s CPU    445.32s WALL (    1188 calls)
     g_psi        :     17.68s CPU     17.70s WALL (    1086 calls)
     cdiaghg      :   3344.86s CPU   3346.82s WALL (    1112 calls)

     Called by h_psi:
     h_psi:pot    :   3441.95s CPU   3461.66s WALL (    1188 calls)
     h_psi:calbec :    446.32s CPU    448.63s WALL (    1188 calls)
     vloc_psi     :   2556.68s CPU   2573.68s WALL (    1188 calls)
     add_vuspsi   :    438.94s CPU    439.33s WALL (    1188 calls)

     General routines
     calbec       :    446.31s CPU    448.62s WALL (    1188 calls)
     fft          :      1.45s CPU      1.55s WALL (      14 calls)
     ffts         :      0.01s CPU      0.01s WALL (       1 calls)
     fftw         :   2149.00s CPU   2163.67s WALL (  565890 calls)
     interpolate  :      0.12s CPU      0.12s WALL (       1 calls)
     davcio       :      0.00s CPU      6.64s WALL (      52 calls)

     Parallel routines
     fft_scatt_xy :    344.54s CPU    346.17s WALL (  565905 calls)
     fft_scatt_yz :    741.89s CPU    749.93s WALL (  565905 calls)

     PWSCF        :     3h 1m CPU        1h 3m WALL

       8h

   This run was terminated on:  10:25:50  23Apr2021            

=------------------------------------------------------------------------------=
   JOB DONE.
=------------------------------------------------------------------------------=
