
     Program PWSCF v.6.3 starts on 23Apr2021 at  7:16: 5 

     This program is part of the open-source Quantum ESPRESSO suite
     for quantum simulation of materials; please cite
         "P. Giannozzi et al., J. Phys.:Condens. Matter 21 395502 (2009);
         "P. Giannozzi et al., J. Phys.:Condens. Matter 29 465901 (2017);
          URL http://www.quantum-espresso.org", 
     in publications or presentations arising from this work. More details at
     http://www.quantum-espresso.org/quote

     Parallel version (MPI), running on    16 processors
     R & G space division:  proc/nbgrp/npool/nimage =      16
     Waiting for input...
     Reading input from standard input
     Message from routine read_cards :
     DEPRECATED: no units specified in CELL_PARAMETERS card

     Current dimensions of program PWSCF are:
     Max number of different atomic species (ntypx) = 10
     Max number of k-points (npk) =  40000
     Max angular momentum in pseudopotentials (lmaxx) =  3

     Atomic positions and unit cell read from directory:
     /home/zfwang/scratch/GNRDATASET/AGNR/LS9_2_11_3/LS9_2_11_3.save/


     Subspace diagonalization in iterative solution of the eigenvalue problem:
     a serial algorithm will be used


     Parallelization info
     --------------------
     sticks:   dense  smooth     PW     G-vecs:    dense   smooth      PW
     Min        2556     852    219               478608    92086   11953
     Max        2558     853    220               478613    92089   11956
     Sum       40909   13645   3505              7657741  1473411  191275



     bravais-lattice index     =            0
     lattice parameter (alat)  =       1.8897  a.u.
     unit-cell volume          =   43121.8574 (a.u.)^3
     number of atoms/cell      =          122
     number of atomic types    =            2
     number of electrons       =       428.00
     number of Kohn-Sham states=          500
     kinetic-energy cutoff     =      40.0000  Ry
     charge density cutoff     =     480.0000  Ry
     Exchange-correlation      = PBE ( 1  4  3  4 0 0)

     celldm(1)=  18.897261  celldm(2)=   3.000000  celldm(3)=   2.130000
     celldm(4)=   0.000000  celldm(5)=   0.000000  celldm(6)=   0.000000

     crystal axes: (cart. coord. in units of alat)
               a(1) = (  10.000000   0.000000   0.000000 )  
               a(2) = (   0.000000  30.000000   0.000000 )  
               a(3) = (   0.000000   0.000000  21.300000 )  

     reciprocal axes: (cart. coord. in units 2 pi/alat)
               b(1) = (  0.100000  0.000000  0.000000 )  
               b(2) = (  0.000000  0.033333  0.000000 )  
               b(3) = (  0.000000  0.000000  0.046948 )  


     PseudoPot. # 1 for C  read from file:
     /home/zfwang/hp_home/MySoftware/qe-6.3/pseudo/C.pbe-n-rrkjus_psl.0.1.UPF
     MD5 check sum: fff530ed632a789b3b184014e67dd7f1
     Pseudo is Ultrasoft + core correction, Zval =  4.0
     Generated using "atomic" code by A. Dal Corso v.5.0.2 svn rev. 9415
     Using radial grid of 1073 points,  4 beta functions with: 
                l(1) =   0
                l(2) =   0
                l(3) =   1
                l(4) =   1
     Q(r) pseudized with 0 coefficients 


     PseudoPot. # 2 for H  read from file:
     /home/zfwang/hp_home/MySoftware/qe-6.3/pseudo/H.pbe-rrkjus_psl.0.1.UPF
     MD5 check sum: e164a6907b691c6980f16942be34de84
     Pseudo is Ultrasoft, Zval =  1.0
     Generated using "atomic" code by A. Dal Corso v.5.0.2 svn rev. 9415
     Using radial grid of  929 points,  2 beta functions with: 
                l(1) =   0
                l(2) =   0
     Q(r) pseudized with 0 coefficients 


     atomic species   valence    mass     pseudopotential
        C              4.00    12.01070     C ( 1.00)
        H              1.00     1.00794     H ( 1.00)

     No symmetry found



   Cartesian axes

     site n.     atom                  positions (alat units)
         1           C   tau(   1) = (   5.0000003   8.8479674   7.0527551  )
         2           C   tau(   2) = (   5.0000005   8.8508326  11.3320082  )
         3           C   tau(   3) = (   5.0000003   8.8571951  15.6102630  )
         4           C   tau(   4) = (   5.0000005  10.1029805   3.5776536  )
         5           C   tau(   5) = (   5.0000003  10.0593915   7.8016142  )
         6           C   tau(   6) = (   5.0000004  10.0591278  12.0718629  )
         7           C   tau(   7) = (   4.9999999  10.0824250  16.3292034  )
         8           C   tau(   8) = (   5.0000001  10.0975769  20.6147963  )
         9           C   tau(   9) = (   5.0000005   8.8571958   5.6897381  )
        10           C   tau(  10) = (   5.0000005   8.8508329   9.9679920  )
        11           C   tau(  11) = (   5.0000006   8.8479669  14.2472461  )
        12           C   tau(  12) = (   5.0000003  11.2934562   2.8568864  )
        13           C   tau(  13) = (   5.0000004  11.2978818   7.1074915  )
        14           C   tau(  14) = (   5.0000004  11.2913883  11.3619133  )
        15           C   tau(  15) = (   4.9999999  11.3115301  15.6116979  )
        16           C   tau(  16) = (   4.9999997  11.2990153  19.8859565  )
        17           C   tau(  17) = (   5.0000003  12.5344522   3.5582593  )
        18           C   tau(  18) = (   5.0000004  12.5331090   7.8184559  )
        19           C   tau(  19) = (   5.0000003  12.5309699  12.0682088  )
        20           C   tau(  20) = (   4.9999998  12.5374520  16.3243969  )
        21           C   tau(  21) = (   4.9999997  12.5284860  20.5879514  )
        22           C   tau(  22) = (   5.0000003  10.0975754   0.6852041  )
        23           C   tau(  23) = (   5.0000006  10.0824251   4.9707972  )
        24           C   tau(  24) = (   5.0000004  10.0591274   9.2281363  )
        25           C   tau(  25) = (   5.0000004  10.0593909  13.4983863  )
        26           C   tau(  26) = (   4.9999997  10.1029803  17.7223470  )
        27           C   tau(  27) = (   5.0000003  11.2990149   1.4140447  )
        28           C   tau(  28) = (   5.0000005  11.3115308   5.6883016  )
        29           C   tau(  29) = (   5.0000004  11.2913879   9.9380854  )
        30           C   tau(  30) = (   5.0000001  11.2978814  14.1925086  )
        31           C   tau(  31) = (   4.9999996  11.2934566  18.4431136  )
        32           C   tau(  32) = (   5.0000003  13.7693656   2.8438686  )
        33           C   tau(  33) = (   5.0000003  13.7677827   7.1062296  )
        34           C   tau(  34) = (   5.0000002  13.7662160  11.3583081  )
        35           C   tau(  35) = (   4.9999997  13.7717602  15.6116078  )
        36           C   tau(  36) = (   4.9999995  13.7709394  19.8758913  )
        37           C   tau(  37) = (   5.0000002  14.9999998   3.5531573  )
        38           C   tau(  38) = (   5.0000003  15.0000002   7.8148199  )
        39           C   tau(  39) = (   4.9999998  15.0000000  12.0655339  )
        40           C   tau(  40) = (   4.9999995  14.9999996  16.3207463  )
        41           C   tau(  41) = (   4.9999997  14.9999995  20.5831858  )
        42           C   tau(  42) = (   5.0000001  12.5284864   0.7120494  )
        43           C   tau(  43) = (   5.0000003  12.5374526   4.9756024  )
        44           C   tau(  44) = (   5.0000004  12.5309703   9.2317892  )
        45           C   tau(  45) = (   5.0000001  12.5331097  13.4815428  )
        46           C   tau(  46) = (   4.9999996  12.5344519  17.7417403  )
        47           C   tau(  47) = (   5.0000001  13.7709394   1.4241093  )
        48           C   tau(  48) = (   5.0000003  13.7717607   5.6883912  )
        49           C   tau(  49) = (   5.0000002  13.7662165   9.9416904  )
        50           C   tau(  50) = (   4.9999998  13.7677822  14.1937691  )
        51           C   tau(  51) = (   4.9999995  13.7693650  18.4561311  )
        52           C   tau(  52) = (   5.0000000  16.2306339   2.8438686  )
        53           C   tau(  53) = (   5.0000003  16.2322175   7.1062294  )
        54           C   tau(  54) = (   4.9999999  16.2337838  11.3583080  )
        55           C   tau(  55) = (   4.9999996  16.2282390  15.6116078  )
        56           C   tau(  56) = (   4.9999998  16.2290597  19.8758911  )
        57           C   tau(  57) = (   4.9999999  17.4655476   3.5582592  )
        58           C   tau(  58) = (   5.0000002  17.4668912   7.8184556  )
        59           C   tau(  59) = (   4.9999999  17.4690300  12.0682083  )
        60           C   tau(  60) = (   4.9999996  17.4625476  16.3243969  )
        61           C   tau(  61) = (   4.9999998  17.4715131  20.5879512  )
        62           C   tau(  62) = (   4.9999999  14.9999996   0.7168144  )
        63           C   tau(  63) = (   5.0000003  15.0000000   4.9792525  )
        64           C   tau(  64) = (   5.0000003  15.0000001   9.2344645  )
        65           C   tau(  65) = (   4.9999997  14.9999998  13.4851791  )
        66           C   tau(  66) = (   4.9999995  14.9999996  17.7468420  )
        67           C   tau(  67) = (   4.9999999  16.2290599   1.4241092  )
        68           C   tau(  68) = (   5.0000003  16.2282394   5.6883911  )
        69           C   tau(  69) = (   5.0000002  16.2337838   9.9416903  )
        70           C   tau(  70) = (   4.9999997  16.2322171  14.1937689  )
        71           C   tau(  71) = (   4.9999997  16.2306343  18.4561310  )
        72           C   tau(  72) = (   4.9999997  18.7065437   2.8568860  )
        73           C   tau(  73) = (   4.9999999  18.7021186   7.1074909  )
        74           C   tau(  74) = (   4.9999999  18.7086118  11.3619128  )
        75           C   tau(  75) = (   4.9999996  18.6884699  15.6116980  )
        76           C   tau(  76) = (   4.9999999  18.7009841  19.8859566  )
        77           C   tau(  77) = (   4.9999995  19.8970192   3.5776530  )
        78           C   tau(  78) = (   4.9999999  19.9406092   7.8016135  )
        79           C   tau(  79) = (   5.0000000  19.9408724  12.0718624  )
        80           C   tau(  80) = (   4.9999997  19.9175755  16.3292035  )
        81           C   tau(  81) = (   4.9999999  19.9024230  20.6147959  )
        82           C   tau(  82) = (   4.9999998  17.4715132   0.7120493  )
        83           C   tau(  83) = (   5.0000000  17.4625479   4.9756021  )
        84           C   tau(  84) = (   5.0000002  17.4690301   9.2317888  )
        85           C   tau(  85) = (   4.9999998  17.4668899  13.4815425  )
        86           C   tau(  86) = (   4.9999997  17.4655478  17.7417402  )
        87           C   tau(  87) = (   4.9999999  18.7009851   1.4140444  )
        88           C   tau(  88) = (   4.9999998  18.6884696   5.6883010  )
        89           C   tau(  89) = (   5.0000000  18.7086124   9.9380849  )
        90           C   tau(  90) = (   4.9999997  18.7021184  14.1925084  )
        91           C   tau(  91) = (   4.9999998  18.7065434  18.4431136  )
        92           C   tau(  92) = (   4.9999997  21.1520329   7.0527541  )
        93           C   tau(  93) = (   5.0000003  21.1491676  11.3320074  )
        94           C   tau(  94) = (   4.9999998  21.1428055  15.6102631  )
        95           C   tau(  95) = (   4.9999999  19.9024247   0.6852037  )
        96           C   tau(  96) = (   4.9999996  19.9175754   4.9707963  )
        97           C   tau(  97) = (   5.0000000  19.9408733   9.2281358  )
        98           C   tau(  98) = (   4.9999998  19.9406092  13.4983861  )
        99           C   tau(  99) = (   4.9999999  19.8970203  17.7223472  )
       100           C   tau( 100) = (   4.9999995  21.1428044   5.6897373  )
       101           C   tau( 101) = (   5.0000002  21.1491676   9.9679917  )
       102           C   tau( 102) = (   4.9999999  21.1520337  14.2472456  )
       103           H   tau( 103) = (   5.0000002   7.8905084   7.5681908  )
       104           H   tau( 104) = (   5.0000005   7.8944038  11.8488813  )
       105           H   tau( 105) = (   5.0000001   7.9215531  16.1708386  )
       106           H   tau( 106) = (   5.0000004   7.9215544   5.1291637  )
       107           H   tau( 107) = (   5.0000004   7.8944027   9.4511212  )
       108           H   tau( 108) = (   5.0000009   7.8905079  13.7318095  )
       109           H   tau( 109) = (   4.9999996  22.1094915   7.5681898  )
       110           H   tau( 110) = (   5.0000005  22.1055965  11.8488810  )
       111           H   tau( 111) = (   4.9999997  22.0784474  16.1708393  )
       112           H   tau( 112) = (   4.9999993  22.0784463   5.1291628  )
       113           H   tau( 113) = (   5.0000003  22.1055981   9.4511208  )
       114           H   tau( 114) = (   4.9999999  22.1094925  13.7318090  )
       115           H   tau( 115) = (   5.0000004   9.1420672   3.0673074  )
       116           H   tau( 116) = (   5.0000001   9.1401915  20.0999090  )
       117           H   tau( 117) = (   5.0000007   9.1401888   1.2000895  )
       118           H   tau( 118) = (   4.9999997   9.1420673  18.2326921  )
       119           H   tau( 119) = (   4.9999993  20.8579325   3.0673067  )
       120           H   tau( 120) = (   4.9999997  20.8598078  20.0999076  )
       121           H   tau( 121) = (   4.9999999  20.8598115   1.2000890  )
       122           H   tau( 122) = (   4.9999998  20.8579333  18.2326922  )

     number of k points=    26  Marzari-Vanderbilt smearing, width (Ry)=  0.0100
                       cart. coord. in units 2pi/alat
        k(    1) = (   0.0000000   0.0000000   0.0000000), wk =   0.0400000
        k(    2) = (   0.0000000   0.0000000   0.0009390), wk =   0.0800000
        k(    3) = (   0.0000000   0.0000000   0.0018779), wk =   0.0800000
        k(    4) = (   0.0000000   0.0000000   0.0028169), wk =   0.0800000
        k(    5) = (   0.0000000   0.0000000   0.0037559), wk =   0.0800000
        k(    6) = (   0.0000000   0.0000000   0.0046948), wk =   0.0800000
        k(    7) = (   0.0000000   0.0000000   0.0056338), wk =   0.0800000
        k(    8) = (   0.0000000   0.0000000   0.0065728), wk =   0.0800000
        k(    9) = (   0.0000000   0.0000000   0.0075117), wk =   0.0800000
        k(   10) = (   0.0000000   0.0000000   0.0084507), wk =   0.0800000
        k(   11) = (   0.0000000   0.0000000   0.0093897), wk =   0.0800000
        k(   12) = (   0.0000000   0.0000000   0.0103286), wk =   0.0800000
        k(   13) = (   0.0000000   0.0000000   0.0112676), wk =   0.0800000
        k(   14) = (   0.0000000   0.0000000   0.0122066), wk =   0.0800000
        k(   15) = (   0.0000000   0.0000000   0.0131455), wk =   0.0800000
        k(   16) = (   0.0000000   0.0000000   0.0140845), wk =   0.0800000
        k(   17) = (   0.0000000   0.0000000   0.0150235), wk =   0.0800000
        k(   18) = (   0.0000000   0.0000000   0.0159624), wk =   0.0800000
        k(   19) = (   0.0000000   0.0000000   0.0169014), wk =   0.0800000
        k(   20) = (   0.0000000   0.0000000   0.0178404), wk =   0.0800000
        k(   21) = (   0.0000000   0.0000000   0.0187793), wk =   0.0800000
        k(   22) = (   0.0000000   0.0000000   0.0197183), wk =   0.0800000
        k(   23) = (   0.0000000   0.0000000   0.0206573), wk =   0.0800000
        k(   24) = (   0.0000000   0.0000000   0.0215962), wk =   0.0800000
        k(   25) = (   0.0000000   0.0000000   0.0225352), wk =   0.0800000
        k(   26) = (   0.0000000   0.0000000  -0.0234742), wk =   0.0400000

     Dense  grid:  7657741 G-vectors     FFT dimensions: ( 135, 400, 288)

     Smooth grid:  1473411 G-vectors     FFT dimensions: (  80, 240, 180)

     Estimated max dynamical RAM per process >       1.59 GB

     Estimated total dynamical RAM >      25.44 GB

     The potential is recalculated from file :
     /home/zfwang/scratch/GNRDATASET/AGNR/LS9_2_11_3/LS9_2_11_3.save/charge-density.dat


     negative rho (up, down):  4.744E-04 0.000E+00
     Starting wfcs are  428 randomized atomic wfcs +   72 random wfcs

     Band Structure Calculation
     Davidson diagonalization with overlap
     c_bands:  2 eigenvalues not converged
     c_bands:  2 eigenvalues not converged
     c_bands:  2 eigenvalues not converged
     c_bands:  3 eigenvalues not converged
     c_bands:  3 eigenvalues not converged
     c_bands:  3 eigenvalues not converged
     c_bands:  3 eigenvalues not converged
     c_bands:  4 eigenvalues not converged
     c_bands:  2 eigenvalues not converged
     c_bands:  2 eigenvalues not converged
     c_bands:  3 eigenvalues not converged
     c_bands:  6 eigenvalues not converged
     c_bands:  6 eigenvalues not converged
     c_bands:  5 eigenvalues not converged
     c_bands:  5 eigenvalues not converged
     c_bands:  5 eigenvalues not converged
     c_bands:  6 eigenvalues not converged
     c_bands:  3 eigenvalues not converged
     c_bands:  7 eigenvalues not converged
     c_bands:  4 eigenvalues not converged
     c_bands:  5 eigenvalues not converged
     c_bands:  3 eigenvalues not converged
     c_bands:  6 eigenvalues not converged
     c_bands:  7 eigenvalues not converged
     c_bands:  4 eigenvalues not converged
     c_bands:  4 eigenvalues not converged

     ethr =  2.34E-09,  avg # of iterations =120.0

     total cpu time spent up to now is    20437.7 secs

     End of band structure calculation

          k = 0.0000 0.0000 0.0000 (184101 PWs)   bands (ev):

   -21.6282 -21.4025 -21.3642 -21.1996 -20.9746 -20.8635 -20.7003 -20.6679
   -20.5552 -20.3108 -20.2909 -20.1698 -20.0776 -19.6912 -19.6156 -19.5433
   -19.5199 -19.4419 -19.3663 -19.2051 -19.0230 -18.9558 -18.6398 -18.5778
   -18.5058 -18.4844 -18.3331 -18.1850 -17.9477 -17.9262 -17.8563 -17.6364
   -17.6147 -17.4911 -17.3604 -17.3444 -17.2864 -17.1617 -17.0605 -16.9064
   -16.8739 -16.8127 -16.5235 -16.3568 -16.3240 -16.2487 -16.2159 -16.1962
   -15.8867 -15.5402 -15.3740 -15.3448 -15.0469 -15.0050 -14.9906 -14.8272
   -14.7484 -14.6300 -14.5058 -14.4043 -14.3711 -14.3412 -14.3244 -13.8211
   -13.6958 -13.5482 -13.5457 -13.5245 -13.4410 -13.4220 -13.2784 -13.2459
   -13.0811 -13.0519 -13.0440 -12.9732 -12.4696 -12.4381 -12.3365 -12.2161
   -12.1788 -11.8177 -11.7536 -11.6973 -11.5726 -11.5684 -11.4530 -11.3802
   -11.2643 -11.2623 -11.2089 -11.0835 -11.0454 -10.9695 -10.9558 -10.7857
   -10.7709 -10.6988 -10.6409 -10.3458 -10.3393 -10.2258 -10.0309  -9.9319
    -9.8448  -9.8242  -9.7944  -9.7745  -9.7213  -9.7049  -9.6901  -9.6138
    -9.5808  -9.5486  -9.4320  -9.4021  -9.3978  -9.3156  -9.2133  -9.1543
    -9.1130  -9.0725  -9.0268  -8.9986  -8.9959  -8.9411  -8.8642  -8.8289
    -8.8131  -8.7166  -8.7132  -8.6827  -8.6013  -8.5975  -8.5785  -8.5721
    -8.4940  -8.4901  -8.4790  -8.4776  -8.4099  -8.3427  -8.3045  -8.1864
    -8.1342  -8.1227  -8.0919  -8.0619  -8.0552  -8.0219  -7.9337  -7.9267
    -7.8924  -7.8769  -7.8158  -7.7781  -7.7394  -7.5421  -7.5096  -7.4919
    -7.4265  -7.3702  -7.2809  -7.2657  -7.2281  -7.2198  -7.2181  -7.1302
    -7.0947  -6.9677  -6.8937  -6.8786  -6.8245  -6.7280  -6.6858  -6.6705
    -6.5696  -6.3438  -6.3020  -6.2802  -6.2676  -6.2323  -6.1811  -6.1713
    -6.0650  -6.0544  -6.0098  -5.9978  -5.9012  -5.6302  -5.5658  -5.5420
    -5.5311  -5.5199  -5.2215  -5.2064  -5.0602  -5.0002  -4.9891  -4.9477
    -4.9266  -4.8740  -4.7518  -4.6100  -4.4434  -4.3011  -4.2363  -4.0824
    -3.9380  -3.9307  -3.7963  -3.6504  -2.9175  -2.7780  -1.7558  -1.6354
    -1.0417  -0.7856  -0.7544  -0.7311  -0.6525  -0.6180  -0.5661  -0.3016
    -0.1856  -0.1233  -0.0188   0.0354   0.1852   0.2125   0.3825   0.5562
     0.5957   0.6265   0.7812   0.8078   0.8300   0.8582   0.9282   1.0499
     1.0814   1.1112   1.1232   1.1622   1.3660   1.3738   1.3793   1.4621
     1.4635   1.5069   1.5871   1.7082   1.7328   1.7800   1.8191   1.8225
     1.8329   1.9832   1.9900   2.0448   2.0457   2.0828   2.1743   2.2016
     2.3036   2.3170   2.3378   2.3399   2.4007   2.4473   2.4623   2.4638
     2.5113   2.5696   2.6215   2.6379   2.6736   2.6824   2.7083   2.7193
     2.7474   2.7640   2.7654   2.7678   2.8135   2.9395   2.9571   2.9793
     2.9957   3.0045   3.0116   3.0177   3.0339   3.0570   3.1510   3.1545
     3.1891   3.2294   3.2500   3.2512   3.2917   3.3388   3.3633   3.3857
     3.3915   3.4131   3.4581   3.4750   3.4820   3.4868   3.4935   3.5179
     3.5312   3.5316   3.5657   3.5806   3.6701   3.6721   3.7103   3.7818
     3.8012   3.8071   3.8335   3.8366   3.8410   3.8635   3.8701   3.9286
     3.9301   3.9326   3.9462   3.9492   3.9649   3.9919   3.9921   4.0231
     4.0500   4.0992   4.1228   4.1310   4.1890   4.1912   4.2157   4.2259
     4.2445   4.2467   4.2490   4.2762   4.3357   4.3434   4.3685   4.4048
     4.4150   4.4239   4.4299   4.4663   4.5134   4.5198   4.5447   4.6061
     4.6562   4.6776   4.7239   4.7835   4.7847   4.7860   4.7917   4.8090
     4.8303   4.8324   4.8391   4.9190   4.9231   4.9281   4.9626   4.9714
     4.9830   5.0052   5.0468   5.0520   5.0659   5.0706   5.0940   5.1406
     5.1521   5.1861   5.2018   5.2050   5.2117   5.2120   5.2468   5.2764
     5.2774   5.2913   5.3035   5.3156   5.3272   5.3417   5.3552   5.3644
     5.3669   5.3767   5.4002   5.4024   5.4170   5.5198   5.5269   5.5274
     5.5441   5.5535   5.5939   5.6103   5.6155   5.6437   5.6522   5.6529
     5.6546   5.6668   5.6952   5.7032   5.7282   5.7494   5.7857   5.7971
     5.9002   5.9030   5.9332   5.9749   5.9788   6.0065   6.0097   6.0156
     6.0258   6.0273   6.0354   6.0602   6.0651   6.1157   6.1243   6.1276
     6.1311   6.1411   6.1443   6.1465   6.1587   6.1857   6.1971   6.1978
     6.2118   6.2129   6.2546   6.2711   6.2855   6.3057   6.3153   6.3175
     6.3196   6.3310   6.3366   6.3415   6.3633   6.4183   6.4240   6.4306
     6.4314   6.4387   6.4417   6.4420   6.4722   6.4978   6.5045   6.5114
     6.5612   6.5783   6.5786   6.5793   6.5805   6.6032   6.6051   6.6266
     6.6389   6.6500   6.6784   6.7233   6.7280   6.7506   6.7558   6.7798
     6.7984   6.8026   6.8150   6.8244   6.8298   6.8440   6.8452   6.8648
     6.8708   6.8943   6.9191   6.9345

          k = 0.0000 0.0000 0.0009 (184071 PWs)   bands (ev):

   -21.6281 -21.4046 -21.3620 -21.1995 -20.9752 -20.8627 -20.7085 -20.6596
   -20.5551 -20.3109 -20.2934 -20.1671 -20.0773 -19.6912 -19.6182 -19.5556
   -19.5069 -19.4419 -19.3641 -19.2078 -19.0225 -18.9533 -18.6399 -18.5786
   -18.5133 -18.4780 -18.3320 -18.1835 -17.9702 -17.9076 -17.8522 -17.6543
   -17.5975 -17.4935 -17.3706 -17.3315 -17.2873 -17.1609 -17.0601 -16.9226
   -16.8575 -16.8127 -16.5242 -16.3585 -16.3234 -16.2546 -16.2159 -16.1914
   -15.8881 -15.5398 -15.3721 -15.3469 -15.0467 -15.0047 -14.9888 -14.8255
   -14.7479 -14.6314 -14.5046 -14.4065 -14.3798 -14.3327 -14.3224 -13.8208
   -13.6960 -13.5688 -13.5477 -13.5084 -13.4647 -13.3918 -13.3028 -13.2242
   -13.0855 -13.0511 -13.0403 -12.9719 -12.4692 -12.4374 -12.3360 -12.2190
   -12.1753 -11.8189 -11.7547 -11.6977 -11.5741 -11.5695 -11.4506 -11.3802
   -11.2920 -11.2351 -11.2087 -11.0883 -11.0384 -11.0108 -10.9153 -10.7887
   -10.7694 -10.6960 -10.6427 -10.3453 -10.3374 -10.2259 -10.0312  -9.9326
    -9.8472  -9.8279  -9.7951  -9.7733  -9.7411  -9.7048  -9.6701  -9.6111
    -9.5823  -9.5457  -9.4352  -9.4036  -9.3944  -9.3125  -9.2133  -9.1540
    -9.1183  -9.0665  -9.0381  -8.9984  -8.9849  -8.9419  -8.8646  -8.8278
    -8.8134  -8.7172  -8.7151  -8.6808  -8.6117  -8.6098  -8.5791  -8.5597
    -8.4946  -8.4803  -8.4790  -8.4774  -8.4105  -8.3418  -8.3048  -8.1866
    -8.1355  -8.1269  -8.0940  -8.0645  -8.0535  -8.0175  -7.9332  -7.9265
    -7.8922  -7.8745  -7.8221  -7.7692  -7.7412  -7.5428  -7.5096  -7.4890
    -7.4267  -7.3736  -7.2873  -7.2662  -7.2228  -7.2195  -7.2182  -7.1252
    -7.0980  -6.9643  -6.8987  -6.8816  -6.8198  -6.7316  -6.6878  -6.6635
    -6.5681  -6.3439  -6.3021  -6.2832  -6.2688  -6.2377  -6.1732  -6.1732
    -6.0635  -6.0561  -6.0216  -5.9863  -5.8975  -5.6321  -5.5660  -5.5559
    -5.5422  -5.4931  -5.2408  -5.1878  -5.0619  -5.0011  -5.0007  -4.9343
    -4.9261  -4.8732  -4.7516  -4.6114  -4.4441  -4.3066  -4.2300  -4.0814
    -3.9504  -3.9200  -3.7963  -3.6497  -2.9186  -2.7783  -1.7556  -1.6343
    -1.0416  -0.7856  -0.7593  -0.7253  -0.6529  -0.6177  -0.5654  -0.3017
    -0.1993  -0.1093  -0.0195   0.0339   0.1868   0.2105   0.3843   0.5477
     0.5827   0.6494   0.7814   0.7876   0.8301   0.8663   0.9401   1.0498
     1.0772   1.1157   1.1197   1.1659   1.3637   1.3640   1.3897   1.4596
     1.4636   1.5071   1.5854   1.7105   1.7364   1.7766   1.8116   1.8261
     1.8406   1.9780   1.9844   2.0468   2.0494   2.0872   2.1740   2.2028
     2.3028   2.3040   2.3396   2.3499   2.4008   2.4448   2.4610   2.4648
     2.5143   2.5718   2.6216   2.6351   2.6733   2.6833   2.7105   2.7133
     2.7305   2.7558   2.7688   2.7824   2.8219   2.9389   2.9541   2.9839
     2.9939   3.0079   3.0080   3.0165   3.0392   3.0594   3.1408   3.1511
     3.2023   3.2273   3.2477   3.2504   3.2911   3.3344   3.3526   3.3861
     3.4039   3.4159   3.4471   3.4535   3.4744   3.4917   3.5118   3.5134
     3.5327   3.5478   3.5718   3.5839   3.6627   3.6699   3.7180   3.7829
     3.7965   3.8071   3.8364   3.8378   3.8431   3.8490   3.8813   3.9094
     3.9287   3.9304   3.9346   3.9685   3.9808   3.9833   3.9850   4.0366
     4.0580   4.0983   4.1139   4.1403   4.1863   4.1909   4.2129   4.2291
     4.2344   4.2493   4.2498   4.2815   4.3301   4.3428   4.3485   4.4175
     4.4205   4.4222   4.4259   4.4788   4.5154   4.5209   4.5493   4.6058
     4.6562   4.6747   4.7195   4.7640   4.7822   4.7923   4.7993   4.8033
     4.8286   4.8381   4.8457   4.9073   4.9231   4.9337   4.9623   4.9779
     4.9877   5.0062   5.0435   5.0486   5.0673   5.0726   5.0984   5.1366
     5.1485   5.1825   5.1869   5.2066   5.2128   5.2182   5.2455   5.2667
     5.2804   5.2903   5.3149   5.3170   5.3410   5.3420   5.3478   5.3648
     5.3657   5.3701   5.4016   5.4099   5.4269   5.5021   5.5265   5.5280
     5.5524   5.5540   5.5939   5.6032   5.6120   5.6230   5.6491   5.6562
     5.6732   5.6839   5.6965   5.6987   5.7284   5.7585   5.7851   5.7967
     5.8906   5.9018   5.9407   5.9445   5.9649   6.0025   6.0030   6.0255
     6.0269   6.0340   6.0478   6.0655   6.0826   6.1058   6.1247   6.1265
     6.1328   6.1392   6.1444   6.1449   6.1522   6.1845   6.1975   6.2088
     6.2116   6.2220   6.2513   6.2709   6.2859   6.3035   6.3064   6.3163
     6.3176   6.3387   6.3389   6.3499   6.3620   6.4017   6.4136   6.4195
     6.4272   6.4282   6.4504   6.4616   6.4727   6.4954   6.5158   6.5246
     6.5608   6.5659   6.5680   6.5831   6.5836   6.5916   6.6245   6.6319
     6.6322   6.6559   6.6789   6.7024   6.7480   6.7518   6.7567   6.7778
     6.7867   6.8025   6.8062   6.8248   6.8380   6.8464   6.8583   6.8622
     6.8640   6.8966   6.9266   6.9385

          k = 0.0000 0.0000 0.0019 (184063 PWs)   bands (ev):

   -21.6278 -21.4097 -21.3563 -21.1994 -20.9769 -20.8604 -20.7239 -20.6438
   -20.5549 -20.3114 -20.3005 -20.1595 -20.0762 -19.6912 -19.6262 -19.5736
   -19.4863 -19.4421 -19.3577 -19.2156 -19.0212 -18.9458 -18.6404 -18.5809
   -18.5274 -18.4674 -18.3289 -18.1793 -18.0020 -17.8904 -17.8370 -17.6804
   -17.5734 -17.5007 -17.3827 -17.3110 -17.2899 -17.1585 -17.0586 -16.9484
   -16.8313 -16.8126 -16.5264 -16.3639 -16.3213 -16.2683 -16.2158 -16.1808
   -15.8920 -15.5383 -15.3668 -15.3528 -15.0462 -15.0039 -14.9836 -14.8207
   -14.7461 -14.6352 -14.5015 -14.4124 -14.3960 -14.3172 -14.3169 -13.8198
   -13.6966 -13.6040 -13.5461 -13.5117 -13.4684 -13.3506 -13.3399 -13.1963
   -13.0957 -13.0476 -13.0324 -12.9684 -12.4679 -12.4352 -12.3347 -12.2257
   -12.1670 -11.8224 -11.7580 -11.6988 -11.5781 -11.5730 -11.4439 -11.3802
   -11.3210 -11.2081 -11.2074 -11.0970 -11.0582 -11.0228 -10.8707 -10.7967
   -10.7641 -10.6886 -10.6479 -10.3440 -10.3318 -10.2263 -10.0321  -9.9343
    -9.8538  -9.8377  -9.8016  -9.7706  -9.7649  -9.7045  -9.6436  -9.6037
    -9.5830  -9.5387  -9.4425  -9.4075  -9.3864  -9.3040  -9.2131  -9.1534
    -9.1293  -9.0579  -9.0533  -8.9977  -8.9663  -8.9443  -8.8657  -8.8246
    -8.8143  -8.7198  -8.7197  -8.6759  -8.6348  -8.6296  -8.5808  -8.5397
    -8.4962  -8.4793  -8.4770  -8.4585  -8.4124  -8.3386  -8.3056  -8.1872
    -8.1396  -8.1379  -8.0994  -8.0718  -8.0492  -8.0059  -7.9318  -7.9262
    -7.8915  -7.8676  -7.8326  -7.7507  -7.7464  -7.5443  -7.5095  -7.4809
    -7.4274  -7.3833  -7.3023  -7.2678  -7.2189  -7.2183  -7.2107  -7.1116
    -7.1071  -6.9551  -6.9108  -6.8904  -6.8083  -6.7388  -6.6932  -6.6466
    -6.5640  -6.3441  -6.3021  -6.2932  -6.2723  -6.2465  -6.1789  -6.1560
    -6.0604  -6.0591  -6.0380  -5.9705  -5.8870  -5.6398  -5.5808  -5.5668
    -5.5428  -5.4608  -5.2665  -5.1642  -5.0683  -5.0192  -5.0022  -4.9245
    -4.9112  -4.8701  -4.7510  -4.6158  -4.4464  -4.3192  -4.2157  -4.0784
    -3.9671  -3.9082  -3.7964  -3.6476  -2.9220  -2.7794  -1.7549  -1.6309
    -1.0413  -0.7855  -0.7680  -0.7137  -0.6543  -0.6165  -0.5634  -0.3017
    -0.2257  -0.0818  -0.0218   0.0295   0.1914   0.2046   0.3892   0.5220
     0.5767   0.6854   0.7499   0.7817   0.8305   0.8727   0.9712   1.0496
     1.0688   1.1117   1.1255   1.1746   1.3514   1.3581   1.4027   1.4525
     1.4640   1.5075   1.5811   1.7174   1.7468   1.7687   1.7998   1.8348
     1.8526   1.9650   1.9711   2.0488   2.0595   2.0992   2.1733   2.2066
     2.2811   2.3052   2.3387   2.3627   2.4045   2.4379   2.4541   2.4717
     2.5219   2.5777   2.6220   2.6279   2.6722   2.6852   2.6978   2.7072
     2.7167   2.7394   2.7702   2.8059   2.8392   2.9371   2.9469   2.9873
     2.9968   3.0036   3.0140   3.0166   3.0496   3.0657   3.1177   3.1515
     3.2215   3.2238   3.2381   3.2517   3.2875   3.3212   3.3376   3.3793
     3.4226   3.4231   3.4249   3.4442   3.4722   3.4963   3.5003   3.5022
     3.5586   3.5769   3.5842   3.5953   3.6481   3.6648   3.7336   3.7845
     3.7881   3.8070   3.8285   3.8357   3.8466   3.8482   3.8749   3.9033
     3.9165   3.9293   3.9315   3.9549   3.9712   4.0034   4.0086   4.0595
     4.0756   4.0956   4.1024   4.1530   4.1798   4.1899   4.2062   4.2149
     4.2370   4.2516   4.2551   4.2847   4.3165   4.3192   4.3429   4.3957
     4.4210   4.4336   4.4591   4.5007   4.5067   4.5395   4.5587   4.6051
     4.6562   4.6661   4.7085   4.7406   4.7763   4.7882   4.7940   4.8035
     4.8300   4.8523   4.8587   4.8839   4.9345   4.9354   4.9615   4.9854
     4.9969   5.0122   5.0403   5.0417   5.0670   5.0789   5.1079   5.1289
     5.1398   5.1547   5.1873   5.2076   5.2082   5.2152   5.2418   5.2501
     5.2913   5.3022   5.3211   5.3316   5.3371   5.3432   5.3564   5.3595
     5.3693   5.3697   5.4051   5.4242   5.4478   5.4750   5.5204   5.5237
     5.5550   5.5683   5.5774   5.5857   5.5925   5.6387   5.6452   5.6617
     5.6824   5.6904   5.7015   5.7148   5.7329   5.7789   5.7832   5.7958
     5.8711   5.9004   5.9065   5.9295   5.9592   5.9686   5.9933   6.0256
     6.0267   6.0617   6.0672   6.0872   6.0894   6.1127   6.1227   6.1286
     6.1289   6.1350   6.1395   6.1446   6.1555   6.1848   6.1964   6.1982
     6.2251   6.2417   6.2533   6.2702   6.2830   6.2875   6.3072   6.3132
     6.3239   6.3319   6.3536   6.3570   6.3661   6.3742   6.3985   6.4019
     6.4061   6.4273   6.4590   6.4736   6.4825   6.5097   6.5159   6.5435
     6.5556   6.5595   6.5635   6.5635   6.5884   6.5955   6.6280   6.6432
     6.6437   6.6565   6.6800   6.6918   6.7422   6.7527   6.7565   6.7696
     6.7814   6.8026   6.8212   6.8237   6.8284   6.8461   6.8488   6.8637
     6.8928   6.9014   6.9282   6.9426

          k = 0.0000 0.0000 0.0028 (184069 PWs)   bands (ev):

   -21.6274 -21.4163 -21.3486 -21.1991 -20.9796 -20.8566 -20.7408 -20.6264
   -20.5544 -20.3121 -20.3109 -20.1483 -20.0745 -19.6912 -19.6394 -19.5903
   -19.4649 -19.4425 -19.3473 -19.2276 -19.0193 -18.9339 -18.6413 -18.5846
   -18.5431 -18.4573 -18.3239 -18.1723 -18.0350 -17.8826 -17.8109 -17.7077
   -17.5496 -17.5122 -17.3917 -17.2940 -17.2886 -17.1550 -17.0561 -16.9750
   -16.8125 -16.8040 -16.5298 -16.3729 -16.3179 -16.2856 -16.2157 -16.1689
   -15.8982 -15.5360 -15.3665 -15.3541 -15.0452 -15.0026 -14.9752 -14.8135
   -14.7426 -14.6411 -14.4971 -14.4205 -14.4137 -14.3093 -14.3007 -13.8181
   -13.6976 -13.6432 -13.5436 -13.5375 -13.4489 -13.3789 -13.3069 -13.1751
   -13.1085 -13.0386 -13.0233 -12.9627 -12.4658 -12.4316 -12.3323 -12.2336
   -12.1565 -11.8282 -11.7634 -11.7007 -11.5835 -11.5786 -11.4342 -11.3809
   -11.3498 -11.2075 -11.1804 -11.1051 -11.1050 -11.0035 -10.8314 -10.8079
   -10.7524 -10.6782 -10.6560 -10.3419 -10.3231 -10.2268 -10.0337  -9.9368
    -9.8640  -9.8520  -9.8242  -9.7725  -9.7679  -9.7040  -9.6287  -9.5927
    -9.5725  -9.5298  -9.4514  -9.4119  -9.3764  -9.2916  -9.2128  -9.1525
    -9.1414  -9.0791  -9.0378  -8.9963  -8.9481  -8.9469  -8.8677  -8.8195
    -8.8159  -8.7262  -8.7258  -8.6695  -8.6595  -8.6503  -8.5837  -8.5191
    -8.4990  -8.4796  -8.4759  -8.4349  -8.4155  -8.3318  -8.3070  -8.1882
    -8.1528  -8.1466  -8.1067  -8.0829  -8.0436  -7.9900  -7.9295  -7.9262
    -7.8903  -7.8572  -7.8411  -7.7544  -7.7287  -7.5460  -7.5095  -7.4690
    -7.4286  -7.3978  -7.3210  -7.2704  -7.2186  -7.2178  -7.1953  -7.1203
    -7.0919  -6.9419  -6.9265  -6.9043  -6.7937  -6.7452  -6.7016  -6.6248
    -6.5578  -6.3445  -6.3098  -6.3023  -6.2778  -6.2528  -6.1882  -6.1358
    -6.0660  -6.0550  -6.0522  -5.9547  -5.8714  -5.6571  -5.5965  -5.5681
    -5.5438  -5.4279  -5.2930  -5.1420  -5.0817  -5.0314  -5.0046  -4.9220
    -4.8910  -4.8613  -4.7500  -4.6232  -4.4499  -4.3340  -4.1987  -4.0730
    -3.9853  -3.8985  -3.7964  -3.6440  -2.9276  -2.7811  -1.7538  -1.6253
    -1.0409  -0.7854  -0.7766  -0.7002  -0.6568  -0.6143  -0.5603  -0.3018
    -0.2547  -0.0510  -0.0257   0.0227   0.1956   0.1986   0.3957   0.4912
     0.5771   0.7079   0.7237   0.7824   0.8311   0.8739   1.0114   1.0481
     1.0605   1.1019   1.1371   1.1856   1.3394   1.3484   1.4160   1.4415
     1.4645   1.5082   1.5757   1.7280   1.7589   1.7622   1.7877   1.8460
     1.8648   1.9486   1.9543   2.0503   2.0709   2.1160   2.1721   2.2130
     2.2586   2.3071   2.3370   2.3653   2.4172   2.4278   2.4453   2.4819
     2.5319   2.5861   2.6182   2.6227   2.6693   2.6765   2.6836   2.6869
     2.7223   2.7260   2.7707   2.8298   2.8583   2.9343   2.9382   2.9773
     3.0006   3.0117   3.0158   3.0279   3.0601   3.0744   3.0950   3.1521
     3.2129   3.2239   3.2443   3.2539   3.2777   3.2969   3.3275   3.3618
     3.4229   3.4272   3.4337   3.4467   3.4699   3.4823   3.4921   3.5144
     3.5641   3.5972   3.6127   3.6135   3.6319   3.6654   3.7513   3.7733
     3.7922   3.7995   3.8109   3.8347   3.8534   3.8538   3.8548   3.9023
     3.9156   3.9310   3.9333   3.9339   3.9578   4.0271   4.0407   4.0833
     4.0913   4.0930   4.0965   4.1661   4.1720   4.1873   4.1932   4.1979
     4.2471   4.2525   4.2618   4.2765   4.2934   4.2995   4.3464   4.3725
     4.4256   4.4495   4.4923   4.4987   4.5239   4.5634   4.5695   4.6047
     4.6521   4.6567   4.6940   4.7161   4.7673   4.7694   4.7968   4.7992
     4.8347   4.8596   4.8712   4.8717   4.9380   4.9507   4.9599   4.9810
     5.0008   5.0293   5.0338   5.0457   5.0600   5.0898   5.1181   5.1245
     5.1252   5.1290   5.1852   5.1855   5.2030   5.2194   5.2359   5.2366
     5.3054   5.3235   5.3242   5.3281   5.3449   5.3450   5.3536   5.3557
     5.3741   5.4000   5.4099   5.4406   5.4447   5.4704   5.5123   5.5194
     5.5458   5.5546   5.5656   5.5817   5.5935   5.6421   5.6498   5.6725
     5.6811   5.6909   5.7129   5.7204   5.7617   5.7782   5.7953   5.8041
     5.8545   5.8597   5.8937   5.9138   5.9331   5.9571   5.9900   6.0129
     6.0236   6.0694   6.0796   6.0970   6.1150   6.1209   6.1217   6.1276
     6.1308   6.1398   6.1445   6.1540   6.1614   6.1846   6.1877   6.1941
     6.2266   6.2398   6.2629   6.2693   6.2788   6.2934   6.3030   6.3120
     6.3236   6.3308   6.3467   6.3522   6.3638   6.3715   6.3868   6.3871
     6.4028   6.4254   6.4616   6.4736   6.5017   6.5055   6.5154   6.5347
     6.5456   6.5574   6.5702   6.5756   6.5879   6.6012   6.6278   6.6568
     6.6586   6.6604   6.6811   6.6955   6.7198   6.7349   6.7504   6.7681
     6.7970   6.8040   6.8073   6.8233   6.8334   6.8492   6.8506   6.8657
     6.9091   6.9213   6.9270   6.9531

          k = 0.0000 0.0000 0.0038 (184109 PWs)   bands (ev):

   -21.6268 -21.4236 -21.3400 -21.1988 -20.9830 -20.8516 -20.7581 -20.6086
   -20.5535 -20.3233 -20.3131 -20.1346 -20.0720 -19.6911 -19.6569 -19.6053
   -19.4436 -19.4429 -19.3335 -19.2428 -19.0173 -18.9184 -18.6429 -18.5895
   -18.5595 -18.4483 -18.3171 -18.1627 -18.0682 -17.8792 -17.7797 -17.7356
   -17.5292 -17.5249 -17.3973 -17.2994 -17.2650 -17.1507 -17.0525 -17.0012
   -16.8125 -16.7766 -16.5341 -16.3852 -16.3132 -16.3046 -16.2157 -16.1578
   -15.9062 -15.5329 -15.3797 -15.3418 -15.0437 -15.0008 -14.9637 -14.8050
   -14.7368 -14.6485 -14.4925 -14.4320 -14.4290 -14.3006 -14.2841 -13.8159
   -13.6989 -13.6847 -13.5645 -13.5402 -13.4278 -13.4187 -13.2618 -13.1639
   -13.1227 -13.0223 -13.0143 -12.9549 -12.4628 -12.4266 -12.3290 -12.2413
   -12.1450 -11.8361 -11.7708 -11.7034 -11.5893 -11.5866 -11.4229 -11.3889
   -11.3714 -11.2094 -11.1548 -11.1484 -11.1101 -10.9823 -10.8210 -10.8033
   -10.7284 -10.6662 -10.6661 -10.3390 -10.3120 -10.2275 -10.0359  -9.9395
    -9.8778  -9.8682  -9.8558  -9.7703  -9.7663  -9.7032  -9.6291  -9.5799
    -9.5477  -9.5196  -9.4607  -9.4153  -9.3654  -9.2766  -9.2123  -9.1530
    -9.1520  -9.1000  -9.0221  -8.9937  -8.9529  -8.9281  -8.8705  -8.8187
    -8.8129  -8.7407  -8.7324  -8.6775  -8.6710  -8.6624  -8.5877  -8.5031
    -8.4997  -8.4802  -8.4730  -8.4195  -8.4154  -8.3191  -8.3091  -8.1896
    -8.1698  -8.1565  -8.1149  -8.0966  -8.0373  -7.9717  -7.9271  -7.9263
    -7.8882  -7.8461  -7.8445  -7.7648  -7.7047  -7.5471  -7.5095  -7.4544
    -7.4302  -7.4159  -7.3412  -7.2740  -7.2189  -7.2165  -7.1780  -7.1358
    -7.0683  -6.9439  -6.9262  -6.9221  -6.7779  -6.7496  -6.7121  -6.6002
    -6.5502  -6.3450  -6.3306  -6.3025  -6.2848  -6.2569  -6.2010  -6.1145
    -6.0723  -6.0714  -6.0430  -5.9390  -5.8522  -5.6834  -5.6035  -5.5700
    -5.5451  -5.3950  -5.3201  -5.1276  -5.0952  -5.0371  -5.0076  -4.9188
    -4.8803  -4.8421  -4.7481  -4.6334  -4.4544  -4.3488  -4.1820  -4.0645
    -4.0044  -3.8912  -3.7965  -3.6390  -2.9353  -2.7835  -1.7522  -1.6175
    -1.0405  -0.7852  -0.7841  -0.6857  -0.6603  -0.6109  -0.5564  -0.3019
    -0.2838  -0.0313  -0.0197   0.0147   0.1845   0.2078   0.4008   0.4629
     0.5798   0.6647   0.7631   0.7833   0.8320   0.8726   1.0422   1.0552
     1.0564   1.0915   1.1496   1.1977   1.3275   1.3351   1.4273   1.4295
     1.4653   1.5092   1.5704   1.7416   1.7484   1.7757   1.7811   1.8583
     1.8761   1.9317   1.9361   2.0515   2.0818   2.1349   2.1707   2.2220
     2.2364   2.3098   2.3337   2.3606   2.4161   2.4358   2.4358   2.4946
     2.5429   2.5958   2.6073   2.6237   2.6522   2.6603   2.6626   2.6885
     2.7082   2.7370   2.7698   2.8529   2.8767   2.9297   2.9311   2.9659
     2.9968   3.0107   3.0385   3.0407   3.0601   3.0845   3.0845   3.1530
     3.2024   3.2067   3.2545   3.2570   3.2616   3.2676   3.3218   3.3513
     3.4199   3.4233   3.4311   3.4611   3.4758   3.4795   3.4891   3.5275
     3.5677   3.6090   3.6159   3.6197   3.6344   3.6931   3.7599   3.7693
     3.7717   3.7980   3.8099   3.8333   3.8356   3.8543   3.8582   3.8971
     3.9087   3.9335   3.9351   3.9360   3.9484   4.0514   4.0637   4.0857
     4.0883   4.1107   4.1180   4.1639   4.1711   4.1807   4.1814   4.1892
     4.2458   4.2583   4.2589   4.2684   4.2807   4.2817   4.3490   4.3515
     4.4372   4.4654   4.4863   4.5303   4.5467   4.5805   4.5880   4.6053
     4.6342   4.6584   4.6777   4.6917   4.7435   4.7632   4.7891   4.8002
     4.8382   4.8399   4.8782   4.8920   4.9461   4.9572   4.9677   4.9696
     5.0020   5.0255   5.0464   5.0509   5.0560   5.0959   5.1028   5.1179
     5.1260   5.1295   5.1604   5.1804   5.1881   5.2214   5.2245   5.2348
     5.3140   5.3224   5.3294   5.3376   5.3475   5.3509   5.3541   5.3772
     5.3787   5.4128   5.4161   5.4327   5.4586   5.4800   5.5051   5.5131
     5.5294   5.5401   5.5600   5.5818   5.6082   5.6383   5.6553   5.6736
     5.6828   5.6962   5.7168   5.7320   5.7707   5.7963   5.7968   5.8204
     5.8213   5.8521   5.8590   5.8974   5.9229   5.9356   5.9851   6.0068
     6.0209   6.0670   6.0779   6.1042   6.1189   6.1228   6.1247   6.1270
     6.1407   6.1432   6.1666   6.1672   6.1767   6.1833   6.1905   6.1937
     6.2072   6.2468   6.2547   6.2668   6.2847   6.2863   6.2937   6.3120
     6.3138   6.3283   6.3447   6.3483   6.3521   6.3750   6.3882   6.3907
     6.4173   6.4198   6.4607   6.4722   6.4914   6.4976   6.5097   6.5396
     6.5456   6.5545   6.5650   6.5793   6.5985   6.6171   6.6277   6.6720
     6.6722   6.6750   6.6798   6.6960   6.7019   6.7275   6.7372   6.7613
     6.7936   6.8001   6.8065   6.8151   6.8459   6.8473   6.8626   6.8751
     6.9210   6.9266   6.9496   6.9587

          k = 0.0000 0.0000 0.0047 (184129 PWs)   bands (ev):

   -21.6261 -21.4311 -21.3306 -21.1983 -20.9871 -20.8456 -20.7754 -20.5912
   -20.5519 -20.3370 -20.3144 -20.1194 -20.0689 -19.6911 -19.6773 -19.6192
   -19.4436 -19.4226 -19.3167 -19.2601 -19.0151 -18.9002 -18.6455 -18.5955
   -18.5757 -18.4407 -18.3088 -18.1508 -18.1016 -17.8773 -17.7638 -17.7465
   -17.5452 -17.5053 -17.3999 -17.3059 -17.2408 -17.1464 -17.0476 -17.0261
   -16.8123 -16.7497 -16.5391 -16.4007 -16.3247 -16.3074 -16.2156 -16.1485
   -15.9153 -15.5291 -15.3969 -15.3253 -15.0418 -14.9985 -14.9494 -14.7966
   -14.7278 -14.6570 -14.4896 -14.4504 -14.4358 -14.2915 -14.2679 -13.8134
   -13.7273 -13.7004 -13.5911 -13.5360 -13.4588 -13.4074 -13.2159 -13.1622
   -13.1376 -13.0059 -13.0005 -12.9437 -12.4592 -12.4204 -12.3248 -12.2485
   -12.1330 -11.8460 -11.7800 -11.7070 -11.5969 -11.5947 -11.4154 -11.4111
   -11.3746 -11.2255 -11.1759 -11.1340 -11.1086 -10.9600 -10.8349 -10.7877
   -10.6917 -10.6772 -10.6530 -10.3353 -10.2995 -10.2285 -10.0386  -9.9420
    -9.8961  -9.8896  -9.8839  -9.7663  -9.7653  -9.7023  -9.6360  -9.5668
    -9.5201  -9.5057  -9.4702  -9.4164  -9.3538  -9.2600  -9.2117  -9.1634
    -9.1540  -9.1181  -9.0087  -8.9877  -8.9584  -8.9106  -8.8745  -8.8240
    -8.8051  -8.7624  -8.7392  -8.6918  -8.6862  -8.6550  -8.5926  -8.5086
    -8.4867  -8.4810  -8.4633  -8.4242  -8.4029  -8.3118  -8.2992  -8.1913
    -8.1878  -8.1691  -8.1235  -8.1119  -8.0307  -7.9520  -7.9290  -7.9222
    -7.8850  -7.8472  -7.8303  -7.7766  -7.6795  -7.5477  -7.5094  -7.4378
    -7.4366  -7.4322  -7.3617  -7.2783  -7.2193  -7.2148  -7.1595  -7.1528
    -7.0422  -6.9621  -6.9429  -6.9091  -6.7616  -6.7521  -6.7242  -6.5741
    -6.5418  -6.3537  -6.3459  -6.3027  -6.2931  -6.2601  -6.2165  -6.0929
    -6.0898  -6.0760  -6.0320  -5.9236  -5.8307  -5.7140  -5.6063  -5.5724
    -5.5468  -5.3620  -5.3475  -5.1396  -5.0868  -5.0392  -5.0112  -4.9150
    -4.8746  -4.8182  -4.7445  -4.6464  -4.4596  -4.3633  -4.1672  -4.0523
    -4.0244  -3.8865  -3.7966  -3.6324  -2.9451  -2.7865  -1.7502  -1.6077
    -1.0402  -0.7901  -0.7850  -0.6705  -0.6648  -0.6064  -0.5520  -0.3121
    -0.3021  -0.0386  -0.0004   0.0177   0.1718   0.2186   0.3959   0.4462
     0.5842   0.6210   0.7844   0.8032   0.8331   0.8700   1.0328   1.0560
     1.0809   1.1005   1.1625   1.2103   1.3160   1.3186   1.4106   1.4432
     1.4663   1.5105   1.5661   1.7378   1.7575   1.7637   1.8022   1.8714
     1.8827   1.9170   1.9190   2.0525   2.0913   2.1535   2.1689   2.2160
     2.2334   2.3130   2.3279   2.3533   2.4043   2.4261   2.4559   2.5096
     2.5542   2.5959   2.6038   2.6246   2.6288   2.6380   2.6502   2.6901
     2.7000   2.7491   2.7680   2.8732   2.8916   2.9239   2.9293   2.9540
     2.9895   3.0117   3.0441   3.0544   3.0628   3.0938   3.0951   3.1543
     3.1876   3.1910   3.2179   3.2422   3.2613   3.2719   3.3168   3.3523
     3.4023   3.4133   3.4410   3.4582   3.4866   3.4927   3.4984   3.5409
     3.5711   3.6005   3.6100   3.6187   3.6553   3.7367   3.7409   3.7454
     3.7868   3.8015   3.8101   3.8202   3.8317   3.8480   3.8576   3.8879
     3.9025   3.9398   3.9405   3.9471   3.9479   4.0606   4.0756   4.0793
     4.1039   4.1338   4.1381   4.1558   4.1605   4.1694   4.1812   4.1933
     4.2328   4.2369   4.2646   4.2702   4.2745   4.2826   4.3259   4.3562
     4.4543   4.4766   4.4797   4.5656   4.5677   4.5901   4.6077   4.6085
     4.6151   4.6589   4.6607   4.6743   4.7197   4.7581   4.7727   4.8041
     4.8234   4.8436   4.8774   4.9129   4.9464   4.9532   4.9654   4.9880
     5.0025   5.0159   5.0326   5.0548   5.0666   5.0848   5.1077   5.1120
     5.1312   5.1364   5.1457   5.1677   5.1737   5.2120   5.2159   5.2426
     5.3088   5.3175   5.3282   5.3489   5.3505   5.3663   5.3754   5.3818
     5.3841   5.3988   5.4217   5.4592   5.4662   5.4782   5.4992   5.5033
     5.5246   5.5452   5.5602   5.5783   5.6268   5.6325   5.6586   5.6672
     5.6903   5.6987   5.7076   5.7528   5.7612   5.7815   5.8038   5.8149
     5.8217   5.8407   5.8618   5.8746   5.9096   5.9334   5.9703   6.0099
     6.0177   6.0619   6.0756   6.0921   6.1231   6.1232   6.1265   6.1270
     6.1389   6.1410   6.1699   6.1810   6.1902   6.1903   6.1946   6.2025
     6.2096   6.2468   6.2492   6.2618   6.2774   6.2778   6.2886   6.3017
     6.3130   6.3226   6.3229   6.3552   6.3565   6.3779   6.3966   6.4099
     6.4143   6.4392   6.4484   6.4710   6.4759   6.4951   6.4974   6.5460
     6.5506   6.5508   6.5549   6.5754   6.6254   6.6303   6.6316   6.6490
     6.6757   6.6929   6.6943   6.7051   6.7058   6.7204   6.7227   6.7506
     6.7874   6.7938   6.8078   6.8139   6.8453   6.8516   6.8631   6.8980
     6.9395   6.9422   6.9423   6.9665

          k = 0.0000 0.0000 0.0056 (184135 PWs)   bands (ev):

   -21.6252 -21.4387 -21.3209 -21.1977 -20.9915 -20.8387 -20.7927 -20.5757
   -20.5480 -20.3515 -20.3159 -20.1030 -20.0653 -19.6994 -19.6911 -19.6327
   -19.4444 -19.4021 -19.2976 -19.2790 -19.0128 -18.8799 -18.6499 -18.6022
   -18.5909 -18.4343 -18.2991 -18.1380 -18.1336 -17.8760 -17.7924 -17.7125
   -17.5646 -17.4861 -17.3997 -17.3133 -17.2163 -17.1434 -17.0485 -17.0414
   -16.8121 -16.7237 -16.5443 -16.4191 -16.3456 -16.3007 -16.2154 -16.1418
   -15.9247 -15.5247 -15.4168 -15.3056 -15.0394 -14.9956 -14.9326 -14.7896
   -14.7149 -14.6660 -14.4909 -14.4688 -14.4384 -14.2824 -14.2521 -13.8120
   -13.7690 -13.7021 -13.6173 -13.5313 -13.4989 -13.3877 -13.1710 -13.1670
   -13.1514 -12.9983 -12.9796 -12.9259 -12.4549 -12.4130 -12.3195 -12.2547
   -12.1208 -11.8576 -11.7908 -11.7113 -11.6093 -11.5993 -11.4459 -11.4002
   -11.3737 -11.2634 -11.1793 -11.1265 -11.0920 -10.9373 -10.8488 -10.7789
   -10.6888 -10.6478 -10.6394 -10.3311 -10.2864 -10.2297 -10.0419  -9.9439
    -9.9235  -9.9177  -9.8990  -9.7683  -9.7592  -9.7012  -9.6450  -9.5550
    -9.5042  -9.4796  -9.4782  -9.4142  -9.3419  -9.2421  -9.2110  -9.1722
    -9.1641  -9.1280  -9.0011  -8.9752  -8.9644  -8.8959  -8.8798  -8.8351
    -8.7962  -8.7817  -8.7460  -8.7123  -8.6894  -8.6475  -8.5983  -8.5156
    -8.4822  -8.4822  -8.4449  -8.4295  -8.3967  -8.3152  -8.2735  -8.2062
    -8.1933  -8.1840  -8.1323  -8.1281  -8.0240  -7.9316  -7.9314  -7.9174
    -7.8806  -7.8450  -7.8160  -7.7887  -7.6535  -7.5476  -7.5093  -7.4592
    -7.4347  -7.4198  -7.3821  -7.2835  -7.2198  -7.2130  -7.1706  -7.1401
    -7.0145  -6.9808  -6.9657  -6.8914  -6.7531  -6.7453  -6.7374  -6.5469
    -6.5331  -6.3781  -6.3472  -6.3030  -6.3023  -6.2630  -6.2341  -6.1075
    -6.0798  -6.0714  -6.0195  -5.9084  -5.8075  -5.7465  -5.6071  -5.5753
    -5.5489  -5.3753  -5.3291  -5.1640  -5.0693  -5.0390  -5.0153  -4.9108
    -4.8696  -4.7958  -4.7372  -4.6620  -4.4652  -4.3774  -4.1552  -4.0451
    -4.0361  -3.8845  -3.7967  -3.6244  -2.9569  -2.7901  -1.7478  -1.5958
    -1.0403  -0.7942  -0.7847  -0.6702  -0.6547  -0.6010  -0.5474  -0.3389
    -0.3022  -0.0478  -0.0091   0.0481   0.1581   0.2305   0.3753   0.4464
     0.5773   0.5903   0.7858   0.8345   0.8438   0.8664   1.0226   1.0569
     1.0703   1.1464   1.1759   1.2235   1.2995   1.3047   1.3922   1.4570
     1.4675   1.5122   1.5632   1.7272   1.7519   1.7749   1.8248   1.8759
     1.8848   1.8975   1.9197   2.0536   2.0994   2.1646   2.1671   2.2041
     2.2470   2.3169   2.3183   2.3449   2.3941   2.4165   2.4756   2.5268
     2.5648   2.5841   2.5927   2.6142   2.6241   2.6286   2.6331   2.6918
     2.6968   2.7614   2.7657   2.8846   2.8984   2.9273   2.9330   2.9415
     2.9760   3.0152   3.0308   3.0687   3.0866   3.1053   3.1068   3.1562
     3.1673   3.1756   3.1795   3.2215   3.2670   3.2722   3.3102   3.3631
     3.3806   3.4040   3.4509   3.4560   3.4880   3.5107   3.5206   3.5545
     3.5754   3.5865   3.5977   3.6264   3.6714   3.7134   3.7301   3.7820
     3.7992   3.8026   3.8041   3.8131   3.8308   3.8364   3.8617   3.8679
     3.9134   3.9401   3.9449   3.9595   3.9631   4.0503   4.0703   4.1000
     4.1009   4.1481   4.1507   4.1517   4.1532   4.1772   4.1793   4.2003
     4.2197   4.2241   4.2508   4.2791   4.2809   4.2898   4.3047   4.3603
     4.4671   4.4748   4.4912   4.5829   4.5839   4.5982   4.6116   4.6139
     4.6152   4.6440   4.6451   4.6851   4.6997   4.7517   4.7539   4.8079
     4.8140   4.8451   4.8731   4.9285   4.9312   4.9476   4.9840   4.9992
     5.0014   5.0022   5.0266   5.0331   5.0771   5.0943   5.0987   5.1158
     5.1255   5.1377   5.1453   5.1652   5.1659   5.1979   5.2098   5.2542
     5.2950   5.3053   5.3391   5.3496   5.3528   5.3603   5.3838   5.3918
     5.3999   5.4131   5.4281   5.4364   5.4914   5.4943   5.4968   5.5028
     5.5154   5.5599   5.5712   5.5752   5.6233   5.6455   5.6611   5.6623
     5.6881   5.6969   5.6978   5.7516   5.7527   5.7671   5.7938   5.8017
     5.8211   5.8264   5.8760   5.8878   5.9023   5.9444   5.9559   6.0115
     6.0143   6.0566   6.0707   6.0797   6.1105   6.1185   6.1228   6.1296
     6.1394   6.1419   6.1584   6.1716   6.1821   6.1845   6.2108   6.2176
     6.2225   6.2492   6.2494   6.2606   6.2750   6.2793   6.2976   6.3000
     6.3028   6.3141   6.3152   6.3541   6.3553   6.3797   6.3916   6.4239
     6.4279   6.4442   6.4576   6.4716   6.4739   6.4821   6.4957   6.5260
     6.5447   6.5529   6.5740   6.5750   6.6216   6.6335   6.6355   6.6601
     6.6694   6.6943   6.6968   6.6983   6.7110   6.7300   6.7358   6.7439
     6.7887   6.7909   6.8031   6.8148   6.8355   6.8512   6.8799   6.9151
     6.9315   6.9475   6.9658   6.9723

          k = 0.0000 0.0000 0.0066 (184139 PWs)   bands (ev):

   -21.6241 -21.4463 -21.3108 -21.1971 -20.9963 -20.8311 -20.8099 -20.5654
   -20.5386 -20.3665 -20.3176 -20.0859 -20.0610 -19.7223 -19.6911 -19.6462
   -19.4455 -19.3818 -19.2987 -19.2765 -19.0104 -18.8581 -18.6573 -18.6095
   -18.6036 -18.4291 -18.2882 -18.1680 -18.1207 -17.8749 -17.8212 -17.6780
   -17.5851 -17.4698 -17.3966 -17.3215 -17.1917 -17.1438 -17.0662 -17.0335
   -16.8119 -16.6992 -16.5489 -16.4399 -16.3670 -16.2933 -16.2152 -16.1386
   -15.9334 -15.5199 -15.4390 -15.2831 -15.0365 -14.9922 -14.9136 -14.7844
   -14.6980 -14.6753 -14.4973 -14.4871 -14.4357 -14.2737 -14.2370 -13.8270
   -13.7940 -13.7041 -13.6433 -13.5396 -13.5251 -13.3690 -13.1759 -13.1709
   -13.1204 -12.9915 -12.9646 -12.8991 -12.4500 -12.4046 -12.3131 -12.2600
   -12.1088 -11.8706 -11.8031 -11.7164 -11.6240 -11.6030 -11.4772 -11.3920
   -11.3718 -11.3063 -11.1738 -11.1249 -11.0680 -10.9160 -10.8610 -10.7741
   -10.6981 -10.6253 -10.6021 -10.3264 -10.2736 -10.2310 -10.0455  -9.9573
    -9.9444  -9.9412  -9.9141  -9.7724  -9.7527  -9.6999  -9.6547  -9.5454
    -9.4935  -9.4889  -9.4449  -9.4079  -9.3296  -9.2236  -9.2102  -9.1827
    -9.1792  -9.1290  -8.9972  -8.9707  -8.9586  -8.8961  -8.8800  -8.8510
    -8.7908  -8.7866  -8.7528  -8.7327  -8.6902  -8.6402  -8.6047  -8.5240
    -8.4839  -8.4805  -8.4352  -8.4233  -8.3946  -8.3193  -8.2450  -8.2250
    -8.2008  -8.1956  -8.1442  -8.1412  -8.0173  -7.9344  -7.9118  -7.9101
    -7.8752  -7.8401  -7.8099  -7.7927  -7.6270  -7.5470  -7.5092  -7.4832
    -7.4376  -7.4022  -7.4008  -7.2893  -7.2204  -7.2109  -7.1889  -7.1201
    -6.9997  -6.9899  -6.9857  -6.8736  -6.7529  -6.7509  -6.7290  -6.5242
    -6.5191  -6.4033  -6.3492  -6.3118  -6.3034  -6.2660  -6.2528  -6.1253
    -6.0828  -6.0500  -6.0057  -5.8934  -5.7833  -5.7796  -5.6070  -5.5788
    -5.5514  -5.4035  -5.2965  -5.1906  -5.0548  -5.0347  -5.0196  -4.9063
    -4.8639  -4.7796  -4.7231  -4.6799  -4.4708  -4.3911  -4.1460  -4.0664
    -4.0161  -3.8852  -3.7969  -3.6150  -2.9705  -2.7943  -1.7451  -1.5822
    -1.0408  -0.7963  -0.7844  -0.6764  -0.6385  -0.5956  -0.5426  -0.3636
    -0.3025  -0.0588  -0.0206   0.0804   0.1437   0.2432   0.3490   0.4535
     0.5337   0.5981   0.7874   0.8361   0.8620   0.8849   1.0122   1.0582
     1.0599   1.1895   1.1920   1.2370   1.2788   1.2936   1.3725   1.4689
     1.4709   1.5144   1.5617   1.7167   1.7403   1.7935   1.8482   1.8595
     1.8773   1.8992   1.9300   2.0548   2.1063   2.1549   2.1653   2.2138
     2.2623   2.3037   2.3214   2.3363   2.3867   2.4073   2.4941   2.5462
     2.5677   2.5702   2.5722   2.5983   2.6137   2.6308   2.6330   2.6936
     2.6964   2.7632   2.7734   2.8832   2.8964   2.9279   2.9420   2.9436
     2.9572   3.0215   3.0224   3.0835   3.1081   3.1138   3.1190   3.1358
     3.1465   3.1589   3.1698   3.2008   3.2670   3.2746   3.3015   3.3573
     3.3792   3.3956   3.4575   3.4595   3.4892   3.5313   3.5413   3.5653
     3.5768   3.5820   3.5868   3.6319   3.6617   3.7092   3.7137   3.7918
     3.7919   3.8080   3.8137   3.8137   3.8331   3.8409   3.8498   3.8727
     3.9260   3.9402   3.9515   3.9759   3.9785   4.0387   4.0601   4.0796
     4.1214   4.1333   4.1407   4.1512   4.1731   4.1806   4.1843   4.2110
     4.2203   4.2287   4.2450   4.2749   4.2823   4.2990   4.3011   4.3644
     4.4580   4.4970   4.4996   4.5619   4.5888   4.6002   4.6018   4.6263
     4.6334   4.6364   4.6452   4.6904   4.7000   4.7367   4.7507   4.8078
     4.8114   4.8419   4.8704   4.9093   4.9396   4.9405   4.9879   4.9946
     5.0011   5.0031   5.0046   5.0495   5.0785   5.0883   5.0899   5.1167
     5.1234   5.1422   5.1454   5.1599   5.1762   5.1833   5.2141   5.2666
     5.2764   5.2935   5.3226   5.3515   5.3524   5.3666   5.3901   5.3911
     5.4142   5.4236   5.4347   5.4504   5.4826   5.4903   5.5095   5.5202
     5.5367   5.5586   5.5733   5.5983   5.6096   5.6561   5.6593   5.6604
     5.6655   5.6941   5.7046   5.7291   5.7394   5.7722   5.7748   5.7868
     5.7912   5.8469   5.8746   5.9139   5.9211   5.9508   5.9548   6.0107
     6.0113   6.0526   6.0652   6.0679   6.0907   6.1068   6.1184   6.1214
     6.1340   6.1351   6.1560   6.1638   6.1703   6.1730   6.2020   6.2099
     6.2347   6.2506   6.2577   6.2752   6.2831   6.2864   6.2970   6.3007
     6.3086   6.3203   6.3208   6.3443   6.3574   6.3645   6.3945   6.4118
     6.4433   6.4616   6.4622   6.4747   6.4752   6.4815   6.5064   6.5116
     6.5337   6.5541   6.5761   6.5941   6.6009   6.6346   6.6371   6.6574
     6.6756   6.6780   6.6939   6.7038   6.7119   6.7332   6.7586   6.7599
     6.7881   6.7898   6.8018   6.8174   6.8227   6.8646   6.8954   6.9166
     6.9278   6.9385   6.9802   6.9867

          k = 0.0000 0.0000 0.0075 (184129 PWs)   bands (ev):

   -21.6228 -21.4537 -21.3004 -21.1964 -21.0012 -20.8269 -20.8228 -20.5609
   -20.5232 -20.3817 -20.3194 -20.0681 -20.0563 -19.7457 -19.6911 -19.6598
   -19.4469 -19.3619 -19.3189 -19.2538 -19.0079 -18.8353 -18.6686 -18.6171
   -18.6128 -18.4250 -18.2764 -18.2008 -18.1033 -17.8738 -17.8501 -17.6433
   -17.6062 -17.4571 -17.3902 -17.3305 -17.1674 -17.1508 -17.0761 -17.0239
   -16.8116 -16.6773 -16.5519 -16.4628 -16.3889 -16.2855 -16.2147 -16.1396
   -15.9405 -15.5147 -15.4629 -15.2580 -15.0331 -14.9883 -14.8929 -14.7808
   -14.6845 -14.6780 -14.5075 -14.5052 -14.4292 -14.2655 -14.2226 -13.8673
   -13.7932 -13.7068 -13.6692 -13.5783 -13.5198 -13.3512 -13.1873 -13.1869
   -13.0733 -12.9858 -12.9547 -12.8656 -12.4446 -12.3953 -12.3056 -12.2640
   -12.0970 -11.8848 -11.8165 -11.7222 -11.6407 -11.6057 -11.5088 -11.3934
   -11.3690 -11.3426 -11.1648 -11.1234 -11.0428 -10.9028 -10.8649 -10.7735
   -10.7036 -10.6109 -10.5556 -10.3214 -10.2621 -10.2326 -10.0502  -9.9884
    -9.9658  -9.9443  -9.9296  -9.7785  -9.7463  -9.6983  -9.6647  -9.5388
    -9.4980  -9.4838  -9.4110  -9.3975  -9.3170  -9.2093  -9.2049  -9.2047
    -9.1837  -9.1264  -8.9944  -8.9772  -8.9406  -8.9188  -8.8782  -8.8576
    -8.7909  -8.7762  -8.7594  -8.7530  -8.6901  -8.6336  -8.6112  -8.5340
    -8.4862  -8.4796  -8.4414  -8.4008  -8.3949  -8.3243  -8.2438  -8.2188
    -8.2167  -8.1979  -8.1588  -8.1502  -8.0107  -7.9368  -7.9055  -7.8884
    -7.8692  -7.8331  -7.8206  -7.7799  -7.6000  -7.5459  -7.5091  -7.5082
    -7.4408  -7.4218  -7.3814  -7.2957  -7.2211  -7.2086  -7.2074  -7.0995
    -7.0186  -7.0150  -6.9561  -6.8568  -6.7641  -6.7519  -6.7130  -6.5153
    -6.4909  -6.4290  -6.3525  -6.3216  -6.3038  -6.2717  -6.2691  -6.1433
    -6.0851  -6.0289  -5.9910  -5.8787  -5.8133  -5.7586  -5.6061  -5.5828
    -5.5542  -5.4321  -5.2640  -5.2177  -5.0488  -5.0242  -5.0228  -4.9016
    -4.8570  -4.7706  -4.7013  -4.6996  -4.4764  -4.4048  -4.1390  -4.0882
    -3.9931  -3.8884  -3.7970  -3.6045  -2.9858  -2.7990  -1.7421  -1.5668
    -1.0420  -0.7960  -0.7841  -0.6833  -0.6218  -0.5911  -0.5371  -0.3851
    -0.3027  -0.0719  -0.0328   0.1128   0.1285   0.2568   0.3226   0.4618
     0.4904   0.6080   0.7893   0.8380   0.8570   0.9262   1.0019   1.0496
     1.0600   1.2034   1.2300   1.2508   1.2640   1.2829   1.3518   1.4705
     1.4845   1.5172   1.5616   1.7064   1.7288   1.8129   1.8407   1.8574
     1.8720   1.9134   1.9432   2.0560   2.1121   2.1352   2.1637   2.2338
     2.2788   2.2843   2.3263   2.3275   2.3821   2.3987   2.5113   2.5420
     2.5590   2.5601   2.5675   2.5935   2.5983   2.6346   2.6425   2.6956
     2.6976   2.7613   2.7842   2.8763   2.8903   2.9119   2.9376   2.9513
     2.9657   3.0149   3.0303   3.0944   3.0978   3.1173   3.1250   3.1261
     3.1369   3.1632   3.1646   3.1812   3.2592   3.2843   3.2911   3.3332
     3.3886   3.3960   3.4622   3.4663   3.4907   3.5529   3.5576   3.5595
     3.5796   3.5857   3.5935   3.6323   3.6356   3.6964   3.7203   3.7818
     3.7823   3.7936   3.8146   3.8161   3.8358   3.8422   3.8835   3.8879
     3.9391   3.9412   3.9598   3.9935   3.9938   4.0260   4.0467   4.0565
     4.1065   4.1339   4.1442   4.1530   4.1541   4.1790   4.2010   4.2192
     4.2391   4.2511   4.2524   4.2539   4.2837   4.3091   4.3131   4.3690
     4.4495   4.5056   4.5193   4.5379   4.5776   4.5776   4.5888   4.6343
     4.6406   4.6413   4.6775   4.6874   4.6967   4.7491   4.7511   4.8036
     4.8142   4.8339   4.8694   4.8917   4.9300   4.9320   4.9626   4.9803
     4.9963   5.0140   5.0241   5.0597   5.0704   5.0777   5.1007   5.1064
     5.1170   5.1381   5.1624   5.1687   5.1715   5.1725   5.2343   5.2534
     5.2776   5.2824   5.2995   5.3424   5.3532   5.3705   5.3725   5.4063
     5.4359   5.4415   5.4461   5.4735   5.4783   5.4873   5.5050   5.5439
     5.5562   5.5716   5.5734   5.5918   5.6164   5.6239   5.6579   5.6630
     5.6777   5.6894   5.7025   5.7158   5.7174   5.7566   5.7634   5.7790
     5.7801   5.8686   5.8755   5.9155   5.9521   5.9626   5.9668   6.0095
     6.0106   6.0512   6.0572   6.0598   6.0699   6.0825   6.1076   6.1129
     6.1168   6.1231   6.1463   6.1508   6.1562   6.1770   6.2017   6.2040
     6.2220   6.2524   6.2567   6.2820   6.2881   6.2917   6.2925   6.3106
     6.3313   6.3392   6.3394   6.3415   6.3548   6.3605   6.3746   6.4256
     6.4508   6.4542   6.4569   6.4777   6.4785   6.4978   6.5003   6.5152
     6.5373   6.5550   6.5812   6.5916   6.6049   6.6294   6.6339   6.6504
     6.6585   6.6614   6.7092   6.7106   6.7255   6.7368   6.7632   6.7677
     6.7804   6.8045   6.8147   6.8161   6.8222   6.8862   6.8985   6.9098
     6.9254   6.9382   6.9738   6.9812

          k = 0.0000 0.0000 0.0085 (184141 PWs)   bands (ev):

   -21.6214 -21.4610 -21.2897 -21.1956 -21.0062 -20.8438 -20.8141 -20.5590
   -20.5050 -20.3970 -20.3213 -20.0512 -20.0499 -19.7691 -19.6911 -19.6735
   -19.4488 -19.3422 -19.3393 -19.2298 -19.0051 -18.8117 -18.6836 -18.6248
   -18.6187 -18.4221 -18.2638 -18.2332 -18.0845 -17.8792 -17.8727 -17.6277
   -17.6085 -17.4483 -17.3806 -17.3404 -17.1647 -17.1436 -17.0777 -17.0121
   -16.8112 -16.6598 -16.5517 -16.4873 -16.4112 -16.2775 -16.2138 -16.1454
   -15.9452 -15.5092 -15.4883 -15.2308 -15.0294 -14.9838 -14.8708 -14.7782
   -14.6932 -14.6557 -14.5230 -14.5195 -14.4207 -14.2579 -14.2091 -13.9118
   -13.7877 -13.7110 -13.6952 -13.6155 -13.5138 -13.3345 -13.2031 -13.2001
   -13.0258 -12.9808 -12.9475 -12.8286 -12.4387 -12.3854 -12.2970 -12.2669
   -12.0857 -11.8997 -11.8310 -11.7286 -11.6595 -11.6079 -11.5404 -11.4202
   -11.3655 -11.3551 -11.1531 -11.1212 -11.0176 -10.9071 -10.8508 -10.7775
   -10.7037 -10.5960 -10.5092 -10.3162 -10.2527 -10.2343 -10.0596 -10.0127
    -9.9911  -9.9452  -9.9429  -9.7863  -9.7402  -9.6966  -9.6745  -9.5353
    -9.5070  -9.4746  -9.3832  -9.3771  -9.3041  -9.2276  -9.2082  -9.1913
    -9.1806  -9.1225  -8.9918  -8.9836  -8.9516  -8.9221  -8.8831  -8.8549
    -8.7852  -8.7730  -8.7659  -8.7653  -8.6895  -8.6299  -8.6155  -8.5454
    -8.4895  -8.4789  -8.4479  -8.3967  -8.3778  -8.3300  -8.2627  -8.2374
    -8.2004  -8.1970  -8.1642  -8.1593  -8.0044  -7.9387  -7.8986  -7.8663
    -7.8627  -7.8335  -7.8243  -7.7644  -7.5729  -7.5443  -7.5338  -7.5090
    -7.4444  -7.4410  -7.3620  -7.3026  -7.2261  -7.2220  -7.2059  -7.0786
    -7.0405  -7.0373  -6.9258  -6.8429  -6.7747  -6.7501  -6.6973  -6.5067
    -6.4628  -6.4552  -6.3578  -6.3310  -6.3043  -6.2894  -6.2724  -6.1614
    -6.0871  -6.0081  -5.9755  -5.8643  -5.8471  -5.7337  -5.6044  -5.5873
    -5.5574  -5.4609  -5.2448  -5.2319  -5.0472  -5.0290  -5.0080  -4.8968
    -4.8484  -4.7659  -4.7209  -4.6749  -4.4819  -4.4186  -4.1337  -4.1104
    -3.9680  -3.8940  -3.7970  -3.5930  -3.0026  -2.8042  -1.7388  -1.5499
    -1.0439  -0.7934  -0.7838  -0.6911  -0.6049  -0.5894  -0.5304  -0.4025
    -0.3030  -0.0868  -0.0453   0.1126   0.1448   0.2711   0.2979   0.4475
     0.4696   0.6198   0.7915   0.8401   0.8515   0.9679   0.9918   1.0395
     1.0620   1.2174   1.2218   1.2649   1.2725   1.2938   1.3303   1.4724
     1.4973   1.5214   1.5627   1.6964   1.7174   1.8212   1.8328   1.8374
     1.8956   1.9281   1.9574   2.0573   2.1137   2.1171   2.1625   2.2562
     2.2608   2.2959   2.3189   2.3316   2.3795   2.3910   2.5172   2.5267
     2.5389   2.5480   2.5734   2.5905   2.6061   2.6402   2.6506   2.6977
     2.6999   2.7605   2.7915   2.8678   2.8826   2.8933   2.9214   2.9585
     2.9895   3.0018   3.0393   3.0657   3.0982   3.1145   3.1199   3.1358
     3.1514   3.1578   3.1694   3.1726   3.2502   3.2800   3.2958   3.3088
     3.3835   3.4094   3.4691   3.4722   3.4926   3.5506   3.5678   3.5749
     3.5779   3.5983   3.5999   3.6129   3.6377   3.6783   3.7248   3.7729
     3.7740   3.7752   3.8143   3.8152   3.8295   3.8534   3.9051   3.9276
     3.9447   3.9512   3.9700   4.0063   4.0103   4.0125   4.0300   4.0360
     4.0913   4.1275   4.1284   4.1371   4.1704   4.1776   4.2197   4.2223
     4.2321   4.2580   4.2693   4.2838   4.2854   4.3195   4.3270   4.3749
     4.4416   4.5104   4.5133   4.5345   4.5552   4.5600   4.5702   4.6332
     4.6510   4.6594   4.6628   4.7072   4.7143   4.7525   4.7725   4.8048
     4.8155   4.8245   4.8613   4.8835   4.9102   4.9231   4.9303   4.9738
     4.9861   5.0327   5.0405   5.0461   5.0582   5.0910   5.0982   5.1129
     5.1202   5.1287   5.1547   5.1614   5.1696   5.2000   5.2282   5.2591
     5.2726   5.2805   5.2834   5.3224   5.3317   5.3760   5.3869   5.4240
     5.4456   5.4577   5.4675   5.4768   5.4856   5.4978   5.5019   5.5527
     5.5687   5.5711   5.5745   5.5767   5.6065   5.6411   5.6555   5.6640
     5.6767   5.6846   5.6863   5.6896   5.7231   5.7319   5.7653   5.7789
     5.7849   5.8661   5.9028   5.9036   5.9648   5.9800   5.9897   6.0114
     6.0148   6.0460   6.0496   6.0537   6.0545   6.0560   6.0775   6.1051
     6.1051   6.1075   6.1343   6.1380   6.1416   6.1744   6.2056   6.2068
     6.2179   6.2302   6.2595   6.2679   6.2822   6.2926   6.3095   6.3233
     6.3357   6.3426   6.3545   6.3628   6.3629   6.3679   6.3774   6.4377
     6.4462   6.4468   6.4568   6.4816   6.4824   6.4939   6.4943   6.5134
     6.5553   6.5649   6.5875   6.5922   6.5975   6.6176   6.6219   6.6468
     6.6553   6.6614   6.7080   6.7186   6.7423   6.7424   6.7559   6.7596
     6.7830   6.8199   6.8263   6.8303   6.8332   6.8790   6.9044   6.9185
     6.9225   6.9459   6.9603   6.9828

          k = 0.0000 0.0000 0.0094 (184129 PWs)   bands (ev):

   -21.6199 -21.4681 -21.2788 -21.1947 -21.0112 -20.8605 -20.8048 -20.5578
   -20.4858 -20.4124 -20.3233 -20.0457 -20.0313 -19.7926 -19.6911 -19.6872
   -19.4515 -19.3592 -19.3227 -19.2048 -19.0023 -18.7877 -18.7011 -18.6324
   -18.6223 -18.4203 -18.2649 -18.2505 -18.0647 -17.9084 -17.8715 -17.6493
   -17.5738 -17.4428 -17.3688 -17.3511 -17.1825 -17.1206 -17.0739 -16.9980
   -16.8108 -16.6486 -16.5473 -16.5123 -16.4338 -16.2697 -16.2122 -16.1560
   -15.9473 -15.5148 -15.5034 -15.2015 -15.0253 -14.9789 -14.8481 -14.7764
   -14.7009 -14.6322 -14.5400 -14.5324 -14.4112 -14.2510 -14.1964 -13.9569
   -13.7810 -13.7209 -13.7196 -13.6477 -13.5076 -13.3194 -13.2186 -13.2140
   -12.9834 -12.9716 -12.9418 -12.7899 -12.4323 -12.3748 -12.2872 -12.2685
   -12.0752 -11.9151 -11.8463 -11.7354 -11.6802 -11.6102 -11.5718 -11.4612
   -11.3613 -11.3543 -11.1395 -11.1184 -10.9928 -10.9190 -10.8287 -10.7853
   -10.6988 -10.5807 -10.4637 -10.3110 -10.2457 -10.2361 -10.0805 -10.0227
   -10.0171  -9.9610  -9.9403  -9.7955  -9.7349  -9.6947  -9.6838  -9.5346
    -9.5157  -9.4660  -9.3659  -9.3440  -9.2910  -9.2506  -9.2071  -9.1899
    -9.1629  -9.1181  -8.9901  -8.9892  -8.9879  -8.9034  -8.8889  -8.8527
    -8.7929  -8.7755  -8.7721  -8.7539  -8.6887  -8.6337  -8.6132  -8.5580
    -8.4941  -8.4783  -8.4550  -8.3992  -8.3545  -8.3366  -8.2814  -8.2562
    -8.2030  -8.2013  -8.1683  -8.1456  -7.9985  -7.9398  -7.8912  -7.8558
    -7.8459  -7.8439  -7.8142  -7.7489  -7.5599  -7.5459  -7.5424  -7.5089
    -7.4598  -7.4482  -7.3434  -7.3096  -7.2446  -7.2229  -7.2028  -7.0664
    -7.0572  -7.0557  -6.8951  -6.8370  -6.7779  -6.7478  -6.6820  -6.4983
    -6.4817  -6.4354  -6.3667  -6.3393  -6.3050  -6.3043  -6.2760  -6.1796
    -6.0887  -5.9877  -5.9593  -5.8809  -5.8503  -5.7094  -5.6015  -5.5923
    -5.5609  -5.4901  -5.2717  -5.2003  -5.0467  -5.0338  -4.9941  -4.8920
    -4.8380  -4.7631  -4.7433  -4.6465  -4.4873  -4.4327  -4.1329  -4.1296
    -3.9414  -3.9018  -3.7971  -3.5809  -3.0209  -2.8097  -1.7353  -1.5316
    -1.0466  -0.7883  -0.7836  -0.6999  -0.5917  -0.5877  -0.5213  -0.4150
    -0.3033  -0.1036  -0.0580   0.0957   0.1761   0.2755   0.2862   0.4050
     0.4764   0.6335   0.7939   0.8425   0.8454   0.9818   1.0097   1.0296
     1.0643   1.1968   1.2313   1.2628   1.2792   1.3084   1.3391   1.4744
     1.5077   1.5285   1.5651   1.6866   1.7060   1.8018   1.8173   1.8530
     1.9188   1.9431   1.9722   2.0586   2.0918   2.1215   2.1620   2.2339
     2.2793   2.3106   2.3123   2.3374   2.3780   2.3851   2.4939   2.5175
     2.5357   2.5365   2.5588   2.6137   2.6139   2.6482   2.6565   2.7001
     2.7033   2.7616   2.7907   2.8589   2.8742   2.8771   2.9082   2.9636
     2.9780   3.0138   3.0441   3.0509   3.0781   3.1088   3.1345   3.1412
     3.1438   3.1666   3.1762   3.1806   3.2409   3.2691   3.2845   3.3079
     3.3816   3.4145   3.4772   3.4811   3.4947   3.5439   3.5655   3.5761
     3.5821   3.5968   3.6148   3.6328   3.6383   3.6597   3.7195   3.7536
     3.7642   3.7687   3.8112   3.8185   3.8326   3.8637   3.9221   3.9421
     3.9589   3.9765   3.9818   3.9883   4.0139   4.0142   4.0247   4.0303
     4.0818   4.1030   4.1217   4.1323   4.1605   4.2009   4.2107   4.2224
     4.2414   4.2764   4.2777   4.2950   4.3210   4.3298   4.3415   4.3833
     4.4345   4.4890   4.5152   4.5184   4.5276   4.5503   4.5716   4.6318
     4.6384   4.6623   4.6794   4.7213   4.7370   4.7717   4.7748   4.8135
     4.8149   4.8267   4.8452   4.8857   4.8874   4.8979   4.9146   4.9672
     4.9695   5.0347   5.0393   5.0524   5.0537   5.0948   5.1059   5.1160
     5.1218   5.1351   5.1416   5.1513   5.1719   5.2090   5.2241   5.2650
     5.2670   5.2718   5.2895   5.2902   5.3300   5.3828   5.4036   5.4399
     5.4493   5.4745   5.4772   5.4859   5.4879   5.5003   5.5226   5.5313
     5.5470   5.5510   5.5844   5.5935   5.6289   5.6388   5.6395   5.6645
     5.6732   5.6738   5.6821   5.6915   5.6930   5.7515   5.7759   5.7820
     5.7895   5.8635   5.8931   5.9243   5.9620   5.9821   6.0132   6.0154
     6.0212   6.0223   6.0393   6.0414   6.0487   6.0536   6.0563   6.0869
     6.0957   6.0966   6.1224   6.1264   6.1317   6.1662   6.2092   6.2092
     6.2101   6.2233   6.2354   6.2669   6.2800   6.2972   6.3144   6.3197
     6.3379   6.3417   6.3709   6.3710   6.3727   6.3824   6.4154   6.4364
     6.4425   6.4446   6.4590   6.4826   6.4858   6.4865   6.4905   6.5242
     6.5547   6.5725   6.5839   6.5943   6.5986   6.6049   6.6146   6.6379
     6.6582   6.6821   6.7114   6.7235   6.7282   6.7433   6.7528   6.7687
     6.7879   6.8349   6.8354   6.8384   6.8572   6.8672   6.8909   6.9276
     6.9428   6.9464   6.9646   6.9874

          k = 0.0000 0.0000 0.0103 (184157 PWs)   bands (ev):

   -21.6182 -21.4751 -21.2677 -21.1937 -21.0161 -20.8771 -20.7952 -20.5570
   -20.4661 -20.4278 -20.3253 -20.0401 -20.0124 -19.8158 -19.7010 -19.6911
   -19.4554 -19.3782 -19.3031 -19.1790 -18.9993 -18.7636 -18.7202 -18.6394
   -18.6246 -18.4199 -18.2957 -18.2368 -18.0440 -17.9375 -17.8702 -17.6710
   -17.5393 -17.4393 -17.3629 -17.3560 -17.2014 -17.0986 -17.0673 -16.9815
   -16.8101 -16.6445 -16.5499 -16.5254 -16.4566 -16.2626 -16.2093 -16.1711
   -15.9470 -15.5422 -15.4974 -15.1705 -15.0209 -14.9735 -14.8258 -14.7751
   -14.7068 -14.6091 -14.5547 -14.5454 -14.4012 -14.2450 -14.1848 -14.0021
   -13.7745 -13.7453 -13.7384 -13.6693 -13.5012 -13.3074 -13.2319 -13.2284
   -12.9767 -12.9370 -12.9276 -12.7502 -12.4256 -12.3638 -12.2763 -12.2689
   -12.0658 -11.9304 -11.8623 -11.7426 -11.7029 -11.6142 -11.6028 -11.5029
   -11.3563 -11.3521 -11.1243 -11.1154 -10.9691 -10.9317 -10.8047 -10.7948
   -10.6903 -10.5649 -10.4202 -10.3062 -10.2409 -10.2379 -10.1094 -10.0435
   -10.0210  -9.9768  -9.9365  -9.8057  -9.7313  -9.6926  -9.6918  -9.5360
    -9.5241  -9.4582  -9.3464  -9.3138  -9.2776  -9.2717  -9.2059  -9.1885
    -9.1429  -9.1144  -9.0241  -8.9963  -8.9865  -8.8946  -8.8849  -8.8524
    -8.8126  -8.7780  -8.7636  -8.7420  -8.6879  -8.6417  -8.6078  -8.5716
    -8.5004  -8.4778  -8.4626  -8.4021  -8.3442  -8.3311  -8.3001  -8.2744
    -8.2134  -8.2055  -8.1772  -8.1198  -7.9930  -7.9403  -7.8833  -7.8567
    -7.8487  -7.8213  -7.8029  -7.7337  -7.5863  -7.5401  -7.5194  -7.5087
    -7.4782  -7.4519  -7.3301  -7.3126  -7.2629  -7.2241  -7.1990  -7.0923
    -7.0733  -7.0356  -6.8640  -6.8427  -6.7699  -6.7451  -6.6672  -6.5084
    -6.4902  -6.4107  -6.3803  -6.3445  -6.3149  -6.3058  -6.2798  -6.1979
    -6.0903  -5.9677  -5.9425  -5.9148  -5.8365  -5.6863  -5.5979  -5.5968
    -5.5649  -5.5196  -5.2984  -5.1694  -5.0464  -5.0386  -4.9820  -4.8872
    -4.8258  -4.7663  -4.7609  -4.6172  -4.4928  -4.4469  -4.1557  -4.1263
    -3.9139  -3.9116  -3.7970  -3.5683  -3.0404  -2.8156  -1.7316  -1.5120
    -1.0500  -0.7836  -0.7809  -0.7098  -0.5986  -0.5703  -0.5095  -0.4226
    -0.3036  -0.1221  -0.0707   0.0777   0.2061   0.2559   0.3024   0.3631
     0.4820   0.6491   0.7965   0.8390   0.8452   0.9721   1.0199   1.0516
     1.0669   1.1694   1.2430   1.2558   1.2860   1.2938   1.3852   1.4766
     1.5145   1.5395   1.5689   1.6771   1.6947   1.7826   1.7973   1.8734
     1.9411   1.9583   1.9873   2.0594   2.0704   2.1254   2.1625   2.2044
     2.2999   2.3051   2.3260   2.3436   2.3766   2.3828   2.4725   2.4960
     2.5231   2.5258   2.5645   2.6196   2.6373   2.6586   2.6597   2.7027
     2.7081   2.7652   2.7765   2.8501   2.8654   2.8691   2.8967   2.9487
     2.9670   3.0380   3.0403   3.0460   3.0561   3.0999   3.1394   3.1432
     3.1513   3.1819   3.1820   3.1916   3.2314   3.2594   3.2606   3.3177
     3.3844   3.4096   3.4841   3.4952   3.4970   3.5361   3.5406   3.5812
     3.5910   3.6166   3.6300   3.6374   3.6430   3.6522   3.7106   3.7333
     3.7565   3.7592   3.8076   3.8229   3.8448   3.8725   3.9334   3.9446
     3.9587   3.9633   3.9947   4.0034   4.0081   4.0107   4.0410   4.0433
     4.0777   4.0789   4.1163   4.1306   4.1538   4.1903   4.2153   4.2341
     4.2583   4.2738   4.2948   4.3185   4.3393   4.3544   4.3563   4.3970
     4.4279   4.4662   4.4926   4.4980   4.5209   4.5301   4.5881   4.6093
     4.6394   4.6731   4.7002   4.7224   4.7621   4.7647   4.8041   4.8065
     4.8119   4.8263   4.8566   4.8639   4.8656   4.8919   4.9078   4.9487
     4.9608   5.0102   5.0373   5.0597   5.0720   5.0925   5.1035   5.1155
     5.1297   5.1300   5.1375   5.1564   5.1607   5.2119   5.2336   5.2525
     5.2561   5.2586   5.2766   5.3129   5.3369   5.3908   5.4196   5.4464
     5.4506   5.4828   5.4841   5.4886   5.4913   5.4997   5.5075   5.5285
     5.5449   5.5476   5.5970   5.5987   5.6080   5.6131   5.6533   5.6648
     5.6743   5.6795   5.6822   5.6888   5.6955   5.7725   5.7855   5.7938
     5.7947   5.8583   5.8865   5.9287   5.9625   5.9802   5.9939   6.0010
     6.0053   6.0062   6.0341   6.0421   6.0491   6.0554   6.0660   6.0736
     6.0846   6.0847   6.1172   6.1229   6.1305   6.1575   6.1939   6.1972
     6.2116   6.2226   6.2261   6.2554   6.2856   6.3010   6.3176   6.3235
     6.3315   6.3363   6.3647   6.3783   6.4003   6.4067   6.4144   6.4309
     6.4467   6.4529   6.4816   6.4842   6.4857   6.4859   6.4936   6.5228
     6.5550   6.5579   6.5787   6.5954   6.5972   6.6071   6.6225   6.6293
     6.6619   6.7043   6.7054   6.7189   6.7325   6.7397   6.7612   6.7669
     6.8020   6.8181   6.8448   6.8609   6.8754   6.8762   6.8793   6.9206
     6.9562   6.9597   6.9622   6.9790

          k = 0.0000 0.0000 0.0113 (184145 PWs)   bands (ev):

   -21.6164 -21.4818 -21.2563 -21.1927 -21.0209 -20.8935 -20.7852 -20.5564
   -20.4461 -20.4432 -20.3272 -20.0343 -19.9932 -19.8386 -19.7147 -19.6911
   -19.4613 -19.3951 -19.2836 -19.1526 -18.9961 -18.7403 -18.7401 -18.6453
   -18.6262 -18.4215 -18.3246 -18.2226 -18.0226 -17.9666 -17.8686 -17.6926
   -17.5055 -17.4372 -17.3756 -17.3432 -17.2195 -17.0774 -17.0593 -16.9627
   -16.8093 -16.6461 -16.5751 -16.5125 -16.4796 -16.2568 -16.2046 -16.1900
   -15.9449 -15.5703 -15.4913 -15.1380 -15.0163 -14.9676 -14.8057 -14.7740
   -14.7092 -14.5952 -14.5591 -14.5579 -14.3910 -14.2399 -14.1743 -14.0473
   -13.7805 -13.7687 -13.7564 -13.6788 -13.4949 -13.3017 -13.2432 -13.2397
   -12.9754 -12.9330 -12.8794 -12.7100 -12.4184 -12.3526 -12.2682 -12.2642
   -12.0581 -11.9450 -11.8788 -11.7501 -11.7277 -11.6331 -11.6241 -11.5386
   -11.3508 -11.3507 -11.1127 -11.1082 -10.9529 -10.9373 -10.8042 -10.7801
   -10.6796 -10.5485 -10.3811 -10.3018 -10.2396 -10.2362 -10.1404 -10.0701
   -10.0135  -9.9928  -9.9313  -9.8166  -9.7306  -9.6972  -9.6903  -9.5392
    -9.5324  -9.4515  -9.3255  -9.3065  -9.2711  -9.2640  -9.2047  -9.1853
    -9.1227  -9.1143  -9.0558  -9.0024  -8.9836  -8.9002  -8.8665  -8.8536
    -8.8320  -8.7835  -8.7507  -8.7298  -8.6871  -8.6508  -8.6028  -8.5857
    -8.5086  -8.4773  -8.4707  -8.4049  -8.3527  -8.3187  -8.3075  -8.2916
    -8.2256  -8.2078  -8.1859  -8.0953  -7.9880  -7.9402  -7.8750  -7.8649
    -7.8414  -7.7983  -7.7906  -7.7190  -7.6127  -7.5375  -7.5086  -7.4962
    -7.4947  -7.4542  -7.3328  -7.3016  -7.2809  -7.2256  -7.1946  -7.1181
    -7.0897  -7.0137  -6.8560  -6.8325  -6.7549  -6.7421  -6.6528  -6.5353
    -6.4825  -6.3983  -6.3946  -6.3407  -6.3216  -6.3068  -6.2838  -6.2161
    -6.0919  -5.9483  -5.9480  -5.9252  -5.8231  -5.6661  -5.6039  -5.5889
    -5.5691  -5.5493  -5.3248  -5.1398  -5.0463  -5.0429  -4.9719  -4.8826
    -4.8120  -4.7896  -4.7586  -4.5876  -4.4987  -4.4612  -4.1787  -4.1235
    -3.9233  -3.8860  -3.7966  -3.5556  -3.0611  -2.8217  -1.7278  -1.4913
    -1.0540  -0.7839  -0.7711  -0.7210  -0.6089  -0.5528  -0.4952  -0.4256
    -0.3040  -0.1422  -0.0834   0.0586   0.2343   0.2392   0.3155   0.3265
     0.4866   0.6662   0.7994   0.8323   0.8480   0.9625   1.0104   1.0697
     1.0936   1.1408   1.2401   1.2636   1.2638   1.3087   1.4304   1.4789
     1.5191   1.5533   1.5745   1.6678   1.6834   1.7638   1.7774   1.8938
     1.9620   1.9739   2.0027   2.0467   2.0628   2.1291   2.1643   2.1727
     2.2941   2.3262   2.3335   2.3502   2.3745   2.3870   2.4537   2.4751
     2.5074   2.5102   2.5783   2.6243   2.6595   2.6601   2.6710   2.7053
     2.7153   2.7504   2.7713   2.8415   2.8564   2.8639   2.8872   2.9240
     2.9687   3.0287   3.0337   3.0454   3.0621   3.0854   3.1429   3.1488
     3.1683   3.1859   3.1975   3.2019   3.2221   3.2379   3.2528   3.3227
     3.3925   3.3978   3.4802   3.4996   3.5130   3.5176   3.5415   3.5870
     3.6027   3.6155   3.6337   3.6454   3.6483   3.6616   3.7092   3.7137
     3.7482   3.7498   3.8038   3.8267   3.8620   3.8798   3.9221   3.9376
     3.9468   3.9668   3.9923   4.0079   4.0127   4.0180   4.0476   4.0663
     4.0742   4.0794   4.1109   4.1267   4.1581   4.1719   4.2192   4.2555
     4.2686   4.2729   4.3122   4.3436   4.3475   4.3711   4.3819   4.4196
     4.4204   4.4480   4.4657   4.4679   4.5103   4.5278   4.5823   4.5988
     4.6520   4.6817   4.7202   4.7208   4.7505   4.7883   4.7951   4.8069
     4.8149   4.8336   4.8374   4.8435   4.8795   4.9035   4.9062   4.9259
     4.9550   4.9857   5.0380   5.0633   5.0753   5.0885   5.1040   5.1083
     5.1207   5.1255   5.1350   5.1498   5.1844   5.2270   5.2285   5.2286
     5.2362   5.2440   5.3011   5.3357   5.3462   5.3996   5.4250   5.4404
     5.4498   5.4566   5.4867   5.4888   5.4968   5.5018   5.5158   5.5261
     5.5418   5.5652   5.5738   5.5810   5.6039   5.6135   5.6624   5.6650
     5.6771   5.6800   5.6878   5.6998   5.7192   5.7874   5.7936   5.7972
     5.8198   5.8513   5.8833   5.9123   5.9533   5.9778   5.9803   5.9806
     5.9857   5.9859   6.0328   6.0330   6.0423   6.0441   6.0612   6.0686
     6.0748   6.1037   6.1124   6.1344   6.1456   6.1504   6.1717   6.1831
     6.2070   6.2157   6.2320   6.2482   6.2902   6.3029   6.3204   6.3246
     6.3302   6.3408   6.3522   6.3829   6.3839   6.4075   6.4380   6.4431
     6.4451   6.4698   6.4764   6.4770   6.4997   6.5009   6.5074   6.5194
     6.5419   6.5581   6.5850   6.5881   6.5945   6.6149   6.6217   6.6353
     6.6627   6.6893   6.7147   6.7283   6.7319   6.7521   6.7535   6.7899
     6.7957   6.8107   6.8556   6.8576   6.8848   6.8896   6.9006   6.9177
     6.9317   6.9689   6.9716   6.9947

          k = 0.0000 0.0000 0.0122 (184171 PWs)   bands (ev):

   -21.6144 -21.4883 -21.2448 -21.1917 -21.0256 -20.9097 -20.7748 -20.5559
   -20.4584 -20.4259 -20.3292 -20.0288 -19.9737 -19.8607 -19.7284 -19.6912
   -19.4705 -19.4090 -19.2641 -19.1257 -18.9929 -18.7604 -18.7191 -18.6483
   -18.6275 -18.4268 -18.3501 -18.2084 -18.0009 -17.9953 -17.8668 -17.7141
   -17.4734 -17.4358 -17.3886 -17.3310 -17.2358 -17.0571 -17.0507 -16.9418
   -16.8081 -16.6514 -16.6044 -16.5028 -16.4936 -16.2528 -16.2118 -16.1976
   -15.9414 -15.5990 -15.4851 -15.1041 -15.0116 -14.9613 -14.7905 -14.7732
   -14.7061 -14.6021 -14.5694 -14.5415 -14.3808 -14.2356 -14.1654 -14.0919
   -13.8049 -13.8041 -13.7490 -13.6817 -13.4887 -13.3058 -13.2582 -13.2382
[...]
    -8.2443  -8.2307  -8.0757  -8.0559  -7.9633  -7.9272  -7.9033  -7.7799
    -7.7442  -7.7292  -7.6573  -7.6421  -7.6184  -7.5689  -7.5472  -7.5362
    -7.5014  -7.4289  -7.4213  -7.3870  -7.2546  -7.2369  -7.2213  -7.2130
    -7.0642  -6.9844  -6.8068  -6.7834  -6.7106  -6.6386  -6.5619  -6.5494
    -6.5046  -6.4479  -6.4386  -6.4063  -6.3409  -6.3239  -6.3039  -6.2907
    -6.0873  -6.0521  -5.8605  -5.7792  -5.7416  -5.7134  -5.6916  -5.6240
    -5.6213  -5.5566  -5.3457  -5.1894  -5.0462  -4.9669  -4.9370  -4.8475
    -4.8247  -4.7642  -4.6713  -4.5989  -4.5187  -4.4135  -4.3019  -4.1095
    -4.1011  -3.8032  -3.6144  -3.4572  -3.2832  -2.8746  -1.6966  -1.2709
    -1.0965  -0.9301  -0.7684  -0.6851  -0.5827  -0.4314  -0.3760  -0.3553
    -0.3040  -0.2665  -0.1844  -0.1355  -0.0622   0.1764   0.3727   0.5022
     0.6088   0.7577   0.8420   0.8463   0.8802   0.8803   0.8904   0.9288
     1.0237   1.1079   1.1622   1.4213   1.4658   1.5071   1.5164   1.5244
     1.5756   1.5771   1.5852   1.6123   1.6317   1.7226   1.7785   1.8372
     1.9456   2.0467   2.0767   2.1037   2.1417   2.1564   2.1715   2.2253
     2.2327   2.2400   2.2597   2.2904   2.2913   2.2946   2.4315   2.4516
     2.4784   2.5859   2.5910   2.6009   2.6080   2.6534   2.7063   2.7276
     2.7454   2.7707   2.7783   2.7814   2.8064   2.8305   2.8726   2.8746
     2.8827   2.9631   3.0063   3.0217   3.0416   3.0703   3.0876   3.1394
     3.1400   3.1824   3.2077   3.2101   3.2853   3.2878   3.3536   3.3744
     3.3939   3.4274   3.4312   3.4469   3.4880   3.4904   3.5299   3.5865
     3.5930   3.5993   3.6221   3.6575   3.7037   3.7140   3.7278   3.7470
     3.7780   3.8015   3.8162   3.8343   3.8481   3.8606   3.8799   3.9056
     3.9172   3.9436   3.9737   3.9748   4.0224   4.0326   4.0554   4.0647
     4.0815   4.1162   4.1361   4.1570   4.1951   4.2216   4.2340   4.2751
     4.2987   4.3121   4.3466   4.3549   4.3664   4.3781   4.4714   4.4909
     4.5037   4.5095   4.5213   4.5692   4.5816   4.5865   4.5911   4.6115
     4.6156   4.6238   4.6434   4.6574   4.7002   4.7027   4.7567   4.7864
     4.7867   4.8235   4.8417   4.8477   4.8797   4.9034   4.9213   4.9406
     4.9422   4.9628   4.9745   5.0094   5.0346   5.0413   5.0611   5.0725
     5.0842   5.0953   5.1064   5.1447   5.1467   5.1717   5.2252   5.2551
     5.2600   5.2753   5.2804   5.3052   5.3644   5.3797   5.4160   5.4183
     5.4455   5.4485   5.4894   5.4909   5.5099   5.5229   5.5435   5.5620
     5.5996   5.6151   5.6256   5.6264   5.6336   5.6655   5.6703   5.6908
     5.6958   5.7029   5.7088   5.7298   5.7590   5.7708   5.7906   5.8066
     5.8142   5.8166   5.8479   5.8731   5.8756   5.9033   5.9148   5.9403
     5.9416   5.9554   5.9621   5.9707   6.0259   6.0263   6.0317   6.0571
     6.0622   6.0910   6.0963   6.1104   6.1304   6.1569   6.1628   6.1652
     6.1745   6.1959   6.2181   6.2563   6.2721   6.2776   6.2969   6.2987
     6.3071   6.3375   6.3460   6.3667   6.3731   6.3983   6.4180   6.4414
     6.4522   6.4604   6.4670   6.4819   6.4992   6.5122   6.5247   6.5472
     6.5539   6.5672   6.5715   6.6227   6.6437   6.6724   6.7282   6.7357
     6.7463   6.7686   6.7799   6.7847   6.7918   6.7988   6.8212   6.8659
     6.8729   6.8739   6.8838   6.8937   6.8972   6.9039   6.9114   6.9200
     6.9339   6.9441   6.9596   7.0122

          k = 0.0000 0.0000 0.0216 (184017 PWs)   bands (ev):

   -21.5937 -21.5347 -21.1833 -21.1186 -21.0620 -21.0553 -20.6572 -20.6033
   -20.5529 -20.3442 -20.2116 -20.1237 -19.9116 -19.8509 -19.7737 -19.7101
   -19.6445 -19.4385 -19.0645 -18.9818 -18.9668 -18.8277 -18.7247 -18.7097
   -18.6144 -18.4256 -18.3924 -18.2986 -18.0435 -17.9010 -17.8814 -17.7307
   -17.6255 -17.4324 -17.3345 -17.2676 -17.0879 -16.9775 -16.9439 -16.8620
   -16.8231 -16.7376 -16.7181 -16.6284 -16.4989 -16.3346 -16.2696 -16.0275
   -15.9067 -15.8822 -15.4375 -14.9753 -14.8943 -14.7929 -14.7769 -14.7290
   -14.7095 -14.7089 -14.5391 -14.3846 -14.3007 -14.2647 -14.2371 -14.1833
   -14.1513 -14.0314 -13.6534 -13.6178 -13.4676 -13.4389 -13.3791 -13.1189
   -13.0274 -12.9142 -12.3544 -12.3090 -12.2652 -12.2411 -12.2370 -12.1521
   -12.1259 -12.1250 -12.0916 -12.0150 -11.9387 -11.8891 -11.8059 -11.5332
   -11.3869 -11.2626 -11.1654 -11.0290 -11.0010 -10.7700 -10.7062 -10.5668
   -10.5024 -10.4809 -10.3928 -10.3921 -10.3523 -10.2944 -10.2185 -10.1786
    -9.9071  -9.8972  -9.8276  -9.8016  -9.7508  -9.6812  -9.6608  -9.6212
    -9.5983  -9.5973  -9.5807  -9.3271  -9.1925  -9.1249  -9.1103  -9.0995
    -9.0458  -9.0413  -9.0322  -8.9623  -8.9589  -8.9021  -8.8929  -8.8729
    -8.8197  -8.7586  -8.7558  -8.7365  -8.7050  -8.6965  -8.6943  -8.6117
    -8.5758  -8.5105  -8.4735  -8.4668  -8.4480  -8.4186  -8.4132  -8.2706
    -8.2462  -8.2314  -8.0800  -8.0307  -7.9627  -7.9277  -7.9265  -7.7773
    -7.7344  -7.7148  -7.6703  -7.6271  -7.6115  -7.5598  -7.5520  -7.5455
    -7.4964  -7.4314  -7.4262  -7.4094  -7.2602  -7.2365  -7.2217  -7.1876
    -7.0879  -6.9617  -6.8310  -6.7595  -6.7091  -6.6626  -6.5458  -6.5454
    -6.4720  -6.4507  -6.4428  -6.4159  -6.3529  -6.3260  -6.3121  -6.3044
    -6.0877  -6.0211  -5.8910  -5.7663  -5.7280  -5.7072  -5.7019  -5.6285
    -5.6210  -5.5721  -5.3180  -5.2131  -5.0462  -4.9715  -4.9365  -4.8460
    -4.7982  -4.7640  -4.6954  -4.5814  -4.5198  -4.4304  -4.2826  -4.1183
    -4.1091  -3.8032  -3.5985  -3.4534  -3.2978  -2.8769  -1.6953  -1.2568
    -1.0984  -0.9445  -0.7682  -0.6870  -0.5598  -0.4478  -0.3723  -0.3533
    -0.3048  -0.2411  -0.1857  -0.1467  -0.0958   0.1752   0.3766   0.5025
     0.6400   0.7437   0.8268   0.8476   0.8736   0.8958   0.9034   0.9222
     1.0001   1.1114   1.1574   1.4374   1.4800   1.5035   1.5107   1.5605
     1.5669   1.5785   1.5856   1.6074   1.6258   1.7371   1.7409   1.8175
     1.9932   2.0480   2.0774   2.1205   2.1527   2.1644   2.1851   2.1889
     2.2166   2.2365   2.2408   2.2747   2.2923   2.2950   2.4331   2.4642
     2.4712   2.5802   2.5998   2.6048   2.6136   2.6559   2.7093   2.7162
     2.7485   2.7629   2.7793   2.7855   2.8019   2.8240   2.8586   2.8782
     2.8900   2.9855   2.9911   3.0275   3.0519   3.0638   3.0961   3.1196
     3.1330   3.1705   3.1929   3.2120   3.2823   3.3079   3.3719   3.3849
     3.3927   3.4404   3.4429   3.4481   3.4708   3.4862   3.5280   3.5717
     3.5796   3.5877   3.6176   3.6506   3.7213   3.7263   3.7315   3.7465
     3.7755   3.7982   3.8236   3.8512   3.8552   3.8642   3.8781   3.9022
     3.9122   3.9248   3.9751   3.9983   4.0145   4.0436   4.0519   4.0662
     4.0711   4.1040   4.1229   4.1656   4.1804   4.2324   4.2335   4.2773
     4.2906   4.3056   4.3568   4.3620   4.3682   4.4011   4.4726   4.4874
     4.4973   4.4979   4.5390   4.5574   4.5864   4.5889   4.6066   4.6080
     4.6102   4.6381   4.6530   4.6821   4.6836   4.7156   4.7454   4.7570
     4.7852   4.8192   4.8541   4.8572   4.8582   4.9091   4.9170   4.9377
     4.9533   4.9635   4.9710   5.0077   5.0084   5.0343   5.0701   5.0743
     5.0773   5.0905   5.1198   5.1321   5.1424   5.1727   5.2318   5.2435
     5.2488   5.2636   5.2978   5.3259   5.3686   5.3847   5.4215   5.4265
     5.4350   5.4436   5.4974   5.5014   5.5116   5.5142   5.5433   5.5590
     5.5926   5.6165   5.6269   5.6377   5.6477   5.6571   5.6693   5.6749
     5.6899   5.7034   5.7230   5.7500   5.7520   5.7540   5.7661   5.7978
     5.8120   5.8218   5.8333   5.8648   5.9026   5.9035   5.9158   5.9386
     5.9463   5.9659   5.9759   5.9891   6.0220   6.0256   6.0284   6.0291
     6.0588   6.0919   6.0953   6.1143   6.1338   6.1406   6.1674   6.1674
     6.1970   6.2009   6.2264   6.2513   6.2554   6.2717   6.2767   6.2870
     6.3116   6.3331   6.3426   6.3534   6.3736   6.3990   6.4124   6.4366
     6.4448   6.4694   6.4745   6.4748   6.5114   6.5299   6.5454   6.5471
     6.5613   6.5652   6.5805   6.6307   6.6311   6.6897   6.7145   6.7333
     6.7355   6.7427   6.7781   6.7850   6.8082   6.8218   6.8274   6.8507
     6.8705   6.8825   6.8924   6.8937   6.9053   6.9173   6.9229   6.9357
     6.9365   6.9489   6.9626   6.9910

          k = 0.0000 0.0000 0.0225 (184049 PWs)   bands (ev):

   -21.5928 -21.5362 -21.1831 -21.1052 -21.0759 -21.0560 -20.6445 -20.6166
   -20.5528 -20.3445 -20.1901 -20.1450 -19.9058 -19.8581 -19.7551 -19.7213
   -19.6521 -19.4387 -19.0451 -19.0004 -18.9660 -18.8011 -18.7361 -18.7260
   -18.6161 -18.4017 -18.3925 -18.3226 -18.0356 -17.9100 -17.8807 -17.7063
   -17.6503 -17.4323 -17.3353 -17.2664 -17.0534 -16.9812 -16.9726 -16.8486
   -16.8224 -16.7502 -16.7204 -16.6029 -16.5266 -16.3293 -16.2719 -16.0109
   -15.9058 -15.9010 -15.4362 -14.9744 -14.8913 -14.7926 -14.7753 -14.7321
   -14.7130 -14.6716 -14.5803 -14.3592 -14.2980 -14.2451 -14.2427 -14.2056
   -14.1626 -14.0383 -13.6519 -13.6100 -13.4763 -13.4366 -13.3836 -13.1128
   -13.0319 -12.9140 -12.3317 -12.2810 -12.2406 -12.2330 -12.2260 -12.1880
   -12.1514 -12.1401 -12.0987 -12.0161 -11.9389 -11.8990 -11.8073 -11.5309
   -11.3891 -11.2577 -11.1707 -11.0294 -11.0008 -10.7664 -10.6888 -10.5796
   -10.4772 -10.4768 -10.4166 -10.4035 -10.3477 -10.2904 -10.2188 -10.1888
    -9.9034  -9.8985  -9.8278  -9.7585  -9.7378  -9.6832  -9.6654  -9.6596
    -9.6002  -9.5990  -9.5925  -9.3270  -9.1922  -9.1181  -9.1092  -9.0836
    -9.0488  -9.0467  -9.0389  -8.9613  -8.9581  -8.8936  -8.8872  -8.8488
    -8.8315  -8.7801  -8.7543  -8.7380  -8.7089  -8.7023  -8.6943  -8.6101
    -8.5609  -8.5260  -8.4734  -8.4606  -8.4518  -8.4190  -8.4189  -8.2703
    -8.2473  -8.2317  -8.0827  -8.0057  -7.9623  -7.9523  -7.9261  -7.7757
    -7.7254  -7.7054  -7.6811  -7.6138  -7.6054  -7.5716  -7.5540  -7.5411
    -7.4888  -7.4324  -7.4291  -7.4283  -7.2638  -7.2362  -7.2220  -7.1628
    -7.1117  -6.9425  -6.8511  -6.7355  -6.7081  -6.6868  -6.5429  -6.5336
    -6.4525  -6.4496  -6.4395  -6.4199  -6.3771  -6.3273  -6.3208  -6.3047
    -6.0879  -5.9912  -5.9207  -5.7560  -5.7183  -5.7107  -5.7030  -5.6316
    -5.6208  -5.5829  -5.2907  -5.2380  -5.0462  -4.9742  -4.9361  -4.8452
    -4.7719  -4.7639  -4.7202  -4.5685  -4.5205  -4.4430  -4.2685  -4.1311
    -4.1089  -3.8032  -3.5882  -3.4511  -3.3075  -2.8783  -1.6945  -1.2476
    -1.0995  -0.9539  -0.7681  -0.6881  -0.5393  -0.4660  -0.3699  -0.3499
    -0.3055  -0.2226  -0.1780  -0.1539  -0.1276   0.1746   0.3790   0.5026
     0.6699   0.7240   0.8150   0.8531   0.8673   0.9011   0.9162   0.9262
     0.9770   1.1139   1.1541   1.4526   1.4899   1.4904   1.5165   1.5456
     1.5793   1.5867   1.6047   1.6090   1.6217   1.6957   1.7594   1.7982
     2.0342   2.0550   2.0779   2.1342   2.1407   2.1550   2.1800   2.2033
     2.2056   2.2229   2.2311   2.2618   2.2909   2.2996   2.4341   2.4649
     2.4769   2.5643   2.6028   2.6091   2.6335   2.6581   2.6969   2.7164
     2.7506   2.7560   2.7778   2.7926   2.7989   2.8234   2.8436   2.8841
     2.8947   2.9802   2.9993   3.0410   3.0582   3.0596   3.0953   3.1056
     3.1265   3.1653   3.1823   3.2133   3.2805   3.3279   3.3670   3.3888
     3.4111   3.4322   3.4488   3.4517   3.4663   3.5025   3.5178   3.5576
     3.5585   3.5844   3.6207   3.6444   3.7331   3.7380   3.7405   3.7463
     3.7667   3.7813   3.8418   3.8596   3.8668   3.8693   3.8790   3.8970
     3.9063   3.9089   3.9748   4.0078   4.0218   4.0498   4.0550   4.0584
     4.0643   4.0966   4.1077   4.1723   4.1761   4.2273   4.2428   4.2802
     4.2833   4.3007   4.3508   4.3693   4.3898   4.4208   4.4516   4.4862
     4.4869   4.5024   4.5440   4.5557   4.5845   4.5936   4.5985   4.6058
     4.6255   4.6472   4.6677   4.6748   4.7119   4.7266   4.7283   4.7408
     4.7674   4.8091   4.8331   4.8660   4.8901   4.9077   4.9148   4.9331
     4.9502   4.9698   4.9762   4.9904   5.0050   5.0297   5.0458   5.0743
     5.0871   5.0979   5.1198   5.1370   5.1507   5.1726   5.2124   5.2150
     5.2596   5.2666   5.3249   5.3362   5.3688   5.4003   5.4008   5.4230
     5.4403   5.4532   5.4825   5.4847   5.5175   5.5297   5.5582   5.5690
     5.5700   5.6064   5.6282   5.6442   5.6505   5.6608   5.6751   5.6757
     5.6833   5.7082   5.7290   5.7384   5.7404   5.7494   5.7753   5.7882
     5.8141   5.8215   5.8228   5.8474   5.9029   5.9245   5.9327   5.9380
     5.9471   5.9633   5.9944   5.9996   6.0146   6.0148   6.0297   6.0298
     6.0519   6.0763   6.0952   6.0993   6.1289   6.1538   6.1663   6.1867
     6.1979   6.2288   6.2359   6.2360   6.2543   6.2552   6.2706   6.2767
     6.3041   6.3146   6.3462   6.3526   6.3731   6.3996   6.4076   6.4269
     6.4434   6.4700   6.4798   6.4826   6.5225   6.5239   6.5437   6.5507
     6.5629   6.5915   6.6063   6.6277   6.6359   6.6816   6.6926   6.7066
     6.7348   6.7445   6.7821   6.7854   6.8241   6.8298   6.8410   6.8456
     6.8580   6.8761   6.9004   6.9060   6.9131   6.9140   6.9253   6.9372
     6.9439   6.9662   6.9687   6.9728

          k = 0.0000 0.0000-0.0235 (184018 PWs)   bands (ev):

   -21.5925 -21.5367 -21.1830 -21.0950 -21.0863 -21.0563 -20.6348 -20.6265
   -20.5528 -20.3446 -20.1731 -20.1618 -19.9034 -19.8610 -19.7413 -19.7327
   -19.6546 -19.4388 -19.0322 -19.0131 -18.9658 -18.7835 -18.7537 -18.7265
   -18.6166 -18.3925 -18.3894 -18.3350 -18.0326 -17.9133 -17.8804 -17.6893
   -17.6675 -17.4323 -17.3356 -17.2661 -17.0271 -17.0059 -16.9735 -16.8432
   -16.8220 -16.7556 -16.7212 -16.5879 -16.5423 -16.3274 -16.2728 -16.0039
   -15.9088 -15.9055 -15.4357 -14.9741 -14.8903 -14.7925 -14.7749 -14.7335
   -14.7142 -14.6444 -14.6083 -14.3481 -14.2971 -14.2471 -14.2366 -14.2130
   -14.1684 -14.0406 -13.6514 -13.6072 -13.4794 -13.4358 -13.3852 -13.1106
   -13.0336 -12.9139 -12.3262 -12.2562 -12.2313 -12.2310 -12.2246 -12.1923
   -12.1832 -12.1428 -12.0992 -12.0161 -11.9389 -11.9025 -11.8078 -11.5300
   -11.3898 -11.2559 -11.1726 -11.0296 -11.0007 -10.7652 -10.6815 -10.5859
   -10.4743 -10.4609 -10.4327 -10.4080 -10.3460 -10.2885 -10.2191 -10.1926
    -9.9021  -9.8990  -9.8286  -9.7344  -9.7162  -9.7071  -9.6829  -9.6592
    -9.6009  -9.5996  -9.5968  -9.3270  -9.1921  -9.1153  -9.1093  -9.0714
    -9.0612  -9.0470  -9.0381  -8.9610  -8.9580  -8.8940  -8.8800  -8.8379
    -8.8342  -8.7945  -8.7514  -8.7388  -8.7142  -8.7014  -8.6943  -8.6095
    -8.5507  -8.5364  -8.4733  -8.4565  -8.4548  -8.4212  -8.4192  -8.2701
    -8.2477  -8.2319  -8.0836  -7.9869  -7.9710  -7.9622  -7.9259  -7.7752
    -7.7212  -7.7022  -7.6859  -7.6071  -7.6026  -7.5779  -7.5577  -7.5375
    -7.4837  -7.4371  -7.4327  -7.4301  -7.2650  -7.2361  -7.2221  -7.1436
    -7.1306  -6.9338  -6.8601  -6.7140  -6.7083  -6.7078  -6.5420  -6.5287
    -6.4531  -6.4530  -6.4208  -6.4095  -6.4053  -6.3278  -6.3227  -6.3048
    -6.0879  -5.9716  -5.9403  -5.7514  -5.7147  -5.7147  -5.7016  -5.6327
    -5.6207  -5.5869  -5.2646  -5.2634  -5.0462  -4.9751  -4.9360  -4.8449
    -4.7639  -4.7489  -4.7426  -4.5635  -4.5207  -4.4479  -4.2631  -4.1361
    -4.1088  -3.8032  -3.5846  -3.4503  -3.3108  -2.8788  -1.6943  -1.2444
    -1.0999  -0.9572  -0.7680  -0.6885  -0.5292  -0.4756  -0.3691  -0.3484
    -0.3057  -0.2169  -0.1594  -0.1564  -0.1539   0.1744   0.3798   0.5027
     0.6940   0.7033   0.8112   0.8567   0.8634   0.9043   0.9127   0.9424
     0.9606   1.1148   1.1529   1.4619   1.4811   1.4941   1.5227   1.5362
     1.5796   1.5873   1.6038   1.6203   1.6431   1.6618   1.7752   1.7822
     2.0427   2.0780   2.0859   2.1023   2.1402   2.1555   2.1907   2.1974
     2.2118   2.2191   2.2221   2.2567   2.2904   2.3013   2.4345   2.4634
     2.4816   2.5579   2.6022   2.6123   2.6433   2.6590   2.6885   2.7174
     2.7514   2.7532   2.7773   2.7953   2.7978   2.8288   2.8328   2.8867
     2.8964   2.9761   3.0031   3.0551   3.0581   3.0603   3.0781   3.1118
     3.1217   3.1639   3.1783   3.2137   3.2798   3.3472   3.3482   3.3984
     3.4243   3.4248   3.4378   3.4490   3.4825   3.5054   3.5173   3.5417
     3.5550   3.5834   3.6229   3.6415   3.7335   3.7462   3.7498   3.7518
     3.7553   3.7712   3.8496   3.8611   3.8678   3.8798   3.8877   3.8879
     3.8938   3.9077   3.9746   4.0052   4.0424   4.0427   4.0490   4.0611
     4.0620   4.0941   4.1001   4.1700   4.1808   4.2243   4.2467   4.2800
     4.2817   4.2986   4.3487   4.3725   4.4026   4.4302   4.4389   4.4791
     4.4827   4.5110   4.5359   4.5661   4.5840   4.5840   4.6032   4.6043
     4.6340   4.6480   4.6616   4.6996   4.7016   4.7320   4.7368   4.7400
     4.7445   4.8072   4.8241   4.8690   4.9020   4.9031   4.9294   4.9311
     4.9499   4.9530   4.9696   5.0037   5.0095   5.0251   5.0281   5.0755
     5.0919   5.1045   5.1114   5.1368   5.1721   5.1742   5.1873   5.2087
     5.2623   5.2677   5.3385   5.3476   5.3630   5.3838   5.4184   5.4195
     5.4358   5.4688   5.4712   5.4713   5.5180   5.5474   5.5502   5.5733
     5.5744   5.6055   5.6064   5.6460   5.6618   5.6684   5.6753   5.6782
     5.6796   5.7129   5.7243   5.7308   5.7346   5.7480   5.7852   5.7907
     5.8096   5.8167   5.8220   5.8398   5.9026   5.9290   5.9376   5.9472
     5.9606   5.9626   5.9662   6.0115   6.0132   6.0296   6.0299   6.0300
     6.0452   6.0637   6.0932   6.0953   6.1246   6.1613   6.1696   6.1982
     6.2002   6.2172   6.2409   6.2410   6.2556   6.2647   6.2702   6.2712
     6.2768   6.3156   6.3476   6.3526   6.3728   6.4001   6.4054   6.4236
     6.4426   6.4685   6.4816   6.4901   6.5156   6.5324   6.5429   6.5431
     6.5731   6.5912   6.6376   6.6394   6.6395   6.6583   6.6595   6.7167
     6.7328   6.7409   6.7856   6.7861   6.8304   6.8352   6.8378   6.8478
     6.8568   6.8718   6.9037   6.9095   6.9125   6.9162   6.9263   6.9379
     6.9439   6.9614   6.9630   7.0020

     the Fermi energy is    -2.6985 ev

     Writing output data file LS9_2_11_3.save/

     init_run     :     28.96s CPU     29.73s WALL (       1 calls)
     electrons    :  20143.26s CPU  20406.94s WALL (       1 calls)

     Called by init_run:
     wfcinit      :      0.00s CPU      0.00s WALL (       1 calls)
     potinit      :      1.68s CPU      1.83s WALL (       1 calls)
     hinit0       :     22.39s CPU     22.60s WALL (       1 calls)

     Called by electrons:
     c_bands      :  20143.24s CPU  20406.77s WALL (       1 calls)
     v_of_rho     :      1.24s CPU      1.31s WALL (       1 calls)
     newd         :      1.60s CPU      1.95s WALL (       1 calls)

     Called by c_bands:
     init_us_2    :      1.40s CPU      1.44s WALL (      26 calls)
     cegterg      :  19755.72s CPU  20005.14s WALL (     156 calls)

     Called by sum_band:

     Called by *egterg:
     h_psi        :   8224.20s CPU   8374.33s WALL (    3302 calls)
     s_psi        :    879.44s CPU    880.26s WALL (    3302 calls)
     g_psi        :     26.13s CPU     26.16s WALL (    3120 calls)
     cdiaghg      :   4496.99s CPU   4499.18s WALL (    3146 calls)

     Called by h_psi:
     h_psi:pot    :   8206.64s CPU   8346.53s WALL (    3302 calls)
     h_psi:calbec :    993.99s CPU   1004.84s WALL (    3302 calls)
     vloc_psi     :   6331.30s CPU   6459.59s WALL (    3302 calls)
     add_vuspsi   :    881.31s CPU    882.02s WALL (    3302 calls)

     General routines
     calbec       :    993.97s CPU   1004.78s WALL (    3302 calls)
     fft          :      2.08s CPU      2.20s WALL (      14 calls)
     ffts         :      0.02s CPU      0.02s WALL (       1 calls)
     fftw         :   5728.78s CPU   5854.76s WALL (  796124 calls)
     interpolate  :      0.12s CPU      0.13s WALL (       1 calls)
     davcio       :      0.00s CPU      7.01s WALL (      52 calls)

     Parallel routines
     fft_scatt_xy :    520.78s CPU    522.67s WALL (  796139 calls)
     fft_scatt_yz :   3559.29s CPU   3678.12s WALL (  796139 calls)

     PWSCF        :     5h36m CPU       36h 5m WALL

      49h

   This run was terminated on:  13: 5: 7  23Apr2021            

=------------------------------------------------------------------------------=
   JOB DONE.
=------------------------------------------------------------------------------=
