
     Program PWSCF v.6.3 starts on 23Apr2021 at  3:51:40 

     This program is part of the open-source Quantum ESPRESSO suite
     for quantum simulation of materials; please cite
         "P. Giannozzi et al., J. Phys.:Condens. Matter 21 395502 (2009);
         "P. Giannozzi et al., J. Phys.:Condens. Matter 29 465901 (2017);
          URL http://www.quantum-espresso.org", 
     in publications or presentations arising from this work. More details at
     http://www.quantum-espresso.org/quote

     Parallel version (MPI), running on    16 processors
     R & G space division:  proc/nbgrp/npool/nimage =      16
     Waiting for input...
     Reading input from standard input
     Message from routine read_cards :
     DEPRECATED: no units specified in CELL_PARAMETERS card

     Current dimensions of program PWSCF are:
     Max number of different atomic species (ntypx) = 10
     Max number of k-points (npk) =  40000
     Max angular momentum in pseudopotentials (lmaxx) =  3

     Atomic positions and unit cell read from directory:
     /home/zfwang/scratch/GNRDATASET/AGNR/LS9_2_13_2_b/LS9_2_13_2_b.save/


     Subspace diagonalization in iterative solution of the eigenvalue problem:
     a serial algorithm will be used


     Parallelization info
     --------------------
     sticks:   dense  smooth     PW     G-vecs:    dense   smooth      PW
     Min        2556     852    219               382876    73664    9645
     Max        2557     853    221               382881    73669    9648
     Sum       40909   13645   3521              6126037  1178677  154333



     bravais-lattice index     =            0
     lattice parameter (alat)  =       1.8897  a.u.
     unit-cell volume          =   34497.4860 (a.u.)^3
     number of atoms/cell      =          108
     number of atomic types    =            2
     number of electrons       =       384.00
     number of Kohn-Sham states=          500
     kinetic-energy cutoff     =      40.0000  Ry
     charge density cutoff     =     480.0000  Ry
     Exchange-correlation      = PBE ( 1  4  3  4 0 0)

     celldm(1)=  18.897261  celldm(2)=   3.000000  celldm(3)=   1.704000
     celldm(4)=   0.000000  celldm(5)=   0.000000  celldm(6)=   0.000000

     crystal axes: (cart. coord. in units of alat)
               a(1) = (  10.000000   0.000000   0.000000 )  
               a(2) = (   0.000000  30.000000   0.000000 )  
               a(3) = (   0.000000   0.000000  17.040000 )  

     reciprocal axes: (cart. coord. in units 2 pi/alat)
               b(1) = (  0.100000  0.000000  0.000000 )  
               b(2) = (  0.000000  0.033333  0.000000 )  
               b(3) = (  0.000000  0.000000  0.058685 )  


     PseudoPot. # 1 for C  read from file:
     /home/zfwang/hp_home/MySoftware/qe-6.3/pseudo/C.pbe-n-rrkjus_psl.0.1.UPF
     MD5 check sum: fff530ed632a789b3b184014e67dd7f1
     Pseudo is Ultrasoft + core correction, Zval =  4.0
     Generated using "atomic" code by A. Dal Corso v.5.0.2 svn rev. 9415
     Using radial grid of 1073 points,  4 beta functions with: 
                l(1) =   0
                l(2) =   0
                l(3) =   1
                l(4) =   1
     Q(r) pseudized with 0 coefficients 


     PseudoPot. # 2 for H  read from file:
     /home/zfwang/hp_home/MySoftware/qe-6.3/pseudo/H.pbe-rrkjus_psl.0.1.UPF
     MD5 check sum: e164a6907b691c6980f16942be34de84
     Pseudo is Ultrasoft, Zval =  1.0
     Generated using "atomic" code by A. Dal Corso v.5.0.2 svn rev. 9415
     Using radial grid of  929 points,  2 beta functions with: 
                l(1) =   0
                l(2) =   0
     Q(r) pseudized with 0 coefficients 


     atomic species   valence    mass     pseudopotential
        C              4.00    12.01070     C ( 1.00)
        H              1.00     1.00794     H ( 1.00)

     No symmetry found



   Cartesian axes

     site n.     atom                  positions (alat units)
         1           C   tau(   1) = (   4.9999998   7.6065884   7.0501479  )
         2           C   tau(   2) = (   5.0000006   7.6139831  11.3518599  )
         3           C   tau(   3) = (   4.9999993   8.8635482   3.5665790  )
         4           C   tau(   4) = (   4.9999999   8.8180014   7.8094667  )
         5           C   tau(   5) = (   5.0000004   8.8382983  12.0845306  )
         6           C   tau(   6) = (   4.9999998   7.6139710   5.6880444  )
         7           C   tau(   7) = (   5.0000003   7.6066104   9.9899498  )
         8           C   tau(   8) = (   4.9999991  10.0745925   2.8536771  )
         9           C   tau(   9) = (   4.9999996  10.0597524   7.1031639  )
        10           C   tau(  10) = (   5.0000004  10.0726648  11.3551675  )
        11           C   tau(  11) = (   5.0000003  10.0998729  15.5897430  )
        12           C   tau(  12) = (   4.9999990  11.3133506   3.5638435  )
        13           C   tau(  13) = (   4.9999999  11.2972623   7.8121847  )
        14           C   tau(  14) = (   5.0000006  11.3055960  12.0607072  )
        15           C   tau(  15) = (   5.0000001  11.2813965  16.3126945  )
        16           C   tau(  16) = (   4.9999995   8.8383006   4.9554992  )
        17           C   tau(  17) = (   5.0000001   8.8179850   9.2305176  )
        18           C   tau(  18) = (   5.0000003   8.8635673  13.4734156  )
        19           C   tau(  19) = (   4.9999996  10.0998578   1.4502636  )
        20           C   tau(  20) = (   4.9999993  10.0726624   5.6848051  )
        21           C   tau(  21) = (   5.0000003  10.0597693   9.9368648  )
        22           C   tau(  22) = (   5.0000005  10.0745780  14.1863163  )
        23           C   tau(  23) = (   4.9999993  12.5365172   2.8449024  )
        24           C   tau(  24) = (   5.0000000  12.5327558   7.1030742  )
        25           C   tau(  25) = (   5.0000004  12.5383549  11.3517746  )
        26           C   tau(  26) = (   5.0000002  12.5321380  15.6148393  )
        27           C   tau(  27) = (   4.9999994  13.7713045   3.5560399  )
        28           C   tau(  28) = (   5.0000003  13.7670352   7.8121696  )
        29           C   tau(  29) = (   5.0000002  13.7690763  12.0652341  )
        30           C   tau(  30) = (   5.0000000  13.7647615  16.3272585  )
        31           C   tau(  31) = (   4.9999997  11.2814091   0.7272997  )
        32           C   tau(  32) = (   4.9999990  11.3055940   4.9793037  )
        33           C   tau(  33) = (   5.0000003  11.2972519   9.2278111  )
        34           C   tau(  34) = (   5.0000006  11.3133612  13.4761550  )
        35           C   tau(  35) = (   4.9999995  12.5321331   1.4251651  )
        36           C   tau(  36) = (   4.9999995  12.5383555   5.6882169  )
        37           C   tau(  37) = (   5.0000003  12.5327629   9.9369387  )
        38           C   tau(  38) = (   5.0000003  12.5365119  14.1950899  )
        39           C   tau(  39) = (   4.9999997  15.0000002   2.8454223  )
        40           C   tau(  40) = (   5.0000003  14.9999998   7.1031244  )
        41           C   tau(  41) = (   5.0000001  15.0000002  11.3549409  )
        42           C   tau(  42) = (   5.0000002  15.0000001  15.6201740  )
        43           C   tau(  43) = (   4.9999999  16.2286956   3.5560400  )
        44           C   tau(  44) = (   5.0000001  16.2329648   7.8121693  )
        45           C   tau(  45) = (   4.9999998  16.2309235  12.0652343  )
        46           C   tau(  46) = (   5.0000001  16.2352384  16.3272585  )
        47           C   tau(  47) = (   4.9999996  13.7647626   0.7127361  )
        48           C   tau(  48) = (   4.9999996  13.7690768   4.9747705  )
        49           C   tau(  49) = (   5.0000003  13.7670335   9.2278322  )
        50           C   tau(  50) = (   5.0000002  13.7713066  13.4839622  )
        51           C   tau(  51) = (   4.9999997  15.0000001   1.4198288  )
        52           C   tau(  52) = (   5.0000001  15.0000000   5.6850560  )
        53           C   tau(  53) = (   5.0000001  14.9999998   9.9368856  )
        54           C   tau(  54) = (   5.0000002  15.0000000  14.1945704  )
        55           C   tau(  55) = (   4.9999999  17.4634830   2.8449026  )
        56           C   tau(  56) = (   5.0000000  17.4672433   7.1030744  )
        57           C   tau(  57) = (   4.9999996  17.4616451  11.3517748  )
        58           C   tau(  58) = (   5.0000001  17.4678625  15.6148393  )
        59           C   tau(  59) = (   5.0000000  18.6866493   3.5638440  )
        60           C   tau(  60) = (   5.0000001  18.7027380   7.8121847  )
        61           C   tau(  61) = (   4.9999996  18.6944040  12.0607070  )
        62           C   tau(  62) = (   5.0000002  18.7186035  16.3126947  )
        63           C   tau(  63) = (   5.0000000  16.2352375   0.7127361  )
        64           C   tau(  64) = (   5.0000000  16.2309232   4.9747702  )
        65           C   tau(  65) = (   5.0000000  16.2329666   9.2278325  )
        66           C   tau(  66) = (   5.0000000  16.2286935  13.4839621  )
        67           C   tau(  67) = (   5.0000001  17.4678672   1.4251647  )
        68           C   tau(  68) = (   5.0000000  17.4616445   5.6882174  )
        69           C   tau(  69) = (   4.9999999  17.4672370   9.9369384  )
        70           C   tau(  70) = (   5.0000000  17.4634880  14.1950902  )
        71           C   tau(  71) = (   5.0000001  19.9254086   2.8536777  )
        72           C   tau(  72) = (   5.0000003  19.9402463   7.1031633  )
        73           C   tau(  73) = (   4.9999998  19.9273349  11.3551689  )
        74           C   tau(  74) = (   5.0000000  19.9001276  15.5897426  )
        75           C   tau(  75) = (   5.0000001  21.1364511   3.5665805  )
        76           C   tau(  76) = (   5.0000004  21.1819990   7.8094677  )
        77           C   tau(  77) = (   4.9999997  21.1617016  12.0845298  )
        78           C   tau(  78) = (   5.0000001  18.7185919   0.7273004  )
        79           C   tau(  79) = (   5.0000001  18.6944061   4.9793030  )
        80           C   tau(  80) = (   5.0000000  18.7027469   9.2278120  )
        81           C   tau(  81) = (   4.9999997  18.6866393  13.4761551  )
        82           C   tau(  82) = (   5.0000000  19.9001419   1.4502635  )
        83           C   tau(  83) = (   5.0000003  19.9273372   5.6848071  )
        84           C   tau(  84) = (   5.0000000  19.9402314   9.9368634  )
        85           C   tau(  85) = (   4.9999997  19.9254216  14.1863169  )
        86           C   tau(  86) = (   5.0000005  22.3934105   7.0501441  )
        87           C   tau(  87) = (   4.9999999  22.3860174  11.3518651  )
        88           C   tau(  88) = (   5.0000003  21.1617000   4.9554982  )
        89           C   tau(  89) = (   5.0000003  21.1820137   9.2305191  )
        90           C   tau(  90) = (   4.9999997  21.1364334  13.4734153  )
        91           C   tau(  91) = (   5.0000002  22.3860287   5.6880498  )
        92           C   tau(  92) = (   5.0000005  22.3933903   9.9899450  )
        93           H   tau(  93) = (   5.0000000   6.6486770   7.5659310  )
        94           H   tau(  94) = (   5.0000009   6.6740200  11.9060828  )
        95           H   tau(  95) = (   4.9999999   6.6740350   5.1339326  )
        96           H   tau(  96) = (   5.0000004   6.6486615   9.4740570  )
        97           H   tau(  97) = (   5.0000006  23.3513235   7.5659325  )
        98           H   tau(  98) = (   4.9999997  23.3259791  11.9060824  )
        99           H   tau(  99) = (   5.0000003  23.3259659   5.1339326  )
       100           H   tau( 100) = (   5.0000009  23.3513375   9.4740577  )
       101           H   tau( 101) = (   5.0000000   7.9227879   3.0125755  )
       102           H   tau( 102) = (   5.0000004   9.1376616  16.0984604  )
       103           H   tau( 103) = (   5.0000003   7.9227813  14.0274278  )
       104           H   tau( 104) = (   4.9999997   9.1376642   0.9415363  )
       105           H   tau( 105) = (   5.0000003  20.8623390  16.0984605  )
       106           H   tau( 106) = (   5.0000001  22.0772128   3.0125762  )
       107           H   tau( 107) = (   5.0000000  20.8623367   0.9415368  )
       108           H   tau( 108) = (   4.9999997  22.0772186  14.0274278  )

     number of k points=    26  Marzari-Vanderbilt smearing, width (Ry)=  0.0100
                       cart. coord. in units 2pi/alat
        k(    1) = (   0.0000000   0.0000000   0.0000000), wk =   0.0400000
        k(    2) = (   0.0000000   0.0000000   0.0011737), wk =   0.0800000
        k(    3) = (   0.0000000   0.0000000   0.0023474), wk =   0.0800000
        k(    4) = (   0.0000000   0.0000000   0.0035211), wk =   0.0800000
        k(    5) = (   0.0000000   0.0000000   0.0046948), wk =   0.0800000
        k(    6) = (   0.0000000   0.0000000   0.0058685), wk =   0.0800000
        k(    7) = (   0.0000000   0.0000000   0.0070423), wk =   0.0800000
        k(    8) = (   0.0000000   0.0000000   0.0082160), wk =   0.0800000
        k(    9) = (   0.0000000   0.0000000   0.0093897), wk =   0.0800000
        k(   10) = (   0.0000000   0.0000000   0.0105634), wk =   0.0800000
        k(   11) = (   0.0000000   0.0000000   0.0117371), wk =   0.0800000
        k(   12) = (   0.0000000   0.0000000   0.0129108), wk =   0.0800000
        k(   13) = (   0.0000000   0.0000000   0.0140845), wk =   0.0800000
        k(   14) = (   0.0000000   0.0000000   0.0152582), wk =   0.0800000
        k(   15) = (   0.0000000   0.0000000   0.0164319), wk =   0.0800000
        k(   16) = (   0.0000000   0.0000000   0.0176056), wk =   0.0800000
        k(   17) = (   0.0000000   0.0000000   0.0187793), wk =   0.0800000
        k(   18) = (   0.0000000   0.0000000   0.0199531), wk =   0.0800000
        k(   19) = (   0.0000000   0.0000000   0.0211268), wk =   0.0800000
        k(   20) = (   0.0000000   0.0000000   0.0223005), wk =   0.0800000
        k(   21) = (   0.0000000   0.0000000   0.0234742), wk =   0.0800000
        k(   22) = (   0.0000000   0.0000000   0.0246479), wk =   0.0800000
        k(   23) = (   0.0000000   0.0000000   0.0258216), wk =   0.0800000
        k(   24) = (   0.0000000   0.0000000   0.0269953), wk =   0.0800000
        k(   25) = (   0.0000000   0.0000000   0.0281690), wk =   0.0800000
        k(   26) = (   0.0000000   0.0000000  -0.0293427), wk =   0.0400000

     Dense  grid:  6126037 G-vectors     FFT dimensions: ( 135, 400, 225)

     Smooth grid:  1178677 G-vectors     FFT dimensions: (  80, 240, 135)

     Estimated max dynamical RAM per process >       1.30 GB

     Estimated total dynamical RAM >      20.77 GB

     The potential is recalculated from file :
     /home/zfwang/scratch/GNRDATASET/AGNR/LS9_2_13_2_b/LS9_2_13_2_b.save/charge-density.dat


     negative rho (up, down):  3.424E-04 0.000E+00
     Starting wfcs are  384 randomized atomic wfcs +  116 random wfcs

     Band Structure Calculation
     Davidson diagonalization with overlap

     ethr =  2.60E-09,  avg # of iterations = 42.5

     total cpu time spent up to now is    11617.2 secs

     End of band structure calculation

          k = 0.0000 0.0000 0.0000 (147325 PWs)   bands (ev):

   -21.5023 -21.1539 -21.1470 -21.0933 -20.8043 -20.6406 -20.6338 -20.2773
   -20.0729 -20.0237 -19.9747 -19.8788 -19.7613 -19.6432 -19.4659 -19.1830
   -19.1768 -19.0163 -18.9620 -18.6121 -18.4507 -18.3129 -18.2425 -18.2256
   -18.1414 -17.9093 -17.8467 -17.7331 -17.6654 -17.6078 -17.5280 -17.1518
   -17.0974 -16.9104 -16.8355 -16.7467 -16.6896 -16.6709 -16.2666 -16.2597
   -16.1879 -16.1369 -15.8260 -15.7086 -15.2890 -15.2346 -15.1881 -14.9624
   -14.8657 -14.8250 -14.6789 -14.6684 -14.5737 -14.3898 -14.3178 -14.1070
   -13.9582 -13.7995 -13.5339 -13.5097 -13.3869 -13.2536 -12.9868 -12.8364
   -12.7263 -12.7133 -12.6831 -12.5969 -12.5085 -12.3333 -12.3038 -12.2899
   -12.2440 -12.1921 -12.0965 -11.5106 -11.4238 -11.4134 -11.2166 -11.0329
   -10.9611 -10.9186 -10.8880 -10.7860 -10.7342 -10.7084 -10.5943 -10.3124
   -10.2191 -10.2150 -10.0990 -10.0000  -9.8620  -9.8209  -9.7569  -9.6812
    -9.6048  -9.5810  -9.5735  -9.5197  -9.4045  -9.3527  -9.3080  -9.2867
    -9.1744  -9.1592  -9.1063  -9.0563  -8.9432  -8.7994  -8.7587  -8.7071
    -8.6855  -8.6569  -8.6453  -8.6177  -8.6142  -8.5973  -8.5883  -8.5635
    -8.5346  -8.5281  -8.4699  -8.3061  -8.2937  -8.2735  -8.2732  -8.1621
    -8.1320  -8.1182  -7.9538  -7.9335  -7.9140  -7.8905  -7.8813  -7.8440
    -7.8330  -7.7210  -7.5451  -7.5092  -7.4805  -7.4297  -7.3539  -7.3098
    -7.2942  -7.2481  -7.1196  -7.0451  -6.9518  -6.9233  -6.8892  -6.8735
    -6.7478  -6.7285  -6.7182  -6.7015  -6.5463  -6.3965  -6.3751  -6.3521
    -6.0956  -6.0688  -6.0302  -5.9835  -5.9770  -5.9694  -5.8476  -5.8400
    -5.8396  -5.6505  -5.4447  -5.3766  -5.3749  -5.3434  -5.3131  -5.2426
    -5.1017  -4.8241  -4.7966  -4.7030  -4.6091  -4.4177  -4.3995  -4.2652
    -4.2477  -4.0972  -3.9470  -3.8565  -3.6550  -3.0512  -2.9126  -2.2368
    -2.0227  -1.3910  -1.2013  -0.7825  -0.5243  -0.4565  -0.4118  -0.3793
    -0.1351   0.0006   0.0070   0.0738   0.0976   0.3670   0.5217   0.7809
     0.9111   0.9629   1.0018   1.0242   1.1875   1.2255   1.2517   1.3188
     1.3895   1.4357   1.4784   1.5447   1.5577   1.6273   1.6481   1.6775
     1.6903   1.7004   1.7789   1.9112   1.9303   1.9408   2.0465   2.0778
     2.0930   2.2394   2.2711   2.3861   2.5220   2.5761   2.5870   2.6088
     2.6856   2.6959   2.7695   2.7925   2.7966   2.8007   2.8351   2.8487
     2.8750   2.9203   3.0020   3.0741   3.1001   3.1181   3.1662   3.1794
     3.1841   3.2071   3.2101   3.2396   3.2434   3.2572   3.3179   3.3291
     3.3562   3.3753   3.3755   3.4929   3.5760   3.5817   3.5848   3.6547
     3.6923   3.6973   3.7281   3.7433   3.7439   3.7720   3.8371   3.9143
     3.9288   3.9447   3.9752   3.9890   4.0040   4.0247   4.1226   4.1267
     4.1314   4.2108   4.2606   4.2622   4.2833   4.2918   4.3308   4.3507
     4.3644   4.3720   4.3881   4.4289   4.4453   4.4879   4.5147   4.5513
     4.5532   4.5559   4.5918   4.6075   4.6749   4.7206   4.7468   4.7793
     4.7866   4.7873   4.7976   4.8063   4.8180   4.8248   4.8673   4.8798
     4.9176   4.9407   4.9411   5.0386   5.0601   5.0881   5.0905   5.1604
     5.1904   5.2189   5.2300   5.2440   5.2826   5.2834   5.2876   5.3293
     5.3330   5.3734   5.4332   5.4563   5.4957   5.5213   5.5413   5.5421
     5.5424   5.6088   5.6113   5.6170   5.6466   5.6561   5.6837   5.7053
     5.7328   5.7371   5.7413   5.7556   5.7595   5.8480   5.8841   5.8958
     5.9011   5.9039   5.9495   5.9524   5.9569   5.9975   6.0056   6.0155
     6.0184   6.0346   6.0423   6.0713   6.1051   6.1284   6.1334   6.1453
     6.2107   6.2121   6.2307   6.2448   6.2548   6.2684   6.2730   6.2771
     6.2793   6.3448   6.3706   6.3746   6.3837   6.4010   6.4355   6.4478
     6.4544   6.4833   6.4909   6.5145   6.5156   6.5975   6.6058   6.6085
     6.6242   6.6517   6.6648   6.6772   6.6841   6.7526   6.7569   6.7592
     6.7594   6.7959   6.8135   6.8567   6.8788   6.8998   6.9603   6.9639
     6.9790   6.9896   7.0104   7.0119   7.0493   7.0735   7.0808   7.0865
     7.0961   7.1121   7.1450   7.1468   7.1811   7.1859   7.1995   7.2079
     7.2133   7.2248   7.2263   7.2341   7.2520   7.2678   7.2800   7.3066
     7.3175   7.3403   7.3543   7.3573   7.4221   7.4516   7.4694   7.4745
     7.4824   7.4878   7.4890   7.5226   7.5238   7.5659   7.5764   7.5845
     7.6335   7.7005   7.7146   7.7181   7.7200   7.7240   7.7272   7.7465
     7.7526   7.7712   7.7919   7.7982   7.8030   7.8116   7.8439   7.8593
     7.9289   7.9457   7.9477   7.9538   7.9569   7.9761   8.0012   8.0071
     8.0200   8.0374   8.0383   8.0436   8.0843   8.0860   8.1488   8.1673
     8.2147   8.2206   8.2232   8.2302   8.2630   8.2794   8.2884   8.3220
     8.3336   8.3345   8.3499   8.3954

          k = 0.0000 0.0000 0.0012 (147355 PWs)   bands (ev):

   -21.5021 -21.1570 -21.1470 -21.0899 -20.8053 -20.6393 -20.6337 -20.2780
   -20.0804 -20.0175 -19.9747 -19.8763 -19.7659 -19.6392 -19.4653 -19.1872
   -19.1759 -19.0128 -18.9615 -18.6120 -18.4535 -18.3113 -18.2759 -18.1920
   -18.1403 -17.9092 -17.8563 -17.7242 -17.6700 -17.6065 -17.5239 -17.1528
   -17.0970 -16.9152 -16.8343 -16.7455 -16.6863 -16.6704 -16.2667 -16.2622
   -16.1877 -16.1387 -15.8287 -15.7073 -15.2918 -15.2316 -15.1876 -14.9619
   -14.8724 -14.8173 -14.6766 -14.6692 -14.5709 -14.3899 -14.3178 -14.1084
   -13.9591 -13.7983 -13.5324 -13.5097 -13.3878 -13.2537 -12.9916 -12.8410
   -12.7733 -12.6992 -12.6468 -12.6060 -12.4972 -12.3320 -12.3065 -12.2888
   -12.2415 -12.1931 -12.0930 -11.5102 -11.4255 -11.4127 -11.2172 -11.0415
   -10.9528 -10.9225 -10.8918 -10.7913 -10.7263 -10.7019 -10.5940 -10.3126
   -10.2194 -10.2186 -10.1026  -9.9956  -9.8641  -9.8210  -9.7620  -9.6739
    -9.6205  -9.5809  -9.5726  -9.5078  -9.4041  -9.3557  -9.3007  -9.2862
    -9.1742  -9.1641  -9.1010  -9.0545  -8.9431  -8.8017  -8.7601  -8.7334
    -8.6830  -8.6610  -8.6185  -8.6181  -8.6140  -8.5955  -8.5883  -8.5654
    -8.5414  -8.5221  -8.4699  -8.3054  -8.2924  -8.2735  -8.2722  -8.1628
    -8.1357  -8.1143  -7.9549  -7.9326  -7.9191  -7.9000  -7.8703  -7.8440
    -7.8318  -7.7157  -7.5508  -7.5137  -7.4768  -7.4252  -7.3603  -7.3025
    -7.2948  -7.2469  -7.1218  -7.0454  -6.9518  -6.9247  -6.8945  -6.8734
    -6.7425  -6.7279  -6.7219  -6.6991  -6.5430  -6.4179  -6.3536  -6.3519
    -6.0992  -6.0791  -6.0210  -5.9817  -5.9771  -5.9687  -5.8870  -5.8378
    -5.8007  -5.6504  -5.4502  -5.3768  -5.3753  -5.3599  -5.2908  -5.2460
    -5.0993  -4.8245  -4.7969  -4.7033  -4.6095  -4.4159  -4.4027  -4.2646
    -4.2481  -4.0948  -3.9471  -3.8565  -3.6556  -3.0511  -2.9139  -2.2422
    -2.0174  -1.3899  -1.2012  -0.7815  -0.5233  -0.4566  -0.4110  -0.3792
    -0.1353  -0.0160   0.0157   0.0715   0.1057   0.3688   0.5215   0.7806
     0.8974   0.9631   1.0165   1.0244   1.1877   1.1881   1.2891   1.3176
     1.3863   1.4332   1.4817   1.5457   1.5597   1.5773   1.6655   1.6966
     1.6980   1.7017   1.7802   1.8974   1.9422   1.9480   2.0398   2.0775
     2.1001   2.2330   2.2783   2.3857   2.5224   2.5760   2.5871   2.6053
     2.6833   2.6975   2.7586   2.7900   2.8020   2.8081   2.8318   2.8504
     2.8781   2.9235   2.9996   3.0709   3.0974   3.1102   3.1442   3.1753
     3.2082   3.2093   3.2186   3.2398   3.2490   3.2541   3.3153   3.3326
     3.3577   3.3662   3.3883   3.4936   3.5491   3.5721   3.6125   3.6602
     3.6900   3.6923   3.7246   3.7426   3.7523   3.7787   3.8395   3.9126
     3.9267   3.9380   3.9776   3.9892   3.9908   4.0450   4.1134   4.1252
     4.1377   4.2144   4.2491   4.2562   4.2626   4.3163   4.3378   4.3505
     4.3578   4.3780   4.3864   4.4161   4.4586   4.4833   4.5220   4.5407
     4.5529   4.5539   4.5957   4.6218   4.6692   4.7120   4.7530   4.7626
     4.7774   4.7980   4.8014   4.8066   4.8130   4.8313   4.8610   4.8922
     4.8935   4.9450   4.9675   5.0418   5.0601   5.0885   5.0915   5.1624
     5.1889   5.2194   5.2217   5.2264   5.2720   5.2839   5.3102   5.3335
     5.3469   5.3733   5.4288   5.4555   5.4923   5.5149   5.5409   5.5433
     5.5511   5.5917   5.6028   5.6055   5.6651   5.6679   5.6853   5.6971
     5.7130   5.7435   5.7556   5.7614   5.7685   5.8455   5.8755   5.8854
     5.8997   5.9032   5.9160   5.9654   5.9825   5.9997   6.0007   6.0088
     6.0193   6.0247   6.0424   6.0890   6.1204   6.1255   6.1357   6.1452
     6.2069   6.2125   6.2309   6.2455   6.2519   6.2687   6.2700   6.2795
     6.2868   6.3444   6.3682   6.3786   6.3797   6.4006   6.4368   6.4380
     6.4550   6.4703   6.4966   6.5166   6.5333   6.5835   6.6097   6.6167
     6.6230   6.6467   6.6691   6.6832   6.6863   6.7435   6.7520   6.7568
     6.7592   6.7998   6.8140   6.8683   6.8769   6.8991   6.9606   6.9620
     6.9708   6.9724   7.0115   7.0281   7.0471   7.0642   7.0781   7.0881
     7.1051   7.1144   7.1419   7.1472   7.1772   7.1774   7.1834   7.2001
     7.2110   7.2154   7.2325   7.2544   7.2645   7.2776   7.2835   7.3086
     7.3161   7.3200   7.3566   7.3848   7.4196   7.4438   7.4533   7.4722
     7.4766   7.4797   7.5021   7.5209   7.5554   7.5699   7.5775   7.5859
     7.6334   7.6751   7.6850   7.7089   7.7172   7.7191   7.7480   7.7567
     7.7669   7.7685   7.7893   7.8045   7.8097   7.8221   7.8488   7.8628
     7.9156   7.9272   7.9435   7.9622   7.9625   7.9781   7.9991   8.0188
     8.0217   8.0415   8.0448   8.0458   8.0833   8.0837   8.1498   8.1679
     8.1823   8.2155   8.2229   8.2571   8.2588   8.2776   8.2807   8.3184
     8.3284   8.3375   8.3519   8.3922

          k = 0.0000 0.0000 0.0023 (147377 PWs)   bands (ev):

   -21.5017 -21.1648 -21.1467 -21.0812 -20.8080 -20.6356 -20.6336 -20.2799
   -20.0969 -20.0047 -19.9747 -19.8688 -19.7781 -19.6288 -19.4632 -19.1975
   -19.1752 -19.0030 -18.9602 -18.6117 -18.4614 -18.3163 -18.3071 -18.1513
   -18.1370 -17.9088 -17.8791 -17.7042 -17.6824 -17.6019 -17.5129 -17.1558
   -17.0959 -16.9280 -16.8314 -16.7419 -16.6770 -16.6689 -16.2697 -16.2672
   -16.1872 -16.1440 -15.8368 -15.7036 -15.3002 -15.2228 -15.1864 -14.9605
   -14.8852 -14.8014 -14.6713 -14.6700 -14.5626 -14.3902 -14.3178 -14.1124
   -13.9616 -13.7949 -13.5279 -13.5100 -13.3907 -13.2540 -13.0055 -12.8545
   -12.8299 -12.6906 -12.6252 -12.5890 -12.4718 -12.3282 -12.3134 -12.2854
   -12.2350 -12.1956 -12.0828 -11.5093 -11.4303 -11.4109 -11.2191 -11.0605
   -10.9375 -10.9348 -10.8965 -10.8033 -10.7063 -10.6861 -10.5931 -10.3135
   -10.2283 -10.2204 -10.1128  -9.9842  -9.8720  -9.8202  -9.7724  -9.6569
    -9.6524  -9.5804  -9.5699  -9.4877  -9.4028  -9.3615  -9.2847  -9.2811
    -9.1754  -9.1739  -9.0887  -9.0491  -8.9431  -8.8097  -8.7685  -8.7642
    -8.7107  -8.6377  -8.6168  -8.6117  -8.5903  -8.5881  -8.5869  -8.5700
    -8.5512  -8.5141  -8.4697  -8.3036  -8.2886  -8.2731  -8.2695  -8.1650
    -8.1425  -8.1067  -7.9585  -7.9328  -7.9300  -7.9113  -7.8545  -7.8440
    -7.8285  -7.7010  -7.5657  -7.5235  -7.4692  -7.4142  -7.3732  -7.2967
    -7.2868  -7.2429  -7.1283  -7.0461  -6.9519  -6.9284  -6.9085  -6.8730
    -6.7322  -6.7284  -6.7261  -6.6921  -6.5339  -6.4469  -6.3513  -6.3242
    -6.1093  -6.0987  -6.0056  -5.9773  -5.9773  -5.9659  -5.9300  -5.8322
    -5.7581  -5.6499  -5.4672  -5.3776  -5.3772  -5.3767  -5.2556  -5.2553
    -5.0928  -4.8257  -4.7978  -4.7040  -4.6108  -4.4119  -4.4110  -4.2630
    -4.2495  -4.0877  -3.9475  -3.8565  -3.6574  -3.0510  -2.9178  -2.2572
    -2.0026  -1.3866  -1.2010  -0.7785  -0.5204  -0.4567  -0.4085  -0.3788
    -0.1359  -0.0404   0.0207   0.0650   0.1262   0.3737   0.5209   0.7798
     0.8691   0.9636   1.0250   1.0479   1.1403   1.1883   1.3137   1.3368
     1.3778   1.4262   1.4906   1.5191   1.5477   1.5662   1.6488   1.6856
     1.7167   1.7560   1.7843   1.8812   1.9465   1.9756   2.0257   2.0765
     2.1153   2.2209   2.2928   2.3843   2.5234   2.5759   2.5876   2.5962
     2.6718   2.7063   2.7406   2.7841   2.8043   2.8231   2.8276   2.8536
     2.8880   2.9321   2.9910   3.0626   3.0895   3.0976   3.1068   3.1922
     3.2069   3.2129   3.2405   3.2466   3.2521   3.2632   3.3101   3.3423
     3.3616   3.3619   3.4036   3.4956   3.5138   3.5612   3.6289   3.6809
     3.6823   3.6838   3.7203   3.7394   3.7723   3.7937   3.8463   3.9057
     3.9203   3.9256   3.9608   3.9897   4.0008   4.0735   4.0990   4.1199
     4.1441   4.2112   4.2247   4.2419   4.2683   4.3151   4.3403   4.3498
     4.3696   4.3762   4.3941   4.4022   4.4733   4.4780   4.5133   4.5371
     4.5519   4.5612   4.6070   4.6449   4.6547   4.6988   4.7339   4.7568
     4.7705   4.7922   4.7992   4.8053   4.8178   4.8485   4.8578   4.8651
     4.9112   4.9580   5.0041   5.0512   5.0602   5.0898   5.0947   5.1617
     5.1848   5.1866   5.2168   5.2208   5.2634   5.2866   5.3348   5.3465
     5.3731   5.3792   5.4176   5.4518   5.4827   5.4990   5.5394   5.5472
     5.5647   5.5696   5.5858   5.5963   5.6810   5.6833   5.6839   5.6899
     5.6941   5.7453   5.7628   5.7855   5.7931   5.8389   5.8482   5.8670
     5.8860   5.9002   5.9008   5.9695   5.9893   5.9923   5.9935   6.0045
     6.0186   6.0401   6.0442   6.1200   6.1281   6.1419   6.1425   6.1501
     6.1971   6.2121   6.2312   6.2463   6.2502   6.2618   6.2695   6.2915
     6.2980   6.3446   6.3621   6.3686   6.3883   6.3997   6.4042   6.4454
     6.4563   6.4744   6.4979   6.5189   6.5578   6.5629   6.6166   6.6213
     6.6230   6.6437   6.6754   6.6925   6.6980   6.7136   6.7494   6.7515
     6.7595   6.8096   6.8154   6.8718   6.8927   6.8972   6.9490   6.9511
     6.9529   6.9637   7.0062   7.0415   7.0495   7.0520   7.0734   7.0847
     7.1205   7.1230   7.1238   7.1502   7.1519   7.1715   7.1795   7.1858
     7.2016   7.2156   7.2407   7.2581   7.2741   7.2899   7.2948   7.3087
     7.3288   7.3401   7.3522   7.4060   7.4110   7.4145   7.4559   7.4605
     7.4756   7.4858   7.5183   7.5233   7.5644   7.5806   7.5852   7.6121
     7.6293   7.6339   7.6576   7.6953   7.7097   7.7150   7.7477   7.7502
     7.7661   7.7794   7.8092   7.8124   7.8206   7.8600   7.8619   7.8706
     7.8963   7.8965   7.9373   7.9617   7.9780   7.9844   7.9918   8.0122
     8.0483   8.0522   8.0546   8.0557   8.0813   8.0828   8.1437   8.1484
     8.1699   8.2015   8.2215   8.2512   8.2550   8.2673   8.3020   8.3085
     8.3110   8.3146   8.3825   8.3865

          k = 0.0000 0.0000 0.0035 (147387 PWs)   bands (ev):

   -21.5011 -21.1750 -21.1463 -21.0695 -20.8123 -20.6335 -20.6296 -20.2832
   -20.1162 -19.9912 -19.9747 -19.8566 -19.7952 -19.6151 -19.4595 -19.2118
   -19.1748 -18.9885 -18.9579 -18.6113 -18.4734 -18.3569 -18.3014 -18.1316
   -18.1104 -17.9083 -17.9071 -17.6997 -17.6824 -17.5924 -17.4979 -17.1608
   -17.0938 -16.9464 -16.8283 -16.7364 -16.6661 -16.6629 -16.2820 -16.2679
   -16.1864 -16.1524 -15.8498 -15.6976 -15.3135 -15.2083 -15.1854 -14.9581
   -14.8978 -14.7829 -14.6741 -14.6596 -14.5498 -14.3906 -14.3177 -14.1188
   -13.9657 -13.7894 -13.5208 -13.5101 -13.3955 -13.2545 -13.0275 -12.8859
   -12.8762 -12.6796 -12.6458 -12.5294 -12.4416 -12.3240 -12.3204 -12.2797
   -12.2262 -12.1991 -12.0668 -11.5077 -11.4380 -11.4081 -11.2222 -11.0831
   -10.9628 -10.9150 -10.8972 -10.8163 -10.6797 -10.6663 -10.5911 -10.3157
   -10.2415 -10.2217 -10.1284  -9.9691  -9.8886  -9.8161  -9.7820  -9.6866
    -9.6372  -9.5796  -9.5642  -9.4736  -9.4005  -9.3659  -9.2824  -9.2519
    -9.1892  -9.1734  -9.0732  -9.0406  -8.9435  -8.8257  -8.8037  -8.7704
    -8.7320  -8.6376  -8.6177  -8.5944  -8.5879  -8.5822  -8.5713  -8.5682
    -8.5516  -8.5054  -8.4692  -8.3008  -8.2826  -8.2723  -8.2651  -8.1685
    -8.1495  -8.0981  -7.9642  -7.9520  -7.9258  -7.9209  -7.8439  -7.8376
    -7.8236  -7.6797  -7.5860  -7.5356  -7.4608  -7.4007  -7.3874  -7.2999
    -7.2680  -7.2361  -7.1393  -7.0475  -6.9522  -6.9335  -6.9275  -6.8726
    -6.7474  -6.7233  -6.7090  -6.6815  -6.5207  -6.4760  -6.3503  -6.2942
    -6.1240  -6.1208  -5.9936  -5.9776  -5.9731  -5.9717  -5.9581  -5.8233
    -5.7164  -5.6486  -5.4939  -5.3867  -5.3790  -5.3789  -5.2697  -5.2173
    -5.0836  -4.8277  -4.7993  -4.7050  -4.6126  -4.4258  -4.4037  -4.2611
    -4.2515  -4.0769  -3.9480  -3.8566  -3.6603  -3.0509  -2.9242  -2.2788
    -1.9814  -1.3813  -1.2004  -0.7736  -0.5156  -0.4570  -0.4044  -0.3783
    -0.1368  -0.0673   0.0224   0.0548   0.1530   0.3811   0.5203   0.7782
     0.8375   0.9646   1.0259   1.0848   1.0926   1.1892   1.3067   1.3661
     1.3845   1.4161   1.4622   1.5027   1.5494   1.5769   1.6319   1.6682
     1.7302   1.7917   1.8117   1.8686   1.9553   2.0061   2.0095   2.0746
     2.1334   2.2083   2.3093   2.3820   2.5252   2.5756   2.5841   2.5883
     2.6536   2.7200   2.7223   2.7762   2.8064   2.8111   2.8487   2.8565
     2.9039   2.9437   2.9744   3.0511   3.0697   3.0770   3.0904   3.2029
     3.2074   3.2222   3.2375   3.2415   3.2704   3.2824   3.3154   3.3562
     3.3612   3.3685   3.4198   3.4784   3.4990   3.5452   3.6349   3.6693
     3.6765   3.7131   3.7197   3.7351   3.7966   3.8118   3.8565   3.8905
     3.9103   3.9124   3.9474   3.9907   4.0172   4.0833   4.1018   4.1077
     4.1483   4.1778   4.2257   4.2396   4.2772   4.3059   4.3162   4.3484
     4.3649   4.3783   4.4045   4.4230   4.4605   4.4842   4.4982   4.5388
     4.5633   4.5720   4.6245   4.6359   4.6548   4.6981   4.7030   4.7463
     4.7561   4.7763   4.8012   4.8049   4.8273   4.8439   4.8613   4.8718
     4.9300   4.9780   5.0420   5.0606   5.0664   5.0918   5.1009   5.1476
     5.1506   5.1778   5.2035   5.2231   5.2752   5.2890   5.3351   5.3727
     5.3848   5.4045   5.4152   5.4319   5.4679   5.4868   5.5347   5.5506
     5.5538   5.5670   5.5839   5.5918   5.6672   5.6706   5.6842   5.7035
     5.7043   5.7337   5.7798   5.7999   5.8098   5.8101   5.8454   5.8504
     5.8846   5.8929   5.8978   5.9361   5.9560   5.9958   6.0065   6.0259
     6.0267   6.0370   6.0542   6.1299   6.1488   6.1527   6.1563   6.1826
     6.1865   6.2095   6.2322   6.2430   6.2513   6.2577   6.2711   6.3036
     6.3128   6.3468   6.3526   6.3542   6.3687   6.3982   6.4001   6.4572
     6.4573   6.4860   6.4984   6.5197   6.5446   6.5732   6.6037   6.6260
     6.6313   6.6559   6.6777   6.6824   6.7006   6.7158   6.7390   6.7545
     6.7611   6.8182   6.8226   6.8646   6.8948   6.9133   6.9265   6.9322
     6.9392   6.9658   6.9868   7.0363   7.0401   7.0641   7.0659   7.0868
     7.0884   7.1288   7.1386   7.1448   7.1605   7.1615   7.1648   7.1816
     7.2038   7.2052   7.2466   7.2522   7.2613   7.2846   7.3155   7.3433
     7.3448   7.3527   7.3708   7.3876   7.4106   7.4187   7.4372   7.4611
     7.4744   7.5156   7.5272   7.5334   7.5663   7.5724   7.5816   7.5859
     7.6375   7.6499   7.6552   7.6858   7.6920   7.7119   7.7389   7.7448
     7.7643   7.7714   7.8062   7.8293   7.8590   7.8676   7.8713   7.8800
     7.8917   7.9105   7.9278   7.9573   7.9683   7.9931   8.0001   8.0137
     8.0525   8.0531   8.0709   8.0750   8.0763   8.1001   8.1112   8.1401
     8.1718   8.1820   8.2178   8.2370   8.2448   8.2538   8.2821   8.2981
     8.2993   8.3343   8.3662   8.3953

          k = 0.0000 0.0000 0.0047 (147403 PWs)   bands (ev):

   -21.5002 -21.1863 -21.1457 -21.0562 -20.8179 -20.6332 -20.6218 -20.2879
   -20.1364 -19.9783 -19.9746 -19.8404 -19.8149 -19.6006 -19.4538 -19.2289
   -19.1746 -18.9710 -18.9548 -18.6106 -18.4883 -18.3972 -18.2952 -18.1245
   -18.0697 -17.9366 -17.9073 -17.7199 -17.6648 -17.5755 -17.4810 -17.1674
   -17.0906 -16.9682 -16.8256 -16.7299 -16.6615 -16.6455 -16.2988 -16.2689
   -16.1854 -16.1636 -15.8670 -15.6896 -15.3313 -15.1888 -15.1859 -14.9548
   -14.9079 -14.7632 -14.6768 -14.6461 -14.5333 -14.3910 -14.3175 -14.1274
   -13.9711 -13.7822 -13.5138 -13.5077 -13.4022 -13.2551 -13.0569 -12.9396
   -12.9050 -12.6671 -12.6652 -12.4693 -12.4101 -12.3327 -12.3125 -12.2717
   -12.2164 -12.2028 -12.0458 -11.5057 -11.4485 -11.4044 -11.2262 -11.1069
   -10.9934 -10.8985 -10.8957 -10.8254 -10.6505 -10.6457 -10.5872 -10.3208
   -10.2545 -10.2233 -10.1487  -9.9533  -9.9151  -9.8083  -9.7871  -9.7183
    -9.6196  -9.5784  -9.5538  -9.4696  -9.3972  -9.3669  -9.2798  -9.2148
    -9.2037  -9.1726  -9.0563  -9.0292  -8.9453  -8.8505  -8.8373  -8.7783
    -8.7453  -8.6459  -8.6226  -8.5931  -8.5876  -8.5787  -8.5716  -8.5527
    -8.5283  -8.4944  -8.4671  -8.2977  -8.2747  -8.2709  -8.2591  -8.1735
    -8.1561  -8.0887  -7.9742  -7.9717  -7.9289  -7.9201  -7.8439  -7.8198
    -7.8173  -7.6540  -7.6092  -7.5490  -7.4527  -7.4011  -7.3875  -7.3043
    -7.2478  -7.2260  -7.1544  -7.0494  -6.9554  -6.9467  -6.9391  -6.8723
    -6.7660  -6.7193  -6.6868  -6.6683  -6.5049  -6.5046  -6.3488  -6.2643
    -6.1437  -6.1417  -6.0162  -5.9883  -5.9780  -5.9664  -5.9437  -5.8115
    -5.6790  -5.6431  -5.5257  -5.3913  -5.3822  -5.3807  -5.2870  -5.1780
    -5.0733  -4.8305  -4.8015  -4.7058  -4.6146  -4.4431  -4.3950  -4.2591
    -4.2537  -4.0631  -3.9485  -3.8566  -3.6641  -3.0509  -2.9328  -2.3045
    -1.9562  -1.3743  -1.1994  -0.7669  -0.5091  -0.4573  -0.3986  -0.3775
    -0.1383  -0.0950   0.0225   0.0417   0.1829   0.3895   0.5198   0.7755
     0.8060   0.9660   1.0273   1.0458   1.1239   1.1906   1.2945   1.3527
     1.4041   1.4091   1.4316   1.5165   1.5510   1.5905   1.6155   1.6460
     1.7414   1.8029   1.8596   1.8608   1.9723   1.9927   2.0384   2.0718
     2.1527   2.1965   2.3268   2.3787   2.5277   2.5707   2.5751   2.5893
     2.6319   2.7045   2.7360   2.7666   2.7973   2.8086   2.8589   2.8703
     2.9235   2.9501   2.9570   3.0333   3.0378   3.0617   3.0900   3.1977
     3.2146   3.2326   3.2351   3.2430   3.2649   3.3043   3.3356   3.3696
     3.3712   3.3790   3.4356   3.4435   3.5039   3.5271   3.6379   3.6535
     3.6709   3.7223   3.7309   3.7491   3.8226   3.8313   3.8679   3.8692
     3.8974   3.8995   3.9418   3.9919   4.0343   4.0672   4.0835   4.1264
     4.1514   4.1542   4.2134   4.2575   4.2883   4.2883   4.2944   4.3458
     4.3508   4.3602   4.4369   4.4457   4.4496   4.4564   4.5190   4.5240
     4.5841   4.5848   4.6157   4.6427   4.6478   4.6720   4.7123   4.7313
     4.7330   4.7576   4.8039   4.8071   4.8318   4.8377   4.8726   4.8981
     4.9477   5.0005   5.0611   5.0800   5.0866   5.0938   5.1097   5.1161
     5.1248   5.1679   5.1888   5.2261   5.2901   5.3024   5.3311   5.3721
     5.3895   5.3981   5.4235   5.4489   5.4528   5.4887   5.5242   5.5431
     5.5481   5.5631   5.5735   5.6145   5.6452   5.6614   5.6730   5.7158
     5.7261   5.7262   5.7627   5.7718   5.7851   5.8348   5.8629   5.8698
     5.8788   5.8838   5.9025   5.9084   5.9219   5.9970   6.0122   6.0207
     6.0272   6.0549   6.0745   6.1165   6.1451   6.1839   6.1874   6.1874
     6.2083   6.2137   6.2348   6.2378   6.2531   6.2585   6.2748   6.3134
     6.3288   6.3343   6.3368   6.3481   6.3510   6.3963   6.4116   6.4573
     6.4731   6.4965   6.5003   6.5097   6.5392   6.5816   6.5890   6.6275
     6.6380   6.6397   6.6694   6.6950   6.7030   6.7313   6.7327   6.7652
     6.7661   6.8227   6.8361   6.8571   6.8922   6.8979   6.9002   6.9214
     6.9494   6.9564   6.9669   7.0292   7.0299   7.0346   7.0697   7.0854
     7.0876   7.1269   7.1284   7.1463   7.1574   7.1675   7.1699   7.1910
     7.1934   7.2079   7.2301   7.2540   7.2547   7.2672   7.3366   7.3461
     7.3643   7.3868   7.3955   7.4041   7.4100   7.4114   7.4131   7.4683
     7.4760   7.5267   7.5321   7.5436   7.5508   7.5639   7.5685   7.5942
     7.6455   7.6477   7.6577   7.6686   7.7070   7.7236   7.7295   7.7441
     7.7441   7.7783   7.7916   7.8380   7.8525   7.8732   7.8929   7.9027
     7.9055   7.9158   7.9517   7.9542   7.9597   7.9726   8.0260   8.0289
     8.0453   8.0585   8.0665   8.0667   8.0892   8.1096   8.1149   8.1299
     8.1620   8.1690   8.2083   8.2179   8.2401   8.2448   8.2584   8.2800
     8.2998   8.3485   8.3625   8.3995

          k = 0.0000 0.0000 0.0059 (147375 PWs)   bands (ev):

   -21.4990 -21.1980 -21.1449 -21.0418 -20.8245 -20.6329 -20.6123 -20.2942
   -20.1564 -19.9746 -19.9662 -19.8361 -19.8207 -19.5868 -19.4456 -19.2477
   -19.1745 -18.9515 -18.9508 -18.6097 -18.5053 -18.4373 -18.2893 -18.1166
   -18.0300 -17.9653 -17.9057 -17.7412 -17.6534 -17.5507 -17.4637 -17.1754
   -17.0862 -16.9923 -16.8234 -16.7231 -16.6548 -16.6260 -16.3197 -16.2700
   -16.1845 -16.1770 -15.8877 -15.6800 -15.3528 -15.1891 -15.1647 -14.9507
   -14.9142 -14.7425 -14.6792 -14.6305 -14.5139 -14.3909 -14.3172 -14.1376
   -13.9774 -13.7736 -13.5131 -13.4967 -13.4108 -13.2557 -13.0934 -12.9901
   -12.9394 -12.6830 -12.6546 -12.4102 -12.3788 -12.3412 -12.3011 -12.2616
   -12.2063 -12.2059 -12.0205 -11.5033 -11.4618 -11.4000 -11.2309 -11.1311
   -11.0264 -10.8929 -10.8919 -10.8242 -10.6275 -10.6210 -10.5790 -10.3305
   -10.2638 -10.2248 -10.1731  -9.9506  -9.9396  -9.7975  -9.7857  -9.7462
    -9.6070  -9.5770  -9.5375  -9.4748  -9.3925  -9.3642  -9.2770  -9.2184
    -9.1720  -9.1716  -9.0385  -9.0156  -8.9509  -8.8817  -8.8666  -8.7873
    -8.7528  -8.6576  -8.6318  -8.5977  -8.5927  -8.5872  -8.5592  -8.5322
    -8.5103  -8.4782  -8.4602  -8.2952  -8.2689  -8.2652  -8.2514  -8.1800
    -8.1615  -8.0787  -7.9977  -7.9802  -7.9358  -7.9130  -7.8439  -7.8096
    -7.8013  -7.6341  -7.6255  -7.5633  -7.4460  -7.4130  -7.3761  -7.3101
    -7.2268  -7.2124  -7.1732  -7.0518  -6.9754  -6.9506  -6.9443  -6.8724
    -6.7866  -6.7141  -6.6631  -6.6538  -6.5319  -6.4876  -6.3467  -6.2348
    -6.1672  -6.1614  -6.0592  -5.9871  -5.9783  -5.9619  -5.9254  -5.7976
    -5.6608  -5.6187  -5.5593  -5.3934  -5.3863  -5.3831  -5.3064  -5.1381
    -5.0630  -4.8342  -4.8045  -4.7060  -4.6166  -4.4627  -4.3865  -4.2575
    -4.2553  -4.0477  -3.9489  -3.8567  -3.6685  -3.0512  -2.9433  -2.3327
    -1.9287  -1.3659  -1.1975  -0.7585  -0.5009  -0.4577  -0.3913  -0.3765
    -0.1402  -0.1226   0.0219   0.0268   0.2144   0.3974   0.5201   0.7709
     0.7760   0.9677   1.0008   1.0290   1.1639   1.1923   1.2731   1.3385
     1.3644   1.3909   1.4773   1.5305   1.5528   1.6001   1.6061   1.6207
     1.7504   1.8176   1.8534   1.8970   1.9760   2.0036   2.0679   2.0719
     2.1728   2.1860   2.3447   2.3742   2.5308   2.5568   2.5744   2.5906
     2.6080   2.6876   2.7534   2.7556   2.7825   2.8108   2.8613   2.8924
     2.9206   2.9435   2.9709   2.9991   3.0234   3.0449   3.0942   3.1914
     3.2091   3.2374   3.2448   3.2502   3.2518   3.3277   3.3443   3.3811
     3.3967   3.3979   3.4096   3.4485   3.5102   3.5109   3.6365   3.6401
     3.6664   3.7267   3.7276   3.7862   3.8400   3.8507   3.8512   3.8824
     3.8838   3.8877   3.9403   3.9936   4.0484   4.0505   4.0510   4.1398
     4.1409   4.1539   4.2138   4.2583   4.2769   4.2823   4.2997   4.3349
     4.3418   4.3423   4.4296   4.4319   4.4641   4.4779   4.4998   4.5401
     4.5985   4.5987   4.5997   4.6239   4.6463   4.6747   4.6985   4.7043
     4.7391   4.7442   4.8071   4.8090   4.8268   4.8511   4.8905   4.9246
     4.9642   5.0200   5.0608   5.0794   5.0963   5.1020   5.1107   5.1161
     5.1277   5.1551   5.1752   5.2297   5.2890   5.3185   5.3362   5.3468
     5.3712   5.3955   5.4266   5.4617   5.4913   5.4953   5.5078   5.5304
     5.5371   5.5677   5.5745   5.6252   5.6347   5.6508   5.6561   5.7199
     5.7216   5.7308   5.7427   5.7485   5.7732   5.8597   5.8654   5.8694
     5.8715   5.8722   5.8878   5.9034   5.9341   5.9924   6.0049   6.0186
     6.0294   6.0805   6.0977   6.0991   6.1291   6.1869   6.2025   6.2093
     6.2259   6.2357   6.2382   6.2466   6.2563   6.2616   6.2845   6.3071
     6.3186   6.3265   6.3430   6.3452   6.3572   6.3943   6.4217   6.4559
     6.4921   6.4942   6.4946   6.5101   6.5429   6.5714   6.5925   6.6013
     6.6285   6.6461   6.6738   6.6901   6.7083   6.7403   6.7412   6.7752
     6.7877   6.8296   6.8413   6.8571   6.8733   6.8753   6.8875   6.9022
     6.9251   6.9602   6.9671   6.9966   7.0195   7.0307   7.0766   7.0796
     7.0805   7.1084   7.1256   7.1491   7.1588   7.1749   7.1751   7.1896
     7.1944   7.2214   7.2226   7.2270   7.2512   7.2738   7.3406   7.3549
     7.3805   7.3935   7.3950   7.3999   7.4123   7.4387   7.4397   7.4772
     7.4829   7.4876   7.5295   7.5374   7.5476   7.5716   7.6030   7.6047
     7.6258   7.6450   7.6563   7.6715   7.6987   7.7125   7.7272   7.7473
     7.7768   7.7780   7.7813   7.8408   7.8470   7.8781   7.9011   7.9118
     7.9119   7.9347   7.9388   7.9519   7.9636   8.0049   8.0387   8.0399
     8.0480   8.0530   8.0577   8.0631   8.0869   8.1031   8.1304   8.1331
     8.1461   8.1628   8.1899   8.2088   8.2417   8.2421   8.2454   8.2607
     8.3087   8.3331   8.3753   8.4046

          k = 0.0000 0.0000 0.0070 (147319 PWs)   bands (ev):

   -21.4975 -21.2097 -21.1440 -21.0268 -20.8317 -20.6325 -20.6015 -20.3022
   -20.1757 -19.9745 -19.9546 -19.8581 -19.7984 -19.5748 -19.4347 -19.2676
   -19.1744 -18.9460 -18.9308 -18.6086 -18.5236 -18.4771 -18.2841 -18.1098
   -17.9928 -17.9910 -17.9022 -17.7627 -17.6466 -17.5200 -17.4468 -17.1844
   -17.0804 -17.0178 -16.8215 -16.7170 -16.6455 -16.6053 -16.3441 -16.2712
   -16.1922 -16.1837 -15.9109 -15.6691 -15.3773 -15.1961 -15.1368 -14.9457
   -14.9159 -14.7214 -14.6804 -14.6141 -14.4923 -14.3901 -14.3166 -14.1492
   -13.9845 -13.7640 -13.5139 -13.4822 -13.4212 -13.2566 -13.1366 -13.0366
   -12.9779 -12.6997 -12.6436 -12.3639 -12.3488 -12.3366 -12.2867 -12.2491
   -12.2095 -12.1949 -11.9913 -11.5007 -11.4775 -11.3948 -11.2360 -11.1552
   -11.0607 -10.8968 -10.8894 -10.8111 -10.6149 -10.5930 -10.5638 -10.3444
   -10.2679 -10.2260 -10.2012  -9.9931  -9.9295  -9.7862  -9.7769  -9.7689
    -9.5990  -9.5752  -9.5167  -9.4863  -9.3862  -9.3591  -9.2742  -9.2330
    -9.1705  -9.1263  -9.0201  -8.9999  -8.9647  -8.9161  -8.8870  -8.7971
    -8.7572  -8.6722  -8.6447  -8.6077  -8.6007  -8.5867  -8.5452  -8.5216
    -8.4989  -8.4583  -8.4445  -8.2940  -8.2660  -8.2544  -8.2419  -8.1879
    -8.1651  -8.0682  -8.0215  -7.9889  -7.9423  -7.9047  -7.8438  -7.8006
    -7.7824  -7.6599  -7.5952  -7.5782  -7.4439  -7.4200  -7.3670  -7.3175
    -7.2053  -7.1954  -7.1953  -7.0548  -6.9998  -6.9510  -6.9489  -6.8729
    -6.8086  -6.7079  -6.6398  -6.6389  -6.5569  -6.4697  -6.3440  -6.2058
    -6.1909  -6.1823  -6.1021  -5.9879  -5.9783  -5.9583  -5.9058  -5.7829
    -5.6577  -5.5925  -5.5795  -5.3942  -5.3914  -5.3859  -5.3271  -5.0978
    -5.0534  -4.8386  -4.8084  -4.7052  -4.6184  -4.4834  -4.3799  -4.2561
    -4.2553  -4.0316  -3.9489  -3.8568  -3.6731  -3.0524  -2.9553  -2.3624
    -1.8998  -1.3566  -1.1945  -0.7485  -0.4912  -0.4581  -0.3824  -0.3754
    -0.1497  -0.1429   0.0107   0.0209   0.2468   0.4028   0.5223   0.7482
     0.7634   0.9589   0.9698   1.0311   1.1944   1.2014   1.2402   1.3240
     1.3336   1.3772   1.5190   1.5422   1.5548   1.5879   1.5957   1.6229
     1.7581   1.8349   1.8495   1.9190   1.9595   2.0502   2.0628   2.1063
     2.1772   2.1934   2.3626   2.3685   2.5346   2.5431   2.5734   2.5832
     2.5922   2.6719   2.7436   2.7673   2.7717   2.8132   2.8638   2.8882
     2.9146   2.9477   2.9823   2.9848   3.0085   3.0274   3.1001   3.1843
     3.2015   3.2370   3.2432   3.2471   3.2661   3.3445   3.3502   3.3793
     3.3887   3.4208   3.4332   3.4522   3.5043   3.5177   3.6191   3.6421
     3.6626   3.7261   3.7323   3.8134   3.8219   3.8674   3.8708   3.8755
     3.8774   3.8998   3.9406   3.9956   4.0086   4.0349   4.0635   4.1290
     4.1439   4.1562   4.2270   4.2313   4.2705   4.2955   4.3078   4.3181
     4.3250   4.3390   4.4121   4.4132   4.4676   4.4815   4.5071   4.5614
     4.5887   4.5899   4.6033   4.6111   4.6456   4.6745   4.6763   4.7048
     4.7227   4.7583   4.8101   4.8161   4.8264   4.8681   4.9122   4.9480
     4.9802   5.0258   5.0421   5.0703   5.0808   5.1069   5.1274   5.1375
     5.1485   5.1599   5.1656   5.2336   5.2752   5.2957   5.3177   5.3698
     5.3713   5.4006   5.4015   5.4886   5.4915   5.5003   5.5215   5.5305
     5.5321   5.5638   5.5811   5.6148   5.6338   5.6372   5.6514   5.6863
     5.7015   5.7324   5.7444   5.7599   5.7697   5.8382   5.8533   5.8581
     5.8606   5.8694   5.8855   5.9369   5.9528   5.9749   6.0005   6.0238
     6.0440   6.0798   6.0998   6.1067   6.1252   6.1739   6.2175   6.2191
     6.2293   6.2336   6.2502   6.2635   6.2660   6.2807   6.2953   6.3041
     6.3160   6.3267   6.3513   6.3530   6.3671   6.3927   6.4297   6.4523
     6.4809   6.4893   6.5135   6.5141   6.5489   6.5614   6.5642   6.6021
     6.6306   6.6560   6.6705   6.6752   6.7149   6.7471   6.7537   6.7844
     6.8183   6.8329   6.8390   6.8462   6.8516   6.8688   6.8705   6.8844
     6.9079   6.9297   6.9676   6.9938   7.0098   7.0270   7.0640   7.0641
     7.0943   7.0991   7.1262   7.1364   7.1513   7.1632   7.1711   7.1941
     7.2127   7.2177   7.2376   7.2406   7.2439   7.2802   7.3119   7.3623
     7.3688   7.3900   7.4046   7.4134   7.4183   7.4420   7.4759   7.4872
     7.4895   7.4988   7.5127   7.5422   7.5478   7.5751   7.6022   7.6115
     7.6124   7.6530   7.6672   7.6811   7.6874   7.6901   7.7353   7.7556
     7.7695   7.7776   7.8248   7.8359   7.8565   7.8821   7.8849   7.8942
     7.9172   7.9313   7.9346   7.9727   7.9960   8.0142   8.0312   8.0323
     8.0574   8.0613   8.0650   8.0675   8.0807   8.0857   8.1363   8.1412
     8.1514   8.1624   8.1685   8.1939   8.2403   8.2421   8.2507   8.2578
     8.3159   8.3217   8.3659   8.4110

          k = 0.0000 0.0000 0.0082 (147293 PWs)   bands (ev):

   -21.4958 -21.2214 -21.1429 -21.0112 -20.8393 -20.6321 -20.5895 -20.3122
   -20.1937 -19.9745 -19.9431 -19.8807 -19.7740 -19.5650 -19.4208 -19.2881
   -19.1744 -18.9404 -18.9095 -18.6073 -18.5430 -18.5164 -18.2800 -18.1080
   -18.0095 -17.9630 -17.8927 -17.7833 -17.6426 -17.4859 -17.4309 -17.1939
   -17.0732 -17.0442 -16.8199 -16.7121 -16.6337 -16.5841 -16.3716 -16.2725
   -16.2086 -16.1836 -15.9356 -15.6574 -15.4042 -15.2074 -15.1055 -14.9397
   -14.9133 -14.7020 -14.6779 -14.5981 -14.4691 -14.3878 -14.3154 -14.1617
   -13.9919 -13.7537 -13.5151 -13.4657 -13.4333 -13.2576 -13.1853 -13.0794
   -13.0193 -12.7155 -12.6352 -12.3621 -12.3205 -12.2924 -12.2640 -12.2346
   -12.2120 -12.1830 -11.9588 -11.4981 -11.4957 -11.3891 -11.2414 -11.1792
   -11.0953 -10.9072 -10.8854 -10.7925 -10.6074 -10.5689 -10.5424 -10.3595
   -10.2676 -10.2319 -10.2267 -10.0401  -9.9233  -9.7967  -9.7658  -9.7613
    -9.5941  -9.5731  -9.5016  -9.4943  -9.3777  -9.3530  -9.2712  -9.2474
    -9.1691  -9.0807  -9.0011  -8.9890  -8.9822  -8.9511  -8.8964  -8.8072
    -8.7600  -8.6893  -8.6594  -8.6233  -8.6024  -8.5861  -8.5300  -8.5208
    -8.4902  -8.4395  -8.4213  -8.2950  -8.2623  -8.2425  -8.2301  -8.1976
    -8.1661  -8.0572  -8.0448  -7.9972  -7.9488  -7.8953  -7.8438  -7.7904
    -7.7631  -7.6862  -7.5936  -7.5635  -7.4501  -7.4183  -7.3604  -7.3267
    -7.2197  -7.1837  -7.1755  -7.0585  -7.0249  -6.9529  -6.9511  -6.8740
    -6.8312  -6.7007  -6.6309  -6.6146  -6.5751  -6.4516  -6.3404  -6.2148
    -6.2039  -6.1777  -6.1448  -5.9897  -5.9780  -5.9556  -5.8859  -5.7696
    -5.6576  -5.6230  -5.5378  -5.3973  -5.3942  -5.3892  -5.3486  -5.0573
    -5.0451  -4.8435  -4.8133  -4.7031  -4.6201  -4.5048  -4.3769  -4.2551
    -4.2528  -4.0161  -3.9482  -3.8569  -3.6774  -3.0551  -2.9677  -2.3930
    -1.8703  -1.3470  -1.1898  -0.7373  -0.4803  -0.4584  -0.3740  -0.3721
    -0.1759  -0.1463  -0.0056   0.0194   0.2798   0.4038   0.5275   0.7232
     0.7510   0.9220   0.9724   1.0336   1.1830   1.1968   1.2518   1.3093
     1.3137   1.3632   1.5386   1.5452   1.5571   1.5848   1.5895   1.6407
     1.7652   1.8475   1.8541   1.9332   1.9433   2.0563   2.1055   2.1413
     2.1703   2.2145   2.3614   2.3801   2.5299   2.5389   2.5580   2.5720
     2.5940   2.6576   2.7305   2.7519   2.7904   2.8155   2.8548   2.8662
     2.9193   2.9369   2.9933   2.9982   2.9993   3.0100   3.1047   3.1769
     3.1967   3.2218   3.2474   3.2497   3.2800   3.3408   3.3431   3.3833
     3.3952   3.4438   3.4454   3.4719   3.5118   3.5260   3.6015   3.6442
     3.6594   3.7270   3.7387   3.7857   3.8370   3.8684   3.8721   3.8872
     3.8993   3.9168   3.9418   3.9700   3.9979   4.0192   4.0706   4.1186
     4.1473   4.1584   4.1947   4.2566   4.2600   4.2949   4.3023   4.3083
     4.3206   4.3449   4.3924   4.4019   4.4305   4.4835   4.5365   4.5596
     4.5821   4.5828   4.5952   4.6140   4.6538   4.6547   4.6572   4.7123
     4.7373   4.7613   4.8124   4.8296   4.8330   4.8879   4.9356   4.9601
     4.9967   5.0096   5.0192   5.0756   5.0838   5.1083   5.1151   5.1524
     5.1661   5.1759   5.1943   5.2303   5.2374   5.2858   5.3043   5.3659
     5.3760   5.4049   5.4092   5.4689   5.4854   5.4965   5.5324   5.5490
     5.5561   5.5681   5.5713   5.6092   5.6232   5.6282   5.6555   5.6658
     5.6734   5.7328   5.7512   5.7570   5.7807   5.8183   5.8202   5.8487
     5.8495   5.8702   5.9107   5.9527   5.9549   5.9687   5.9980   6.0299
     6.0617   6.0701   6.0812   6.1227   6.1471   6.1593   6.2068   6.2093
     6.2317   6.2521   6.2532   6.2680   6.2812   6.2909   6.3042   6.3266
     6.3277   6.3333   6.3580   6.3632   6.3859   6.3932   6.4353   6.4458
     6.4745   6.4792   6.5121   6.5282   6.5306   6.5578   6.5616   6.6135
     6.6350   6.6499   6.6653   6.6769   6.7167   6.7511   6.7681   6.7896
     6.8190   6.8213   6.8259   6.8387   6.8484   6.8531   6.8685   6.8827
     6.8887   6.9072   6.9714   6.9814   7.0029   7.0225   7.0431   7.0679
     7.0977   7.1052   7.1076   7.1180   7.1379   7.1606   7.1780   7.2064
     7.2209   7.2329   7.2337   7.2563   7.2580   7.2738   7.2864   7.3350
     7.3677   7.3935   7.4110   7.4134   7.4166   7.4397   7.4973   7.5058
     7.5135   7.5222   7.5292   7.5456   7.5466   7.5696   7.5872   7.5919
     7.6091   7.6538   7.6690   7.6869   7.6946   7.7038   7.7517   7.7657
     7.7690   7.7733   7.8360   7.8586   7.8643   7.8664   7.8675   7.8844
     7.8997   7.9382   7.9611   7.9852   7.9871   8.0066   8.0262   8.0353
     8.0480   8.0617   8.0716   8.0739   8.0859   8.1176   8.1303   8.1410
     8.1533   8.1640   8.1681   8.1836   8.2301   8.2386   8.2639   8.2820
     8.3149   8.3153   8.3436   8.4141

          k = 0.0000 0.0000 0.0094 (147291 PWs)   bands (ev):

   -21.4939 -21.2330 -21.1417 -20.9951 -20.8472 -20.6316 -20.5767 -20.3242
   -20.2099 -19.9744 -19.9316 -19.9034 -19.7481 -19.5576 -19.4042 -19.3090
   -19.1743 -18.9340 -18.8880 -18.6063 -18.5630 -18.5546 -18.2771 -18.1163
   -18.0157 -17.9485 -17.8702 -17.8017 -17.6399 -17.4498 -17.4166 -17.2035
   -17.0713 -17.0645 -16.8185 -16.7084 -16.6199 -16.5631 -16.4015 -16.2738
   -16.2257 -16.1848 -15.9606 -15.6453 -15.4328 -15.2227 -15.0718 -14.9323
   -14.9067 -14.6931 -14.6628 -14.5839 -14.4447 -14.3837 -14.3134 -14.1746
   -13.9995 -13.7430 -13.5164 -13.4477 -13.4470 -13.2590 -13.2379 -13.1198
   -13.0624 -12.7307 -12.6304 -12.3651 -12.2944 -12.2658 -12.2203 -12.2158
   -12.2113 -12.1695 -11.9234 -11.5159 -11.4958 -11.3831 -11.2469 -11.2030
   -11.1297 -10.9192 -10.8813 -10.7725 -10.6021 -10.5518 -10.5178 -10.3718
   -10.2677 -10.2607 -10.2273 -10.0893  -9.9203  -9.8177  -9.7497  -9.7402
    -9.5906  -9.5706  -9.5190  -9.4727  -9.3665  -9.3467  -9.2681  -9.2616
    -9.1676  -9.0442  -9.0198  -8.9818  -8.9796  -8.9610  -8.8983  -8.8176
    -8.7623  -8.7089  -8.6747  -8.6388  -8.6035  -8.5855  -8.5254  -8.5139
    -8.4822  -8.4243  -8.3958  -8.2984  -8.2580  -8.2297  -8.2158  -8.2090
    -8.1640  -8.0669  -8.0459  -8.0048  -7.9554  -7.8849  -7.8439  -7.7791
    -7.7436  -7.7128  -7.6092  -7.5309  -7.4602  -7.4123  -7.3557  -7.3384
    -7.2452  -7.1624  -7.1531  -7.0626  -7.0502  -6.9562  -6.9511  -6.8757
    -6.8538  -6.6925  -6.6365  -6.5909  -6.5774  -6.4337  -6.3358  -6.2387
    -6.2261  -6.1874  -6.1509  -5.9921  -5.9768  -5.9537  -5.8659  -5.7620
    -5.6589  -5.6466  -5.4958  -5.4042  -5.3937  -5.3930  -5.3701  -5.0383
    -5.0167  -4.8485  -4.8194  -4.6997  -4.6214  -4.5260  -4.3786  -4.2542
    -4.2473  -4.0022  -3.9465  -3.8570  -3.6807  -3.0605  -2.9794  -2.4240
    -1.8404  -1.3378  -1.1828  -0.7251  -0.4686  -0.4586  -0.3726  -0.3605
    -0.2009  -0.1506  -0.0213   0.0177   0.3132   0.3991   0.5361   0.7015
     0.7314   0.8925   0.9753   1.0364   1.1307   1.1996   1.2906   1.2946
     1.3004   1.3491   1.5174   1.5366   1.5597   1.5939   1.6210   1.6591
     1.7724   1.8476   1.8746   1.9275   1.9443   2.0485   2.1648   2.1651
     2.1767   2.2359   2.3530   2.3962   2.5174   2.5334   2.5438   2.5700
     2.5962   2.6447   2.7164   2.7366   2.8092   2.8142   2.8253   2.8663
     2.8888   2.9588   2.9780   2.9933   3.0106   3.0216   3.1057   3.1698
     3.1969   3.2069   3.2501   3.2527   3.2807   3.3300   3.3332   3.4006
     3.4088   3.4323   3.4706   3.5085   3.5280   3.5345   3.5839   3.6462
     3.6570   3.7310   3.7455   3.7584   3.8218   3.8611   3.8870   3.9060
     3.9185   3.9347   3.9436   3.9472   4.0007   4.0044   4.0724   4.1077
     4.1583   4.1601   4.1618   4.2511   4.2704   4.2766   4.2918   4.3017
     4.3381   4.3575   4.3652   4.3958   4.3973   4.4721   4.5276   4.5617
     4.5635   4.5937   4.6046   4.6129   4.6347   4.6568   4.6579   4.7166
     4.7570   4.7715   4.8137   4.8354   4.8558   4.9076   4.9471   4.9587
     4.9865   5.0151   5.0153   5.0848   5.0857   5.0943   5.1279   5.1423
     5.1771   5.1957   5.2083   5.2240   5.2406   5.2732   5.3025   5.3427
     5.3669   5.4195   5.4349   5.4503   5.4689   5.4828   5.5337   5.5383
     5.5496   5.5872   5.5932   5.6107   5.6116   5.6340   5.6533   5.6543
     5.6643   5.7248   5.7559   5.7611   5.7651   5.7883   5.8302   5.8399
     5.8416   5.8736   5.9363   5.9379   5.9396   5.9873   5.9953   6.0371
     6.0535   6.0580   6.0916   6.1415   6.1449   6.1693   6.1815   6.2041
     6.2346   6.2514   6.2718   6.2727   6.2885   6.3011   6.3126   6.3345
     6.3414   6.3595   6.3614   6.3785   6.3974   6.4137   6.4354   6.4400
     6.4643   6.4745   6.5054   6.5101   6.5314   6.5572   6.5850   6.6249
     6.6312   6.6423   6.6691   6.6826   6.7152   6.7515   6.7816   6.7867
     6.7920   6.7951   6.8095   6.8213   6.8517   6.8537   6.8562   6.8767
     6.8923   6.9147   6.9546   6.9810   7.0007   7.0144   7.0221   7.0742
     7.0844   7.0942   7.0992   7.1213   7.1463   7.1669   7.1815   7.2184
     7.2210   7.2215   7.2259   7.2594   7.2654   7.2721   7.2925   7.3148
     7.3720   7.3872   7.3896   7.4087   7.4242   7.4460   7.5062   7.5197
     7.5359   7.5444   7.5486   7.5514   7.5572   7.5633   7.5785   7.5918
     7.6000   7.6360   7.6605   7.7108   7.7113   7.7196   7.7589   7.7661
     7.7711   7.8047   7.8244   7.8419   7.8494   7.8765   7.8774   7.8798
     7.8978   7.9444   7.9511   7.9694   7.9870   8.0028   8.0289   8.0376
     8.0433   8.0743   8.0806   8.0868   8.1029   8.1223   8.1226   8.1457
     8.1497   8.1651   8.1790   8.1888   8.2365   8.2400   8.2700   8.3029
     8.3125   8.3135   8.3254   8.4040

          k = 0.0000 0.0000 0.0106 (147327 PWs)   bands (ev):

   -21.4917 -21.2444 -21.1404 -20.9787 -20.8552 -20.6311 -20.5631 -20.3384
   -20.2243 -19.9745 -19.9262 -19.9199 -19.7210 -19.5522 -19.3852 -19.3300
   -19.1743 -18.9269 -18.8666 -18.6104 -18.5868 -18.5835 -18.2753 -18.1345
   -18.0096 -17.9488 -17.8380 -17.8151 -17.6380 -17.4125 -17.4042 -17.2128
   -17.0986 -17.0542 -16.8171 -16.7057 -16.6053 -16.5427 -16.4329 -16.2750
   -16.2429 -16.1881 -15.9845 -15.6333 -15.4625 -15.2414 -15.0366 -14.9231
   -14.8973 -14.6917 -14.6378 -14.5730 -14.4197 -14.3775 -14.3099 -14.1874
   -14.0068 -13.7323 -13.5179 -13.4622 -13.4282 -13.2929 -13.2612 -13.1588
   -13.1063 -12.7456 -12.6299 -12.3654 -12.2710 -12.2485 -12.2176 -12.1959
   -12.1656 -12.1460 -11.8856 -11.5380 -11.4940 -11.3770 -11.2527 -11.2265
   -11.1629 -10.9312 -10.8770 -10.7534 -10.5967 -10.5454 -10.4922 -10.3789
   -10.2971 -10.2571 -10.2300 -10.1367  -9.9193  -9.8389  -9.7321  -9.7154
    -9.5880  -9.5679  -9.5375  -9.4535  -9.3522  -9.3407  -9.2755  -9.2647
    -9.1659  -9.0532  -9.0484  -8.9750  -8.9620  -8.9323  -8.8965  -8.8280
    -8.7647  -8.7305  -8.6901  -8.6535  -8.6044  -8.5848  -8.5328  -8.4969
    -8.4743  -8.4134  -8.3718  -8.3031  -8.2534  -8.2225  -8.2162  -8.1989
    -8.1588  -8.0875  -8.0346  -8.0111  -7.9623  -7.8734  -7.8441  -7.7668
    -7.7395  -7.7240  -7.6249  -7.4974  -7.4713  -7.4052  -7.3536  -7.3527
    -7.2701  -7.1422  -7.1290  -7.0756  -7.0669  -6.9591  -6.9511  -6.8785
    -6.8758  -6.6833  -6.6542  -6.5681  -6.5663  -6.4166  -6.3299  -6.2622
    -6.2484  -6.2298  -6.1260  -5.9950  -5.9742  -5.9524  -5.8462  -5.7669
    -5.6613  -5.6564  -5.4544  -5.4119  -5.3973  -5.3927  -5.3908  -5.0334
    -4.9761  -4.8535  -4.8268  -4.6948  -4.6226  -4.5466  -4.3853  -4.2536
    -4.2392  -3.9910  -3.9431  -3.8571  -3.6824  -3.0698  -2.9890  -2.4552
    -1.8106  -1.3297  -1.1730  -0.7125  -0.4585  -0.4564  -0.3709  -0.3477
    -0.2243  -0.1557  -0.0357   0.0158   0.3468   0.3885   0.5479   0.6835
     0.7035   0.8717   0.9785   1.0396   1.0751   1.2027   1.2802   1.2839
     1.3350   1.3357   1.4864   1.5234   1.5625   1.6077   1.6584   1.6781
     1.7801   1.8503   1.8959   1.9120   1.9542   2.0395   2.1617   2.2120
     2.2258   2.2575   2.3430   2.4090   2.5037   2.5138   2.5490   2.5672
     2.5985   2.6334   2.7007   2.7216   2.7867   2.8235   2.8257   2.8482
     2.8791   2.9612   2.9737   2.9855   3.0212   3.0437   3.1020   3.1636
     3.1927   3.2029   3.2520   3.2560   3.2588   3.3209   3.3398   3.4052
     3.4237   3.4360   3.4956   3.5304   3.5426   3.5592   3.5662   3.6481
     3.6561   3.7319   3.7385   3.7523   3.8028   3.8553   3.8560   3.9297
     3.9409   3.9464   3.9530   3.9551   3.9922   4.0038   4.0754   4.0963
     4.1284   4.1604   4.1755   4.2439   4.2547   4.2578   4.2761   4.3246
     4.3291   4.3500   4.3711   4.3746   4.3965   4.4542   4.4954   4.5443
     4.5549   4.5995   4.6167   4.6253   4.6364   4.6434   4.6725   4.7335
     4.7496   4.8066   4.8141   4.8432   4.8804   4.9159   4.9190   4.9753
     4.9796   5.0209   5.0368   5.0623   5.0952   5.1060   5.1240   5.1333
     5.1474   5.2257   5.2368   5.2427   5.2440   5.2588   5.3126   5.3150
     5.3608   5.4301   5.4340   5.4517   5.4608   5.4653   5.4989   5.5289
     5.5435   5.5903   5.5992   5.6083   5.6254   5.6428   5.6511   5.6593
     5.6851   5.7165   5.7329   5.7597   5.7634   5.7646   5.8321   5.8408
     5.8532   5.8797   5.9200   5.9233   5.9619   5.9847   5.9883   6.0343
     6.0462   6.0677   6.0976   6.1323   6.1505   6.1584   6.1816   6.2246
     6.2367   6.2453   6.2735   6.2779   6.2984   6.3140   6.3199   6.3447
     6.3491   6.3575   6.3921   6.3973   6.3995   6.4209   6.4328   6.4479
     6.4532   6.4808   6.4980   6.5116   6.5309   6.5571   6.6104   6.6163
     6.6336   6.6535   6.6671   6.6904   6.7115   6.7413   6.7573   6.7640
     6.7776   6.7944   6.7990   6.8220   6.8222   6.8468   6.8528   6.8867
     6.9038   6.9228   6.9278   6.9762   7.0030   7.0032   7.0179   7.0620
     7.0739   7.1016   7.1040   7.1293   7.1585   7.1781   7.1807   7.1829
     7.2018   7.2235   7.2312   7.2390   7.2826   7.2853   7.2982   7.3286
     7.3653   7.3758   7.3790   7.4076   7.4215   7.4403   7.4984   7.5227
     7.5410   7.5481   7.5547   7.5651   7.5702   7.5903   7.5928   7.5968
     7.6086   7.6308   7.6522   7.7146   7.7280   7.7333   7.7603   7.7698
     7.7723   7.8181   7.8325   7.8452   7.8492   7.8582   7.8797   7.8859
     7.8917   7.9186   7.9420   7.9478   7.9953   8.0177   8.0242   8.0388
     8.0570   8.0938   8.0982   8.1008   8.1022   8.1044   8.1113   8.1546
     8.1658   8.1678   8.1821   8.1977   8.2468   8.2533   8.2646   8.3027
     8.3145   8.3317   8.3327   8.3911

          k = 0.0000 0.0000 0.0117 (147325 PWs)   bands (ev):

   -21.4892 -21.2555 -21.1389 -20.9619 -20.8632 -20.6306 -20.5488 -20.3547
   -20.2367 -19.9750 -19.9486 -19.9078 -19.6931 -19.5484 -19.3643 -19.3509
   -19.1742 -18.9193 -18.8457 -18.6384 -18.6043 -18.5938 -18.2752 -18.1577
   -17.9962 -17.9581 -17.8315 -17.7937 -17.6365 -17.3941 -17.3746 -17.2213
   -17.1260 -17.0423 -16.8158 -16.7038 -16.5919 -16.5231 -16.4643 -16.2763
   -16.2597 -16.1949 -16.0054 -15.6223 -15.4923 -15.2628 -15.0016 -14.9107
   -14.8860 -14.6918 -14.6090 -14.5660 -14.3950 -14.3696 -14.3038 -14.1994
   -14.0137 -13.7217 -13.5196 -13.4787 -13.4078 -13.3492 -13.2654 -13.1972
   -13.1491 -12.7601 -12.6338 -12.3623 -12.2515 -12.2331 -12.2162 -12.1747
   -12.1434 -12.0910 -11.8459 -11.5616 -11.4929 -11.3712 -11.2602 -11.2496
   -11.1930 -10.9426 -10.8728 -10.7364 -10.5899 -10.5511 -10.4668 -10.3857
   -10.3215 -10.2482 -10.2442 -10.1716  -9.9195  -9.8603  -9.7139  -9.6884
    -9.5858  -9.5649  -9.5562  -9.4373  -9.3353  -9.3350  -9.2890  -9.2610
    -9.1640  -9.0870  -9.0809  -8.9539  -8.9419  -8.8930  -8.8928  -8.8382
    -8.7674  -8.7537  -8.7051  -8.6663  -8.6051  -8.5841  -8.5419  -8.4792
    -8.4664  -8.4065  -8.3540  -8.3055  -8.2490  -8.2382  -8.2021  -8.1798
    -8.1507  -8.1060  -8.0233  -8.0158  -7.9695  -7.8611  -7.8445  -7.7659
    -7.7536  -7.7047  -7.6403  -7.4824  -7.4635  -7.3979  -7.3740  -7.3509
    -7.2923  -7.1248  -7.1035  -7.1009  -7.0703  -6.9618  -6.9511  -6.8965
    -6.8824  -6.6746  -6.6733  -6.5509  -6.5466  -6.4009  -6.3229  -6.2848
    -6.2714  -6.2708  -6.1039  -5.9984  -5.9693  -5.9519  -5.8268  -5.7861
    -5.6649  -5.6509  -5.4236  -5.4206  -5.4021  -5.4004  -5.3912  -5.0305
    -4.9358  -4.8580  -4.8356  -4.6887  -4.6236  -4.5662  -4.3963  -4.2532
    -4.2298  -3.9836  -3.9378  -3.8570  -3.6816  -3.0840  -2.9954  -2.4863
    -1.7810  -1.3232  -1.1600  -0.6998  -0.4580  -0.4445  -0.3690  -0.3341
    -0.2458  -0.1611  -0.0481   0.0138   0.3728   0.3804   0.5616   0.6684
     0.6694   0.8586   0.9822   1.0186   1.0432   1.2062   1.2660   1.2705
     1.3211   1.3785   1.4533   1.5089   1.5657   1.6228   1.6931   1.6976
     1.7886   1.8568   1.8970   1.9180   1.9637   2.0297   2.1597   2.2472
     2.2793   2.2876   2.3317   2.4147   2.4844   2.5075   2.5545   2.5634
     2.6012   2.6237   2.6823   2.7073   2.7578   2.8093   2.8268   2.8504
     2.8829   2.9454   2.9600   3.0061   3.0293   3.0640   3.0945   3.1594
     3.1801   3.2131   3.2295   3.2536   3.2597   3.3047   3.3580   3.4091
     3.4194   3.4639   3.5193   3.5411   3.5485   3.5508   3.5986   3.6497
     3.6577   3.7071   3.7496   3.7589   3.7833   3.8139   3.8509   3.9304
     3.9507   3.9595   3.9713   3.9741   3.9968   4.0075   4.0846   4.0849
     4.0945   4.1572   4.1952   4.2349   4.2383   4.2417   4.2610   4.2776
     4.3511   4.3552   4.3619   4.3931   4.3973   4.4337   4.4638   4.5222
     4.5331   4.6006   4.6247   4.6257   4.6457   4.6619   4.6907   4.7410
     4.7539   4.8135   4.8396   4.8522   4.8900   4.9004   4.9053   4.9903
     4.9978   5.0259   5.0391   5.0621   5.0720   5.1051   5.1178   5.1233
     5.1737   5.2319   5.2426   5.2455   5.2558   5.2815   5.2819   5.3391
     5.3491   5.4219   5.4349   5.4361   5.4531   5.4632   5.4823   5.5081
     5.5390   5.5829   5.5928   5.5945   5.6324   5.6536   5.6572   5.6856
     5.7100   5.7105   5.7120   5.7496   5.7552   5.7679   5.8246   5.8475
     5.8782   5.8815   5.9038   5.9119   5.9680   5.9800   5.9876   6.0140
     6.0543   6.0883   6.0924   6.1168   6.1276   6.1712   6.1893   6.2335
     6.2348   6.2590   6.2734   6.2768   6.3110   6.3169   6.3400   6.3410
     6.3515   6.3659   6.3920   6.3958   6.4179   6.4286   6.4371   6.4380
     6.4667   6.4969   6.5127   6.5176   6.5345   6.5571   6.6065   6.6281
     6.6369   6.6612   6.6728   6.6973   6.7064   6.7143   6.7217   6.7366
     6.7740   6.7906   6.7984   6.8040   6.8346   6.8431   6.8445   6.8850
     6.8894   6.9095   6.9408   6.9592   6.9868   7.0083   7.0369   7.0591
     7.0698   7.1005   7.1223   7.1352   7.1370   7.1731   7.1754   7.1794
     7.1836   7.2039   7.2378   7.2562   7.2910   7.3025   7.3049   7.3286
     7.3650   7.3675   7.3792   7.4052   7.4054   7.4333   7.4700   7.5293
     7.5336   7.5447   7.5723   7.5794   7.5821   7.5963   7.6012   7.6301
     7.6388   7.6394   7.6468   7.7017   7.7422   7.7436   7.7514   7.7750
     7.7781   7.8204   7.8365   7.8389   7.8587   7.8631   7.8655   7.8792
     7.8985   7.9101   7.9249   7.9485   8.0020   8.0021   8.0329   8.0501
     8.0623   8.0817   8.0941   8.1131   8.1148   8.1166   8.1273   8.1583
     8.1678   8.1718   8.1869   8.2045   8.2378   8.2607   8.3024   8.3051
     8.3208   8.3396   8.3462   8.3770

          k = 0.0000 0.0000 0.0129 (147299 PWs)   bands (ev):

   -21.4865 -21.2663 -21.1373 -20.9448 -20.8710 -20.6300 -20.5339 -20.3727
   -20.2473 -19.9792 -19.9674 -19.8953 -19.6645 -19.5459 -19.3717 -19.3419
   -19.1742 -18.9111 -18.8257 -18.6748 -18.6252 -18.5908 -18.2772 -18.1817
   -17.9789 -17.9734 -17.8380 -17.7532 -17.6352 -17.3866 -17.3368 -17.2288
   -17.1530 -17.0288 -16.8145 -16.7026 -16.5839 -16.5048 -16.4923 -16.2777
   -16.2752 -16.2063 -16.0214 -15.6142 -15.5203 -15.2861 -14.9695 -14.8926
   -14.8736 -14.6919 -14.5779 -14.5635 -14.3715 -14.3616 -14.2937 -14.2094
   -14.0198 -13.7118 -13.5215 -13.4962 -13.4070 -13.3853 -13.2746 -13.2353
   -13.1876 -12.7742 -12.6421 -12.3559 -12.2394 -12.2191 -12.2090 -12.1515
   -12.1242 -12.0301 -11.8050 -11.5864 -11.4928 -11.3667 -11.2734 -11.2715
   -11.2154 -10.9533 -10.8687 -10.7223 -10.5810 -10.5666 -10.4429 -10.4068
   -10.3266 -10.2811 -10.2357 -10.1810  -9.9202  -9.8819  -9.6960  -9.6603
    -9.5837  -9.5742  -9.5616  -9.4239  -9.3310  -9.3162  -9.3022  -9.2569
    -9.1620  -9.1197  -9.1177  -8.9364  -8.9214  -8.8886  -8.8488  -8.8483
    -8.7781  -8.7695  -8.7196  -8.6758  -8.6060  -8.5833  -8.5520  -8.4609
    -8.4587  -8.4029  -8.3500  -8.2983  -8.2561  -8.2452  -8.1876  -8.1595
    -8.1399  -8.1223  -8.0184  -8.0124  -7.9770  -7.8479  -7.8455  -7.7917
    -7.7395  -7.6859  -7.6554  -7.4934  -7.4290  -7.4002  -7.3906  -7.3499
    -7.3105  -7.1260  -7.1146  -7.0770  -7.0694  -6.9646  -6.9510  -6.9147
    -6.8876  -6.6943  -6.6626  -6.5344  -6.5270  -6.3882  -6.3219  -6.3050
    -6.3047  -6.2931  -6.0856  -6.0022  -5.9612  -5.9522  -5.8134  -5.8077
    -5.6702  -5.6363  -5.4362  -5.4301  -5.4073  -5.3892  -5.3656  -5.0296
    -4.8965  -4.8618  -4.8453  -4.6814  -4.6244  -4.5844  -4.4108  -4.2528
    -4.2204  -3.9807  -3.9299  -3.8569  -3.6777  -3.1027  -2.9987  -2.5171
    -1.7518  -1.3184  -1.1437  -0.6878  -0.4570  -0.4337  -0.3668  -0.3202
    -0.2650  -0.1657  -0.0583   0.0116   0.3530   0.4139   0.5758   0.6286
     0.6595   0.8509   0.9620   0.9863   1.0472   1.2097   1.2523   1.2569
     1.3073   1.4193   1.4217   1.4943   1.5691   1.6379   1.7174   1.7220
     1.7980   1.8689   1.8825   1.9407   1.9729   2.0193   2.1590   2.2819
     2.3001   2.3202   2.3494   2.4091   2.4668   2.5113   2.5579   2.5600
     2.6040   2.6157   2.6602   2.6943   2.7342   2.7764   2.8307   2.8664
     2.8902   2.9293   2.9453   3.0286   3.0338   3.0804   3.0845   3.1582
     3.1703   3.1990   3.2248   3.2562   3.2638   3.2861   3.3787   3.4125
     3.4187   3.4922   3.5307   3.5379   3.5454   3.5625   3.6379   3.6506
     3.6610   3.6879   3.7640   3.7641   3.7645   3.7704   3.8476   3.9230
     3.9515   3.9551   3.9881   3.9956   4.0121   4.0276   4.0602   4.0734
     4.1015   4.1471   4.2093   4.2226   4.2295   4.2315   4.2342   4.2481
     4.3319   4.3555   4.3883   4.3960   4.4123   4.4180   4.4333   4.4881
     4.5311   4.5865   4.6036   4.6491   4.6670   4.6880   4.7118   4.7323
     4.7729   4.8116   4.8427   4.8619   4.8769   4.8904   4.9297   5.0136
     5.0136   5.0173   5.0234   5.0294   5.0900   5.1142   5.1143   5.1303
     5.2047   5.2177   5.2321   5.2399   5.2505   5.2844   5.3213   5.3284
     5.3640   5.4144   5.4187   5.4258   5.4343   5.4616   5.4866   5.5006
     5.5183   5.5709   5.5903   5.5976   5.6214   5.6493   5.6545   5.6785
     5.7110   5.7227   5.7405   5.7415   5.7690   5.7800   5.8151   5.8572
     5.8641   5.9043   5.9044   5.9080   5.9469   5.9714   5.9962   6.0130
     6.0625   6.0813   6.0833   6.0904   6.1450   6.1825   6.1976   6.2146
     6.2261   6.2644   6.2754   6.2941   6.3220   6.3317   6.3353   6.3430
     6.3600   6.3705   6.3728   6.3806   6.4291   6.4388   6.4551   6.4592
     6.4698   6.5104   6.5285   6.5401   6.5481   6.5581   6.6021   6.6310
     6.6366   6.6548   6.6697   6.6970   6.6973   6.7052   6.7053   6.7096
     6.7744   6.7782   6.7841   6.8102   6.8354   6.8416   6.8535   6.8556
     6.8730   6.9005   6.9466   6.9643   6.9743   7.0153   7.0488   7.0538
     7.0734   7.0954   7.1225   7.1231   7.1396   7.1399   7.1611   7.1802
     7.1896   7.2263   7.2453   7.2693   7.3014   7.3037   7.3131   7.3207
     7.3505   7.3771   7.3822   7.3876   7.4007   7.4298   7.4464   7.5221
     7.5357   7.5411   7.5675   7.5913   7.6045   7.6063   7.6068   7.6430
     7.6569   7.6584   7.6706   7.6974   7.7348   7.7442   7.7603   7.7714
     7.7907   7.8155   7.8180   7.8282   7.8450   7.8658   7.8762   7.8838
     7.9078   7.9110   7.9476   7.9511   7.9804   8.0129   8.0344   8.0459
     8.0555   8.0582   8.1145   8.1159   8.1262   8.1319   8.1543   8.1550
     8.1555   8.1801   8.2030   8.2134   8.2351   8.2762   8.2885   8.3192
     8.3306   8.3416   8.3507   8.3750

          k = 0.0000 0.0000 0.0141 (147253 PWs)   bands (ev):

   -21.4837 -21.2768 -21.1357 -20.9273 -20.8787 -20.6294 -20.5185 -20.3921
   -20.2563 -19.9975 -19.9719 -19.8823 -19.6356 -19.5443 -19.3922 -19.3185
   -19.1741 -18.9025 -18.8079 -18.7108 -18.6460 -18.5854 -18.2827 -18.2034
   -17.9931 -17.9596 -17.8418 -17.7109 -17.6339 -17.3818 -17.3001 -17.2348
   -17.1784 -17.0137 -16.8131 -16.7018 -16.5898 -16.5092 -16.4879 -16.2883
   -16.2798 -16.2226 -16.0314 -15.6136 -15.5417 -15.3108 -14.9438 -14.8658
   -14.8607 -14.6918 -14.5650 -14.5450 -14.3551 -14.3509 -14.2787 -14.2156
   -14.0249 -13.7029 -13.5243 -13.5143 -13.4632 -13.3637 -13.2954 -13.2732
   -13.2151 -12.7879 -12.6541 -12.3465 -12.2356 -12.2066 -12.1943 -12.1270
   -12.1032 -11.9684 -11.7634 -11.6122 -11.4935 -11.3650 -11.2961 -11.2908
   -11.2258 -10.9632 -10.8648 -10.7119 -10.5884 -10.5693 -10.4408 -10.4229
   -10.3283 -10.3178 -10.2188 -10.1748  -9.9212  -9.9039  -9.6801  -9.6326
    -9.5901  -9.5810  -9.5580  -9.4128  -9.3282  -9.3150  -9.2981  -9.2526
    -9.1599  -9.1542  -9.1494  -8.9226  -8.9005  -8.8839  -8.8580  -8.8136
    -8.8035  -8.7637  -8.7331  -8.6801  -8.6071  -8.5825  -8.5625  -8.4514
    -8.4421  -8.4014  -8.3581  -8.2833  -8.2760  -8.2420  -8.1728  -8.1396
    -8.1364  -8.1268  -8.0179  -8.0020  -7.9846  -7.8487  -7.8340  -7.8153
    -7.7247  -7.6696  -7.6680  -7.5042  -7.4317  -7.3943  -7.3834  -7.3497
    -7.3246  -7.1508  -7.1159  -7.0614  -7.0500  -6.9681  -6.9510  -6.9289
    -6.8943  -6.7120  -6.6512  -6.5179  -6.5097  -6.3829  -6.3577  -6.3184
    -6.3151  -6.2984  -6.0721  -6.0064  -5.9535  -5.9489  -5.8434  -5.7891
    -5.6775  -5.6177  -5.4540  -5.4405  -5.4130  -5.3866  -5.3243  -5.0304
    -4.8687  -4.8649  -4.8457  -4.6731  -4.6250  -4.6008  -4.4282  -4.2526
    -4.2121  -3.9829  -3.9191  -3.8566  -3.6705  -3.1250  -2.9999  -2.5475
    -1.7232  -1.3155  -1.1242  -0.6772  -0.4552  -0.4253  -0.3640  -0.3065
    -0.2817  -0.1678  -0.0662   0.0095   0.3300   0.4462   0.5871   0.5886
     0.6547   0.8465   0.9055   0.9907   1.0516   1.2129   1.2395   1.2429
     1.2937   1.3847   1.4652   1.4798   1.5727   1.6526   1.7376   1.7434
     1.8087   1.8684   1.8881   1.9638   1.9821   2.0086   2.1594   2.3014
     2.3155   2.3269   2.3930   2.4106   2.4525   2.5232   2.5495   2.5649
     2.6071   2.6092   2.6354   2.6832   2.7169   2.7429   2.8350   2.8787
     2.9027   2.9132   2.9313   3.0343   3.0512   3.0733   3.0899   3.1605
     3.1653   3.1687   3.2342   3.2626   3.2675   3.2681   3.4005   3.4156
     3.4207   3.5125   3.5206   3.5434   3.5469   3.5820   3.6488   3.6501
     3.6734   3.6947   3.7246   3.7474   3.7703   3.7813   3.8446   3.9115
     3.9386   3.9594   3.9978   4.0174   4.0193   4.0284   4.0607   4.0639
     4.1225   4.1302   4.1835   4.2011   4.2204   4.2276   4.2313   4.2545
     4.3125   4.3499   4.3778   4.3908   4.4044   4.4303   4.4407   4.4543
     4.5382   4.5743   4.5812   4.6665   4.6910   4.7139   4.7241   4.7356
     4.7838   4.8075   4.8130   4.8596   4.8714   4.9233   4.9532   4.9658
     5.0002   5.0283   5.0323   5.0476   5.1056   5.1181   5.1235   5.1437
     5.1995   5.2176   5.2194   5.2341   5.2380   5.2984   5.3122   5.3618
     5.3773   5.4012   5.4037   5.4178   5.4247   5.4660   5.4758   5.4943
     5.5142   5.5560   5.5954   5.6040   5.6095   5.6288   5.6468   5.6540
     5.7121   5.7240   5.7584   5.7676   5.7824   5.7988   5.8234   5.8472
     5.8646   5.9028   5.9153   5.9254   5.9312   5.9620   5.9832   6.0380
     6.0448   6.0638   6.0807   6.0813   6.1729   6.1888   6.1943   6.2053
     6.2128   6.2580   6.2793   6.3010   6.3194   6.3309   6.3400   6.3428
     6.3615   6.3672   6.3698   6.3855   6.4391   6.4454   6.4683   6.4854
     6.4882   6.5184   6.5408   6.5609   6.5650   6.5685   6.6021   6.6158
     6.6288   6.6436   6.6511   6.6844   6.6859   6.6897   6.7089   6.7248
     6.7600   6.7782   6.7819   6.8122   6.8218   6.8281   6.8342   6.8599
     6.8753   6.8960   6.9432   6.9658   6.9783   7.0258   7.0289   7.0564
     7.0595   7.0755   7.1261   7.1264   7.1332   7.1373   7.1552   7.1813
     7.2075   7.2499   7.2536   7.2741   7.2991   7.3036   7.3140   7.3297
     7.3380   7.3474   7.3802   7.3951   7.4036   7.4329   7.4335   7.5078
     7.5404   7.5462   7.5598   7.5844   7.5959   7.6227   7.6343   7.6392
     7.6636   7.6789   7.7118   7.7132   7.7203   7.7409   7.7453   7.7692
     7.7976   7.8009   7.8181   7.8250   7.8390   7.8659   7.8942   7.8983
     7.9086   7.9211   7.9470   7.9612   7.9977   8.0052   8.0222   8.0309
     8.0389   8.0724   8.1169   8.1294   8.1323   8.1329   8.1519   8.1613
     8.1614   8.1988   8.2157   8.2254   8.2374   8.2450   8.2831   8.3347
     8.3419   8.3452   8.3779   8.3819

          k = 0.0000 0.0000 0.0153 (147267 PWs)   bands (ev):

   -21.4806 -21.2869 -21.1340 -20.9096 -20.8861 -20.6288 -20.5026 -20.4124
   -20.2642 -20.0196 -19.9724 -19.8690 -19.6065 -19.5434 -19.4120 -19.2943
   -19.1741 -18.8939 -18.7958 -18.7423 -18.6666 -18.5782 -18.2935 -18.2202
   -18.0157 -17.9391 -17.8432 -17.6680 -17.6326 -17.3796 -17.2692 -17.2393
   -17.1977 -16.9972 -16.8118 -16.7014 -16.6138 -16.5122 -16.4727 -16.2976
   -16.2848 -16.2417 -16.0351 -15.6278 -15.5495 -15.3364 -14.9248 -14.8477
   -14.8301 -14.6915 -14.5699 -14.5109 -14.3507 -14.3356 -14.2591 -14.2153
   -14.0286 -13.6956 -13.5352 -13.5325 -13.5118 -13.3421 -13.3302 -13.3101
   -13.2286 -12.8011 -12.6692 -12.3348 -12.2356 -12.1954 -12.1767 -12.1015
   -12.0800 -11.9066 -11.7221 -11.6385 -11.4950 -11.3696 -11.3248 -11.3044
   -11.2272 -10.9721 -10.8612 -10.7051 -10.6139 -10.5556 -10.4797 -10.4195
   -10.3641 -10.3061 -10.1970 -10.1613  -9.9263  -9.9224  -9.6694  -9.6091
    -9.6006  -9.5743  -9.5541  -9.4035  -9.3277  -9.3275  -9.2848  -9.2487
    -9.1884  -9.1723  -9.1577  -8.9126  -8.8794  -8.8794  -8.8674  -8.8296
    -8.8054  -8.7452  -8.7363  -8.6754  -8.6090  -8.5817  -8.5730  -8.4455
    -8.4228  -8.4003  -8.3713  -8.2976  -8.2672  -8.2398  -8.1578  -8.1485
    -8.1219  -8.1117  -8.0133  -7.9924  -7.9923  -7.8596  -7.8311  -7.8199
    -7.7092  -7.6825  -7.6515  -7.5147  -7.4670  -7.3765  -7.3596  -7.3498
    -7.3354  -7.1748  -7.1258  -7.0512  -7.0225  -6.9727  -6.9509  -6.9370
    -6.9021  -6.7273  -6.6394  -6.5018  -6.4957  -6.3978  -6.3907  -6.3366
    -6.3193  -6.2844  -6.0633  -6.0109  -5.9570  -5.9324  -5.8729  -5.7710
    -5.6872  -5.5976  -5.4704  -5.4518  -5.4190  -5.3831  -5.2827  -5.0328
    -4.8776  -4.8673  -4.8118  -4.6641  -4.6255  -4.6152  -4.4479  -4.2524
    -4.2056  -3.9900  -3.9051  -3.8563  -3.6600  -3.1499  -2.9997  -2.5773
    -1.6954  -1.3140  -1.1020  -0.6689  -0.4527  -0.4209  -0.3600  -0.2955
    -0.2933  -0.1653  -0.0719   0.0073   0.3048   0.4734   0.5492   0.5974
     0.6564   0.8442   0.8496   0.9955   1.0563   1.2134   1.2287   1.2301
     1.2804   1.3497   1.4656   1.5087   1.5766   1.6667   1.7571   1.7580
     1.8207   1.8548   1.9141   1.9869   1.9911   1.9980   2.1606   2.2866
     2.3474   2.3485   2.3709   2.4401   2.4696   2.5361   2.5398   2.5687
     2.6042   2.6104   2.6122   2.6753   2.7055   2.7097   2.8397   2.8871
     2.8973   2.9178   2.9197   3.0311   3.0614   3.0736   3.0904   3.1392
     3.1649   3.1662   3.2384   3.2522   3.2728   3.2748   3.4186   3.4231
     3.4247   3.4936   3.5358   3.5489   3.5505   3.6057   3.6309   3.6473
     3.6808   3.6918   3.7302   3.7333   3.7739   3.7999   3.8404   3.8998
     3.9251   3.9640   3.9775   4.0182   4.0295   4.0354   4.0601   4.0801
     4.1200   4.1427   4.1437   4.1896   4.2152   4.2266   4.2293   4.2785
     4.2921   4.3349   4.3695   4.3695   4.3776   4.4191   4.4637   4.4662
[...]
    -7.3101  -7.2886  -7.1275  -7.0663  -7.0200  -6.9466  -6.9356  -6.7874
    -6.7742  -6.7733  -6.7732  -6.6159  -6.6076  -6.4339  -6.4148  -6.4007
    -6.2220  -6.1630  -6.0699  -6.0663  -6.0561  -5.9356  -5.8784  -5.7248
    -5.6432  -5.5894  -5.5265  -5.4809  -5.4737  -5.2830  -5.0734  -5.0638
    -4.9257  -4.8670  -4.7012  -4.6795  -4.6279  -4.5821  -4.4788  -4.2499
    -4.2142  -4.1827  -3.8544  -3.6833  -3.5256  -3.4159  -2.9857  -2.7797
    -1.5136  -1.3236  -0.8500  -0.6979  -0.5821  -0.4428  -0.3298  -0.1926
    -0.1413  -0.0933   0.0023   0.0563   0.0970   0.1326   0.3678   0.5965
     0.7847   0.7955   0.8566   1.0309   1.0558   1.1098   1.1134   1.1141
     1.1754   1.2762   1.3584   1.6134   1.7500   1.7657   1.7711   1.8911
     1.9153   1.9430   1.9881   2.0407   2.1159   2.1352   2.1626   2.2156
     2.2295   2.2345   2.3547   2.3772   2.4360   2.5132   2.5396   2.5903
     2.6023   2.6520   2.6556   2.7396   2.7561   2.8062   2.8303   2.8963
     2.9128   2.9460   2.9545   2.9577   2.9944   3.0437   3.0694   3.1385
     3.1712   3.2314   3.2611   3.2800   3.2929   3.3217   3.3893   3.4171
     3.4336   3.4399   3.4903   3.4961   3.5059   3.5369   3.6107   3.6554
     3.6673   3.7383   3.7392   3.7430   3.7809   3.8189   3.8572   3.8591
     3.8832   3.9546   3.9978   4.0141   4.0482   4.0519   4.0662   4.0756
     4.1021   4.1322   4.1331   4.1593   4.1610   4.2239   4.2312   4.2399
     4.2676   4.3061   4.3182   4.3474   4.4209   4.4446   4.4952   4.5200
     4.5324   4.5384   4.5494   4.5804   4.6066   4.7095   4.7124   4.7658
     4.8055   4.8302   4.8460   4.8954   4.9054   4.9195   4.9488   4.9817
     5.0241   5.0292   5.0735   5.0830   5.1005   5.1413   5.1472   5.1627
     5.2020   5.2194   5.2379   5.2428   5.2449   5.2520   5.2565   5.3191
     5.3350   5.3629   5.3765   5.3947   5.4179   5.4288   5.4633   5.5000
     5.5382   5.5722   5.6170   5.6402   5.6474   5.6566   5.6776   5.6829
     5.7143   5.7144   5.7630   5.7665   5.7833   5.7959   5.8141   5.8601
     5.8916   5.8941   5.9233   5.9372   5.9515   5.9801   5.9985   6.0013
     6.0364   6.0837   6.0882   6.1409   6.1528   6.1553   6.2196   6.2211
     6.2261   6.2534   6.2592   6.2616   6.2764   6.2925   6.3277   6.3379
     6.3492   6.3634   6.3852   6.4482   6.4661   6.4702   6.4766   6.4893
     6.4899   6.5183   6.5236   6.5365   6.5374   6.5417   6.5598   6.5960
     6.6299   6.6467   6.6559   6.6659   6.6903   6.6961   6.7038   6.7045
     6.7327   6.7506   6.7915   6.8010   6.8225   6.8527   6.8618   6.8739
     6.9113   6.9531   6.9701   6.9875   7.0003   7.0083   7.0184   7.0526
     7.0763   7.0875   7.1271   7.1329   7.1466   7.1801   7.1876   7.1913
     7.1976   7.2350   7.2438   7.2476   7.2575   7.2688   7.2798   7.3169
     7.3558   7.3608   7.3609   7.3916   7.4152   7.4563   7.4779   7.4921
     7.5191   7.5266   7.5410   7.6053   7.6147   7.6175   7.6299   7.6311
     7.6646   7.6678   7.6775   7.6792   7.7009   7.7469   7.7471   7.7479
     7.7637   7.7783   7.8383   7.8526   7.8649   7.9071   7.9123   7.9315
     7.9557   7.9671   7.9818   7.9883   7.9992   8.0523   8.0756   8.0770
     8.0896   8.0984   8.1264   8.1266   8.1513   8.1677   8.1742   8.1784
     8.2142   8.2486   8.2709   8.2763   8.2793   8.2906   8.3062   8.3104
     8.3137   8.3219   8.3615   8.3894

          k = 0.0000 0.0000 0.0270 (147192 PWs)   bands (ev):

   -21.4471 -21.3603 -21.1197 -20.9338 -20.7177 -20.6383 -20.6149 -20.3274
   -20.3027 -20.2328 -19.9718 -19.7252 -19.6106 -19.5453 -19.2746 -19.1746
   -19.1183 -19.0455 -18.9377 -18.7392 -18.6952 -18.4897 -18.3978 -18.2842
   -18.2442 -17.8253 -17.7583 -17.5872 -17.4740 -17.4161 -17.2670 -17.2002
   -17.0359 -16.8800 -16.7855 -16.7725 -16.7187 -16.6249 -16.6241 -16.4038
   -16.2569 -16.1075 -15.9645 -15.9358 -15.5560 -15.4859 -14.7806 -14.7624
   -14.7141 -14.6681 -14.4350 -14.3541 -14.3245 -14.1359 -14.0815 -14.0603
   -13.9814 -13.8669 -13.8541 -13.7632 -13.7031 -13.5761 -13.5302 -13.2353
   -13.1218 -12.8867 -12.8654 -12.2462 -12.2254 -12.0533 -12.0361 -11.9541
   -11.8167 -11.7657 -11.6868 -11.6172 -11.5981 -11.2901 -11.2649 -11.1869
   -11.1227 -11.0418 -10.9994 -10.9916 -10.8456 -10.7859 -10.6984 -10.3298
   -10.2787 -10.2531 -10.1510  -9.9318  -9.8642  -9.8562  -9.7726  -9.7181
    -9.6609  -9.5103  -9.4887  -9.4318  -9.4193  -9.3322  -9.2804  -9.2300
    -9.1547  -9.1391  -9.1164  -9.0933  -9.0394  -8.9278  -8.8700  -8.8066
    -8.7297  -8.7012  -8.6535  -8.5978  -8.5924  -8.5809  -8.5385  -8.5310
    -8.5244  -8.3392  -8.2842  -8.2095  -8.2043  -8.1983  -8.1925  -8.1057
    -8.0627  -8.0503  -8.0261  -7.9790  -7.9577  -7.9165  -7.8388  -7.8110
    -7.7984  -7.6564  -7.6259  -7.5377  -7.5210  -7.4052  -7.3738  -7.3567
    -7.3142  -7.2717  -7.1481  -7.0681  -6.9880  -6.9405  -6.9358  -6.8126
    -6.7749  -6.7679  -6.7494  -6.6320  -6.6287  -6.4328  -6.4069  -6.3964
    -6.2164  -6.1806  -6.0676  -6.0592  -6.0441  -5.9358  -5.9037  -5.7037
    -5.6361  -5.6072  -5.5272  -5.4855  -5.4702  -5.2683  -5.0812  -5.0757
    -4.8959  -4.8597  -4.7340  -4.6808  -4.6280  -4.5782  -4.4537  -4.2483
    -4.2164  -4.2054  -3.8544  -3.6597  -3.5175  -3.4406  -2.9849  -2.7893
    -1.5054  -1.3244  -0.8268  -0.7025  -0.6039  -0.4432  -0.3298  -0.1698
    -0.1273  -0.0880   0.0087   0.0338   0.0962   0.1384   0.3196   0.5958
     0.7929   0.8174   0.8695   0.9963   1.0642   1.1026   1.1032   1.1214
     1.1662   1.2818   1.3509   1.6158   1.7537   1.7613   1.7707   1.9111
     1.9282   1.9595   2.0111   2.0350   2.0995   2.1099   2.1666   2.2019
     2.2454   2.2569   2.3439   2.3552   2.4164   2.5101   2.5542   2.5876
     2.6070   2.6518   2.6642   2.7406   2.7590   2.8206   2.8263   2.8957
     2.9036   2.9379   2.9489   2.9602   3.0101   3.0335   3.1254   3.1378
     3.1577   3.2342   3.2664   3.2745   3.2940   3.3247   3.3816   3.4103
     3.4214   3.4314   3.4776   3.4786   3.4971   3.5535   3.6222   3.6466
     3.6819   3.7178   3.7389   3.7457   3.7783   3.7954   3.8683   3.8824
     3.8988   3.9720   3.9918   4.0028   4.0382   4.0491   4.0511   4.0873
     4.0875   4.1129   4.1491   4.1528   4.2041   4.2198   4.2302   4.2458
     4.2629   4.3125   4.3277   4.3443   4.3957   4.4498   4.4686   4.4979
     4.5404   4.5537   4.5596   4.5938   4.6045   4.7160   4.7314   4.7553
     4.7744   4.8335   4.8545   4.8692   4.9119   4.9182   4.9635   4.9946
     5.0070   5.0331   5.0814   5.0897   5.1098   5.1173   5.1523   5.1661
     5.2100   5.2152   5.2155   5.2550   5.2574   5.2589   5.2668   5.3036
     5.3188   5.3460   5.3731   5.3866   5.4090   5.4358   5.4998   5.5009
     5.5477   5.5883   5.6044   5.6120   5.6528   5.6584   5.6814   5.7059
     5.7064   5.7230   5.7379   5.7718   5.7725   5.8074   5.8567   5.8577
     5.8907   5.8961   5.9094   5.9335   5.9526   5.9729   5.9984   6.0079
     6.0364   6.0447   6.0709   6.1356   6.1397   6.1865   6.2054   6.2164
     6.2381   6.2504   6.2716   6.2865   6.2932   6.3214   6.3283   6.3295
     6.3403   6.3588   6.3854   6.4495   6.4629   6.4723   6.4758   6.4783
     6.4995   6.5018   6.5108   6.5217   6.5320   6.5526   6.5540   6.6077
     6.6302   6.6515   6.6646   6.6770   6.6798   6.6875   6.6926   6.6972
     6.6985   6.7443   6.7870   6.7960   6.8167   6.8558   6.8859   6.8878
     6.9341   6.9404   6.9647   7.0087   7.0120   7.0157   7.0423   7.0743
     7.0748   7.0842   7.1297   7.1373   7.1528   7.1670   7.1771   7.1884
     7.2015   7.2280   7.2421   7.2422   7.2461   7.2618   7.2993   7.3019
     7.3381   7.3557   7.3717   7.3901   7.4116   7.4305   7.4882   7.4933
     7.5153   7.5439   7.5587   7.6040   7.6120   7.6194   7.6252   7.6370
     7.6540   7.6635   7.6657   7.6920   7.7044   7.7261   7.7505   7.7617
     7.7746   7.7823   7.8273   7.8345   7.8642   7.9211   7.9260   7.9318
     7.9505   7.9517   7.9777   7.9809   8.0061   8.0370   8.0600   8.0827
     8.0908   8.1090   8.1248   8.1491   8.1665   8.1761   8.1802   8.1961
     8.2096   8.2452   8.2614   8.2622   8.2898   8.3002   8.3028   8.3212
     8.3281   8.3558   8.3569   8.3610

          k = 0.0000 0.0000 0.0282 (147224 PWs)   bands (ev):

   -21.4456 -21.3626 -21.1193 -20.9349 -20.6980 -20.6548 -20.6185 -20.3122
   -20.3035 -20.2488 -19.9717 -19.7160 -19.6205 -19.5454 -19.2463 -19.1760
   -19.1462 -19.0258 -18.9554 -18.7357 -18.6941 -18.4972 -18.3746 -18.3087
   -18.2443 -17.8246 -17.7525 -17.5792 -17.4882 -17.4177 -17.2591 -17.1640
   -17.0795 -16.8655 -16.7663 -16.7554 -16.7291 -16.6560 -16.6326 -16.4030
   -16.2564 -16.0777 -15.9961 -15.9301 -15.5637 -15.4840 -14.7643 -14.7605
   -14.7309 -14.6663 -14.4386 -14.3492 -14.2814 -14.1586 -14.1074 -14.0224
   -13.9635 -13.9026 -13.8187 -13.7832 -13.7403 -13.5753 -13.5306 -13.2351
   -13.1120 -12.8888 -12.8750 -12.2465 -12.2230 -12.0326 -12.0321 -11.9750
   -11.7869 -11.7473 -11.7175 -11.6379 -11.6004 -11.2797 -11.2123 -11.1443
   -11.1158 -11.0924 -11.0335 -11.0110 -10.8502 -10.7915 -10.6994 -10.3158
   -10.2777 -10.2521 -10.1635  -9.9318  -9.8379  -9.8219  -9.7778  -9.7485
    -9.6845  -9.5082  -9.4918  -9.4294  -9.4224  -9.3266  -9.2802  -9.2038
    -9.1467  -9.1445  -9.1385  -9.0924  -9.0511  -8.9293  -8.8683  -8.8060
    -8.7249  -8.7067  -8.6317  -8.5909  -8.5882  -8.5868  -8.5535  -8.5387
    -8.5348  -8.3283  -8.2906  -8.2053  -8.1912  -8.1891  -8.1777  -8.1270
    -8.0572  -8.0443  -8.0195  -7.9758  -7.9606  -7.9480  -7.8388  -7.8049
    -7.7984  -7.6568  -7.6311  -7.5263  -7.5077  -7.4176  -7.3890  -7.3569
    -7.3153  -7.2574  -7.1645  -7.0693  -6.9691  -6.9360  -6.9216  -6.8513
    -6.7752  -6.7537  -6.7280  -6.6536  -6.6393  -6.4322  -6.4009  -6.3938
    -6.2129  -6.1922  -6.0684  -6.0612  -6.0223  -5.9359  -5.9253  -5.6855
    -5.6316  -5.6234  -5.5276  -5.4886  -5.4683  -5.2576  -5.0935  -5.0771
    -4.8823  -4.8383  -4.7666  -4.6816  -4.6281  -4.5757  -4.4362  -4.2450
    -4.2238  -4.2178  -3.8544  -3.6422  -3.5125  -3.4585  -2.9844  -2.7952
    -1.5004  -1.3249  -0.8101  -0.7054  -0.6198  -0.4434  -0.3298  -0.1537
    -0.1195  -0.0804   0.0165   0.0201   0.0644   0.1813   0.2726   0.5954
     0.7981   0.8277   0.8926   0.9630   1.0727   1.0936   1.0981   1.1278
     1.1588   1.2858   1.3457   1.6173   1.7561   1.7586   1.7705   1.9085
     1.9604   1.9716   2.0239   2.0344   2.0851   2.0875   2.1687   2.1833
     2.2730   2.2785   2.3303   2.3320   2.4039   2.5082   2.5656   2.5838
     2.6099   2.6517   2.6726   2.7278   2.7740   2.8238   2.8291   2.8819
     2.9099   2.9330   2.9417   2.9649   3.0264   3.0320   3.1046   3.1699
     3.1735   3.2445   3.2534   3.2836   3.2957   3.3268   3.3431   3.4038
     3.4257   3.4261   3.4689   3.4741   3.4908   3.5692   3.6285   3.6355
     3.6989   3.7084   3.7363   3.7518   3.7631   3.7806   3.8741   3.9077
     3.9168   3.9674   3.9816   4.0148   4.0161   4.0477   4.0529   4.0652
     4.0986   4.1042   4.1374   4.1745   4.2107   4.2297   4.2499   4.2509
     4.2546   4.3085   4.3468   4.3471   4.3485   4.4470   4.4783   4.4820
     4.5330   4.5444   4.5601   4.6224   4.6327   4.7158   4.7177   4.7389
     4.7687   4.8394   4.8437   4.8735   4.9140   4.9157   4.9753   4.9926
     5.0022   5.0449   5.0783   5.0871   5.0936   5.1365   5.1572   5.1670
     5.1901   5.2029   5.2315   5.2611   5.2632   5.2654   5.2891   5.2959
     5.3049   5.3329   5.3520   5.3600   5.4384   5.4399   5.4998   5.5359
     5.5532   5.5736   5.5989   5.6007   5.6596   5.6612   5.6851   5.6935
     5.6999   5.7176   5.7632   5.7655   5.7783   5.8178   5.8541   5.8557
     5.8933   5.8997   5.9159   5.9250   5.9540   5.9793   5.9958   6.0016
     6.0293   6.0392   6.0622   6.1078   6.1379   6.1960   6.2104   6.2143
     6.2445   6.2490   6.2720   6.2944   6.3176   6.3233   6.3284   6.3327
     6.3534   6.3844   6.3853   6.4202   6.4368   6.4637   6.4674   6.4727
     6.4856   6.5065   6.5137   6.5291   6.5470   6.5494   6.5713   6.6164
     6.6305   6.6389   6.6592   6.6660   6.6755   6.6775   6.6816   6.7034
     6.7068   6.7333   6.7776   6.7794   6.8360   6.8588   6.8961   6.9085
     6.9203   6.9492   6.9511   7.0088   7.0161   7.0479   7.0628   7.0816
     7.0823   7.0973   7.1281   7.1300   7.1333   7.1572   7.1765   7.1892
     7.1973   7.2100   7.2433   7.2464   7.2527   7.2645   7.2973   7.3270
     7.3278   7.3525   7.3769   7.3818   7.3911   7.3960   7.4679   7.5160
     7.5507   7.5611   7.5690   7.6052   7.6085   7.6141   7.6247   7.6284
     7.6339   7.6592   7.6664   7.6924   7.6943   7.7285   7.7529   7.7738
     7.7840   7.8024   7.8093   7.8383   7.8497   7.9176   7.9285   7.9304
     7.9332   7.9635   7.9734   7.9948   8.0109   8.0147   8.0400   8.0796
     8.0973   8.1235   8.1287   8.1596   8.1802   8.1831   8.1865   8.2027
     8.2214   8.2271   8.2459   8.2803   8.2969   8.2971   8.3097   8.3191
     8.3283   8.3425   8.3505   8.3745

          k = 0.0000 0.0000-0.0293 (147164 PWs)   bands (ev):

   -21.4451 -21.3634 -21.1191 -20.9353 -20.6842 -20.6680 -20.6192 -20.3051
   -20.3038 -20.2562 -19.9717 -19.7124 -19.6243 -19.5455 -19.2317 -19.1789
   -19.1584 -19.0162 -18.9642 -18.7344 -18.6937 -18.4997 -18.3611 -18.3227
   -18.2443 -17.8243 -17.7506 -17.5758 -17.4938 -17.4182 -17.2572 -17.1241
   -17.1211 -16.8609 -16.7546 -16.7450 -16.7378 -16.6708 -16.6356 -16.4028
   -16.2562 -16.0597 -16.0147 -15.9282 -15.5663 -15.4834 -14.7599 -14.7477
   -14.7476 -14.6657 -14.4399 -14.3486 -14.2544 -14.1818 -14.1121 -14.0033
   -13.9539 -13.9238 -13.7915 -13.7906 -13.7681 -13.5750 -13.5307 -13.2350
   -13.1086 -12.8895 -12.8784 -12.2466 -12.2223 -12.0307 -12.0200 -11.9878
   -11.7662 -11.7391 -11.7385 -11.6467 -11.6011 -11.2785 -11.1566 -11.1472
   -11.1221 -11.1092 -11.0597 -11.0128 -10.8519 -10.7932 -10.6997 -10.3103
   -10.2777 -10.2518 -10.1681  -9.9318  -9.8264  -9.7981  -9.7804  -9.7711
    -9.6943  -9.5075  -9.4929  -9.4285  -9.4235  -9.3248  -9.2801  -9.1826
    -9.1664  -9.1435  -9.1383  -9.0920  -9.0555  -8.9298  -8.8676  -8.8058
    -8.7230  -8.7089  -8.6181  -8.5971  -8.5903  -8.5819  -8.5583  -8.5415
    -8.5395  -8.3236  -8.2939  -8.2057  -8.1908  -8.1779  -8.1704  -8.1385
    -8.0567  -8.0366  -8.0171  -7.9747  -7.9634  -7.9619  -7.8388  -7.8024
    -7.7984  -7.6571  -7.6330  -7.5219  -7.5021  -7.4224  -7.3953  -7.3570
    -7.3155  -7.2513  -7.1714  -7.0696  -6.9647  -6.9360  -6.8929  -6.8845
    -6.7754  -6.7482  -6.7172  -6.6644  -6.6436  -6.4320  -6.3986  -6.3929
    -6.2117  -6.1963  -6.0686  -6.0619  -6.0123  -5.9359  -5.9351  -5.6766
    -5.6316  -5.6300  -5.5277  -5.4896  -5.4676  -5.2536  -5.0980  -5.0775
    -4.8797  -4.8168  -4.7898  -4.6819  -4.6281  -4.5749  -4.4298  -4.2405
    -4.2339  -4.2183  -3.8544  -3.6356  -3.5108  -3.4654  -2.9843  -2.7972
    -1.4987  -1.3250  -0.8038  -0.7064  -0.6258  -0.4434  -0.3298  -0.1478
    -0.1173  -0.0763   0.0095   0.0365   0.0406   0.2203   0.2322   0.5953
     0.7999   0.8302   0.9126   0.9405   1.0786   1.0874   1.0966   1.1308
     1.1554   1.2873   1.3438   1.6179   1.7569   1.7577   1.7704   1.9076
     1.9763   1.9774   2.0143   2.0532   2.0659   2.0828   2.1693   2.1766
     2.2910   2.2910   2.3155   2.3205   2.3998   2.5076   2.5713   2.5806
     2.6109   2.6516   2.6767   2.7222   2.7800   2.8230   2.8318   2.8762
     2.9127   2.9314   2.9385   2.9667   3.0238   3.0488   3.0839   3.1804
     3.1864   3.2473   3.2607   3.2868   3.2964   3.3132   3.3275   3.4034
     3.4243   3.4274   3.4658   3.4733   3.4884   3.5774   3.6195   3.6427
     3.6899   3.7293   3.7354   3.7433   3.7546   3.7773   3.8761   3.9246
     3.9258   3.9508   3.9835   4.0043   4.0333   4.0414   4.0515   4.0535
     4.1018   4.1046   4.1312   4.1931   4.1969   4.2296   4.2508   4.2514
     4.2959   4.3015   4.3070   4.3512   4.3554   4.4376   4.4760   4.5045
     4.5083   4.5464   4.5585   4.6323   4.6749   4.6772   4.7132   4.7325
     4.7795   4.8261   4.8487   4.8795   4.9116   4.9169   4.9802   4.9866
     5.0040   5.0585   5.0695   5.0805   5.0893   5.1589   5.1594   5.1670
     5.1680   5.2000   5.2428   5.2578   5.2637   5.2699   5.2984   5.2988
     5.3016   5.3276   5.3398   5.3473   5.4412   5.4520   5.4998   5.5551
     5.5577   5.5595   5.5847   5.6053   5.6600   5.6686   5.6843   5.6872
     5.6967   5.7105   5.7631   5.7808   5.7908   5.8220   5.8281   5.8525
     5.9015   5.9019   5.9283   5.9362   5.9451   5.9729   5.9835   5.9949
     6.0406   6.0533   6.0554   6.0862   6.1370   6.1930   6.2088   6.2289
     6.2460   6.2487   6.2725   6.2830   6.3210   6.3284   6.3336   6.3363
     6.3832   6.3853   6.3989   6.4037   6.4153   6.4349   6.4673   6.4727
     6.4991   6.5017   6.5092   6.5286   6.5448   6.5792   6.5854   6.6009
     6.6199   6.6308   6.6653   6.6654   6.6710   6.6744   6.6759   6.7117
     6.7136   6.7243   6.7682   6.7773   6.8455   6.8617   6.8989   6.9087
     6.9253   6.9348   6.9580   7.0048   7.0207   7.0571   7.0761   7.0875
     7.0949   7.1043   7.1122   7.1262   7.1333   7.1430   7.1666   7.1784
     7.2127   7.2145   7.2414   7.2441   7.2545   7.2655   7.3077   7.3232
     7.3513   7.3517   7.3538   7.3754   7.3792   7.3905   7.4614   7.5308
     7.5533   7.5769   7.5864   7.5998   7.6046   7.6082   7.6108   7.6268
     7.6415   7.6486   7.6687   7.6758   7.6966   7.7405   7.7536   7.7787
     7.7849   7.8053   7.8157   7.8305   7.8507   7.8984   7.9306   7.9309
     7.9331   7.9707   7.9810   7.9957   8.0112   8.0126   8.0228   8.0787
     8.0991   8.1231   8.1422   8.1628   8.1772   8.1893   8.1919   8.1960
     8.2140   8.2389   8.2517   8.2842   8.2951   8.2990   8.3037   8.3136
     8.3188   8.3531   8.3565   8.3606

     the Fermi energy is    -2.1642 ev

     Writing output data file LS9_2_13_2_b.save/

     init_run     :     22.40s CPU     22.87s WALL (       1 calls)
     electrons    :  11536.76s CPU  11593.54s WALL (       1 calls)

     Called by init_run:
     wfcinit      :      0.00s CPU      0.00s WALL (       1 calls)
     potinit      :      1.24s CPU      1.36s WALL (       1 calls)
     hinit0       :     16.96s CPU     17.01s WALL (       1 calls)

     Called by electrons:
     c_bands      :  11536.53s CPU  11593.29s WALL (       1 calls)
     v_of_rho     :      0.94s CPU      0.99s WALL (       1 calls)
     newd         :      1.10s CPU      1.36s WALL (       1 calls)

     Called by c_bands:
     init_us_2    :      1.25s CPU      1.29s WALL (      26 calls)
     cegterg      :  11261.09s CPU  11309.49s WALL (      74 calls)

     Called by sum_band:

     Called by *egterg:
     h_psi        :   3779.46s CPU   3804.46s WALL (    1205 calls)
     s_psi        :    472.70s CPU    472.95s WALL (    1205 calls)
     g_psi        :     18.07s CPU     18.08s WALL (    1105 calls)
     cdiaghg      :   3517.86s CPU   3519.62s WALL (    1131 calls)

     Called by h_psi:
     h_psi:pot    :   3766.16s CPU   3786.13s WALL (    1205 calls)
     h_psi:calbec :    488.20s CPU    490.54s WALL (    1205 calls)
     vloc_psi     :   2808.88s CPU   2826.24s WALL (    1205 calls)
     add_vuspsi   :    469.07s CPU    469.34s WALL (    1205 calls)

     General routines
     calbec       :    488.19s CPU    490.54s WALL (    1205 calls)
     fft          :      0.89s CPU      0.96s WALL (      14 calls)
     ffts         :      0.01s CPU      0.01s WALL (       1 calls)
     fftw         :   2435.36s CPU   2450.55s WALL (  563232 calls)
     interpolate  :      0.07s CPU      0.08s WALL (       1 calls)
     davcio       :      0.00s CPU      6.67s WALL (      52 calls)

     Parallel routines
     fft_scatt_xy :    365.37s CPU    367.00s WALL (  563247 calls)
     fft_scatt_yz :   1033.15s CPU   1042.19s WALL (  563247 calls)

     PWSCF        :     3h13m CPU       13h 3m WALL

      22h

   This run was terminated on:   7:14:23  23Apr2021            

=------------------------------------------------------------------------------=
   JOB DONE.
=------------------------------------------------------------------------------=
