
     Program PWSCF v.6.3 starts on 23Apr2021 at  2:43: 1 

     This program is part of the open-source Quantum ESPRESSO suite
     for quantum simulation of materials; please cite
         "P. Giannozzi et al., J. Phys.:Condens. Matter 21 395502 (2009);
         "P. Giannozzi et al., J. Phys.:Condens. Matter 29 465901 (2017);
          URL http://www.quantum-espresso.org", 
     in publications or presentations arising from this work. More details at
     http://www.quantum-espresso.org/quote

     Parallel version (MPI), running on    16 processors
     R & G space division:  proc/nbgrp/npool/nimage =      16
     Waiting for input...
     Reading input from standard input
     Message from routine read_cards :
     DEPRECATED: no units specified in CELL_PARAMETERS card

     Current dimensions of program PWSCF are:
     Max number of different atomic species (ntypx) = 10
     Max number of k-points (npk) =  40000
     Max angular momentum in pseudopotentials (lmaxx) =  3

     Atomic positions and unit cell read from directory:
     /home/zfwang/scratch/GNRDATASET/AGNR/LS9_2_9_2/LS9_2_9_2.save/


     Subspace diagonalization in iterative solution of the eigenvalue problem:
     a serial algorithm will be used


     Parallelization info
     --------------------
     sticks:   dense  smooth     PW     G-vecs:    dense   smooth      PW
     Min        2556     852    219               382876    73664    9645
     Max        2557     853    221               382881    73669    9648
     Sum       40909   13645   3521              6126037  1178677  154333



     bravais-lattice index     =            0
     lattice parameter (alat)  =       1.8897  a.u.
     unit-cell volume          =   34497.4860 (a.u.)^3
     number of atoms/cell      =           96
     number of atomic types    =            2
     number of electrons       =       336.00
     number of Kohn-Sham states=          500
     kinetic-energy cutoff     =      40.0000  Ry
     charge density cutoff     =     480.0000  Ry
     Exchange-correlation      = PBE ( 1  4  3  4 0 0)

     celldm(1)=  18.897261  celldm(2)=   3.000000  celldm(3)=   1.704000
     celldm(4)=   0.000000  celldm(5)=   0.000000  celldm(6)=   0.000000

     crystal axes: (cart. coord. in units of alat)
               a(1) = (  10.000000   0.000000   0.000000 )  
               a(2) = (   0.000000  30.000000   0.000000 )  
               a(3) = (   0.000000   0.000000  17.040000 )  

     reciprocal axes: (cart. coord. in units 2 pi/alat)
               b(1) = (  0.100000  0.000000  0.000000 )  
               b(2) = (  0.000000  0.033333  0.000000 )  
               b(3) = (  0.000000  0.000000  0.058685 )  


     PseudoPot. # 1 for C  read from file:
     /home/zfwang/hp_home/MySoftware/qe-6.3/pseudo/C.pbe-n-rrkjus_psl.0.1.UPF
     MD5 check sum: fff530ed632a789b3b184014e67dd7f1
     Pseudo is Ultrasoft + core correction, Zval =  4.0
     Generated using "atomic" code by A. Dal Corso v.5.0.2 svn rev. 9415
     Using radial grid of 1073 points,  4 beta functions with: 
                l(1) =   0
                l(2) =   0
                l(3) =   1
                l(4) =   1
     Q(r) pseudized with 0 coefficients 


     PseudoPot. # 2 for H  read from file:
     /home/zfwang/hp_home/MySoftware/qe-6.3/pseudo/H.pbe-rrkjus_psl.0.1.UPF
     MD5 check sum: e164a6907b691c6980f16942be34de84
     Pseudo is Ultrasoft, Zval =  1.0
     Generated using "atomic" code by A. Dal Corso v.5.0.2 svn rev. 9415
     Using radial grid of  929 points,  2 beta functions with: 
                l(1) =   0
                l(2) =   0
     Q(r) pseudized with 0 coefficients 


     atomic species   valence    mass     pseudopotential
        C              4.00    12.01070     C ( 1.00)
        H              1.00     1.00794     H ( 1.00)

     No symmetry found



   Cartesian axes

     site n.     atom                  positions (alat units)
         1           C   tau(   1) = (   5.0000002   8.8443086   7.0563471  )
         2           C   tau(   2) = (   5.0000009   8.8539263  11.3458139  )
         3           C   tau(   3) = (   4.9999986  10.1005970   3.5797944  )
         4           C   tau(   4) = (   5.0000014  10.0562553   7.8079745  )
         5           C   tau(   5) = (   5.0000013  10.0797066  12.0680407  )
         6           C   tau(   6) = (   5.0000008  10.0964943  16.3552355  )
         7           C   tau(   7) = (   4.9999996   8.8539246   5.6941877  )
         8           C   tau(   8) = (   5.0000012   8.8443083   9.9836553  )
         9           C   tau(   9) = (   4.9999988  11.2920752   2.8570189  )
        10           C   tau(  10) = (   5.0000015  11.2962732   7.1085249  )
        11           C   tau(  11) = (   5.0000024  11.3096048  11.3507964  )
        12           C   tau(  12) = (   5.0000004  11.2980030  15.6251956  )
        13           C   tau(  13) = (   4.9999988  12.5330141   3.5576363  )
        14           C   tau(  14) = (   5.0000018  12.5333867   7.8141327  )
        15           C   tau(  15) = (   5.0000020  12.5358574  12.0652248  )
        16           C   tau(  16) = (   4.9999994  12.5276429  16.3278492  )
        17           C   tau(  17) = (   5.0000003  10.0964931   0.6847680  )
        18           C   tau(  18) = (   4.9999997  10.0797054   4.9719595  )
        19           C   tau(  19) = (   5.0000020  10.0562559   9.2320288  )
        20           C   tau(  20) = (   5.0000006  10.1006002  13.4602049  )
        21           C   tau(  21) = (   4.9999993  11.2980028   1.4148049  )
        22           C   tau(  22) = (   5.0000006  11.3096032   5.6892066  )
        23           C   tau(  23) = (   5.0000025  11.2962732   9.9314786  )
        24           C   tau(  24) = (   5.0000009  11.2920764  14.1829819  )
        25           C   tau(  25) = (   4.9999980  13.7684408   2.8428432  )
        26           C   tau(  26) = (   5.0000012  13.7678286   7.1017970  )
        27           C   tau(  27) = (   5.0000016  13.7711767  11.3543016  )
        28           C   tau(  28) = (   4.9999994  13.7699959  15.6161186  )
        29           C   tau(  29) = (   4.9999980  15.0000008   3.5520084  )
        30           C   tau(  30) = (   5.0000006  14.9999993   7.8104597  )
        31           C   tau(  31) = (   5.0000004  14.9999989  12.0634750  )
        32           C   tau(  32) = (   4.9999987  15.0000000  16.3236468  )
        33           C   tau(  33) = (   4.9999987  12.5276432   0.7121499  )
        34           C   tau(  34) = (   4.9999998  12.5358566   4.9747776  )
        35           C   tau(  35) = (   5.0000023  12.5333864   9.2258728  )
        36           C   tau(  36) = (   5.0000013  12.5330144  13.4823647  )
        37           C   tau(  37) = (   4.9999980  13.7699961   1.4238798  )
        38           C   tau(  38) = (   5.0000000  13.7711771   5.6857009  )
        39           C   tau(  39) = (   5.0000018  13.7678277   9.9382066  )
        40           C   tau(  40) = (   5.0000004  13.7684398  14.1971563  )
        41           C   tau(  41) = (   4.9999980  16.2315620   2.8428425  )
        42           C   tau(  42) = (   4.9999994  16.2321709   7.1017957  )
        43           C   tau(  43) = (   4.9999995  16.2288202  11.3543014  )
        44           C   tau(  44) = (   4.9999989  16.2300028  15.6161185  )
        45           C   tau(  45) = (   4.9999986  17.4669877   3.5576350  )
        46           C   tau(  46) = (   4.9999991  17.4666123   7.8141316  )
        47           C   tau(  47) = (   4.9999991  17.4641407  12.0652246  )
        48           C   tau(  48) = (   4.9999990  17.4723565  16.3278479  )
        49           C   tau(  49) = (   4.9999982  15.0000005   0.7163522  )
        50           C   tau(  50) = (   4.9999989  15.0000002   4.9765252  )
        51           C   tau(  51) = (   5.0000009  14.9999990   9.2295438  )
        52           C   tau(  52) = (   5.0000000  14.9999985  13.4879899  )
        53           C   tau(  53) = (   4.9999982  16.2300045   1.4238793  )
        54           C   tau(  54) = (   4.9999990  16.2288226   5.6856997  )
        55           C   tau(  55) = (   4.9999997  16.2321704   9.9382069  )
        56           C   tau(  56) = (   4.9999993  16.2315593  14.1971561  )
        57           C   tau(  57) = (   4.9999996  18.7079264   2.8570176  )
        58           C   tau(  58) = (   4.9999993  18.7037262   7.1085238  )
        59           C   tau(  59) = (   4.9999991  18.6903934  11.3507959  )
        60           C   tau(  60) = (   4.9999995  18.7019961  15.6251958  )
        61           C   tau(  61) = (   5.0000007  19.8994049   3.5797940  )
        62           C   tau(  62) = (   4.9999998  19.9437440   7.8079746  )
        63           C   tau(  63) = (   4.9999996  19.9202924  12.0680409  )
        64           C   tau(  64) = (   5.0000005  19.9035069  16.3552312  )
        65           C   tau(  65) = (   4.9999988  17.4723578   0.7121501  )
        66           C   tau(  66) = (   4.9999987  17.4641444   4.9747764  )
        67           C   tau(  67) = (   4.9999992  17.4666119   9.2258716  )
        68           C   tau(  68) = (   4.9999993  17.4669840  13.4823641  )
        69           C   tau(  69) = (   4.9999997  18.7019986   1.4148028  )
        70           C   tau(  70) = (   4.9999993  18.6903975   5.6892056  )
        71           C   tau(  71) = (   4.9999992  18.7037253   9.9314786  )
        72           C   tau(  72) = (   4.9999994  18.7079222  14.1829820  )
        73           C   tau(  73) = (   5.0000001  21.1556919   7.0563480  )
        74           C   tau(  74) = (   5.0000005  21.1460738  11.3458137  )
        75           C   tau(  75) = (   5.0000008  19.9035094   0.6847686  )
        76           C   tau(  76) = (   5.0000002  19.9202961   4.9719596  )
        77           C   tau(  77) = (   4.9999995  19.9437430   9.2320281  )
        78           C   tau(  78) = (   4.9999996  19.8994002  13.4602056  )
        79           C   tau(  79) = (   5.0000003  21.1460777   5.6941883  )
        80           C   tau(  80) = (   5.0000003  21.1556927   9.9836536  )
        81           H   tau(  81) = (   4.9999997   7.8868784   7.5726601  )
        82           H   tau(  82) = (   5.0000003   7.9173290  11.9049910  )
        83           H   tau(  83) = (   4.9999987   7.9173269   5.1350090  )
        84           H   tau(  84) = (   5.0000008   7.8868762   9.4673436  )
        85           H   tau(  85) = (   5.0000002  22.1131222   7.5726620  )
        86           H   tau(  86) = (   5.0000014  22.0826695  11.9049929  )
        87           H   tau(  87) = (   5.0000010  22.0826752   5.1350092  )
        88           H   tau(  88) = (   5.0000011  22.1131244   9.4673414  )
        89           H   tau(  89) = (   4.9999983   9.1404686   3.0684594  )
        90           H   tau(  90) = (   5.0000020   9.1393208  15.8403518  )
        91           H   tau(  91) = (   5.0000013   9.1393182   1.1996516  )
        92           H   tau(  92) = (   4.9999992   9.1404728  13.9715404  )
        93           H   tau(  93) = (   5.0000020  20.8595331   3.0684582  )
        94           H   tau(  94) = (   5.0000006  20.8606791  15.8403482  )
        95           H   tau(  95) = (   5.0000017  20.8606842   1.1996492  )
        96           H   tau(  96) = (   5.0000000  20.8595286  13.9715403  )

     number of k points=    26  Marzari-Vanderbilt smearing, width (Ry)=  0.0100
                       cart. coord. in units 2pi/alat
        k(    1) = (   0.0000000   0.0000000   0.0000000), wk =   0.0400000
        k(    2) = (   0.0000000   0.0000000   0.0011737), wk =   0.0800000
        k(    3) = (   0.0000000   0.0000000   0.0023474), wk =   0.0800000
        k(    4) = (   0.0000000   0.0000000   0.0035211), wk =   0.0800000
        k(    5) = (   0.0000000   0.0000000   0.0046948), wk =   0.0800000
        k(    6) = (   0.0000000   0.0000000   0.0058685), wk =   0.0800000
        k(    7) = (   0.0000000   0.0000000   0.0070423), wk =   0.0800000
        k(    8) = (   0.0000000   0.0000000   0.0082160), wk =   0.0800000
        k(    9) = (   0.0000000   0.0000000   0.0093897), wk =   0.0800000
        k(   10) = (   0.0000000   0.0000000   0.0105634), wk =   0.0800000
        k(   11) = (   0.0000000   0.0000000   0.0117371), wk =   0.0800000
        k(   12) = (   0.0000000   0.0000000   0.0129108), wk =   0.0800000
        k(   13) = (   0.0000000   0.0000000   0.0140845), wk =   0.0800000
        k(   14) = (   0.0000000   0.0000000   0.0152582), wk =   0.0800000
        k(   15) = (   0.0000000   0.0000000   0.0164319), wk =   0.0800000
        k(   16) = (   0.0000000   0.0000000   0.0176056), wk =   0.0800000
        k(   17) = (   0.0000000   0.0000000   0.0187793), wk =   0.0800000
        k(   18) = (   0.0000000   0.0000000   0.0199531), wk =   0.0800000
        k(   19) = (   0.0000000   0.0000000   0.0211268), wk =   0.0800000
        k(   20) = (   0.0000000   0.0000000   0.0223005), wk =   0.0800000
        k(   21) = (   0.0000000   0.0000000   0.0234742), wk =   0.0800000
        k(   22) = (   0.0000000   0.0000000   0.0246479), wk =   0.0800000
        k(   23) = (   0.0000000   0.0000000   0.0258216), wk =   0.0800000
        k(   24) = (   0.0000000   0.0000000   0.0269953), wk =   0.0800000
        k(   25) = (   0.0000000   0.0000000   0.0281690), wk =   0.0800000
        k(   26) = (   0.0000000   0.0000000  -0.0293427), wk =   0.0400000

     Dense  grid:  6126037 G-vectors     FFT dimensions: ( 135, 400, 225)

     Smooth grid:  1178677 G-vectors     FFT dimensions: (  80, 240, 135)

     Estimated max dynamical RAM per process >       1.28 GB

     Estimated total dynamical RAM >      20.55 GB

     The potential is recalculated from file :
     /home/zfwang/scratch/GNRDATASET/AGNR/LS9_2_9_2/LS9_2_9_2.save/charge-density.dat


     negative rho (up, down):  3.821E-04 0.000E+00
     Starting wfcs are  336 randomized atomic wfcs +  164 random wfcs

     Band Structure Calculation
     Davidson diagonalization with overlap

     ethr =  2.98E-09,  avg # of iterations = 38.9

     total cpu time spent up to now is    10744.9 secs

     End of band structure calculation

          k = 0.0000 0.0000 0.0000 (147325 PWs)   bands (ev):

   -21.6506 -21.2832 -21.2682 -21.1992 -20.8223 -20.7683 -20.5273 -20.2331
   -20.1896 -20.0564 -19.9534 -19.7558 -19.7160 -19.6435 -19.1264 -19.0222
   -18.9861 -18.7933 -18.6093 -18.3785 -18.3741 -18.1014 -18.0613 -18.0310
   -17.8930 -17.7566 -17.5308 -17.3928 -17.3237 -17.1430 -16.9228 -16.9169
   -16.6036 -16.5076 -16.4813 -16.3819 -16.2564 -15.9268 -15.6746 -15.4008
   -15.3438 -15.0091 -14.9057 -14.8941 -14.8708 -14.6007 -14.5875 -14.5438
   -14.4861 -14.4231 -13.4953 -13.4646 -13.3244 -13.3077 -13.3031 -13.2988
   -13.2777 -12.8854 -12.8817 -12.7131 -12.7065 -12.4743 -12.4065 -11.9824
   -11.9457 -11.8817 -11.8403 -11.8307 -11.5336 -11.3911 -11.1048 -11.0380
   -11.0210 -10.9620 -10.6903 -10.6266 -10.3888 -10.3843 -10.3724 -10.3541
   -10.1479 -10.0563  -9.9952  -9.9448  -9.9265  -9.7438  -9.7263  -9.7212
    -9.4765  -9.4104  -9.3278  -9.2863  -9.2758  -9.2083  -9.0946  -9.0040
    -8.9989  -8.9432  -8.9126  -8.8909  -8.8546  -8.8144  -8.7582  -8.7451
    -8.7109  -8.6591  -8.6421  -8.6291  -8.5502  -8.5359  -8.5048  -8.4424
    -8.4238  -8.2686  -8.1432  -8.0601  -8.0542  -7.9962  -7.9862  -7.8873
    -7.7945  -7.6847  -7.6069  -7.5595  -7.5300  -7.4998  -7.4827  -7.4543
    -7.4237  -7.4011  -7.1865  -7.1346  -6.9436  -6.8884  -6.8518  -6.7105
    -6.6743  -6.6061  -6.5687  -6.5267  -6.3732  -6.3281  -6.3091  -6.2784
    -6.2455  -5.9927  -5.9912  -5.7755  -5.7722  -5.6665  -5.6071  -5.5822
    -5.4336  -5.4140  -5.1926  -5.0416  -4.8790  -4.8364  -4.8298  -4.6272
    -4.4084  -4.3699  -4.2294  -4.1777  -3.8957  -3.7709  -2.9261  -2.8896
    -1.7254  -1.6649  -1.0071  -0.7937  -0.6548  -0.6143  -0.5540  -0.4873
    -0.3272  -0.2561   0.1341   0.2251   0.4081   0.5109   0.7440   0.7564
     0.7716   0.8064   0.9028   1.0307   1.0752   1.1483   1.2243   1.2593
     1.2710   1.3094   1.4229   1.4293   1.4573   1.4780   1.5373   1.5393
     1.9202   1.9695   1.9698   1.9759   1.9811   2.0657   2.0901   2.1923
     2.2727   2.2778   2.2823   2.3973   2.4514   2.5544   2.5690   2.5812
     2.5875   2.6164   2.6349   2.6374   2.6673   2.7254   2.7481   2.7648
     2.8279   2.8297   2.8624   2.9183   2.9698   2.9964   3.0257   3.0467
     3.1215   3.1472   3.1483   3.1784   3.1850   3.1942   3.1965   3.4104
     3.4292   3.4540   3.4793   3.4881   3.4991   3.5161   3.5590   3.5661
     3.6064   3.6265   3.6369   3.6649   3.7099   3.7851   3.7912   3.8677
     3.8782   3.8964   3.9212   3.9595   3.9779   3.9865   3.9914   3.9923
     4.0638   4.0658   4.0959   4.1150   4.1501   4.2114   4.2835   4.2995
     4.3110   4.3188   4.3666   4.3776   4.4070   4.4110   4.4607   4.4629
     4.4778   4.4825   4.5077   4.5753   4.5964   4.6400   4.6444   4.6695
     4.6979   4.7062   4.7089   4.7388   4.7436   4.7692   4.7974   4.7980
     4.8573   4.8720   4.9197   4.9336   4.9800   4.9963   5.0490   5.0749
     5.1403   5.1502   5.1631   5.1720   5.2282   5.2703   5.2945   5.2997
     5.3205   5.3844   5.3918   5.4293   5.4533   5.4600   5.4854   5.4970
     5.5043   5.5115   5.5180   5.5375   5.5685   5.5690   5.5708   5.6073
     5.6397   5.6573   5.6637   5.6917   5.6948   5.7373   5.7799   5.8022
     5.8058   5.8417   5.9104   5.9208   5.9286   5.9302   5.9410   5.9523
     5.9709   5.9728   5.9938   6.0256   6.0290   6.0550   6.0572   6.0650
     6.0871   6.1353   6.1771   6.1862   6.1909   6.2185   6.2235   6.2346
     6.2799   6.2883   6.2973   6.3339   6.3608   6.3819   6.4027   6.4131
     6.4370   6.4591   6.4646   6.4937   6.5025   6.5443   6.6058   6.6170
     6.6296   6.6354   6.6878   6.6925   6.6936   6.7287   6.7470   6.7649
     6.7653   6.7960   6.8111   6.8424   6.8720   6.8766   6.8917   6.9229
     6.9261   6.9505   6.9747   7.0038   7.0051   7.0112   7.0137   7.0371
     7.0915   7.0925   7.0946   7.1139   7.1460   7.1541   7.1644   7.1689
     7.1752   7.1938   7.2004   7.2060   7.2365   7.2700   7.2727   7.2945
     7.3130   7.3234   7.3584   7.3795   7.4060   7.4170   7.4191   7.4203
     7.4259   7.4826   7.4892   7.4919   7.4934   7.5211   7.5625   7.5745
     7.5774   7.5860   7.5864   7.5939   7.6173   7.6696   7.6718   7.6723
     7.7234   7.7329   7.7884   7.8026   7.8402   7.8698   7.8775   7.8904
     7.9048   7.9063   7.9230   7.9278   7.9559   7.9661   8.0256   8.0371
     8.0479   8.0564   8.0655   8.0660   8.1006   8.1367   8.1423   8.1424
     8.1839   8.1910   8.2020   8.2050   8.2246   8.2294   8.2642   8.2901
     8.2996   8.3058   8.3537   8.3755   8.4294   8.4430   8.4609   8.4702
     8.4810   8.5090   8.5119   8.5154   8.5361   8.5835   8.5910   8.6014
     8.6238   8.6323   8.6517   8.6535   8.6624   8.6758   8.6820   8.6843
     8.7078   8.7145   8.7665   8.7863

          k = 0.0000 0.0000 0.0012 (147355 PWs)   bands (ev):

   -21.6505 -21.2919 -21.2592 -21.1991 -20.8255 -20.7649 -20.5273 -20.2432
   -20.1817 -20.0549 -19.9521 -19.7691 -19.7025 -19.6434 -19.1265 -19.0354
   -18.9728 -18.7929 -18.6098 -18.4159 -18.3358 -18.1168 -18.0473 -18.0311
   -17.8989 -17.7490 -17.5324 -17.3928 -17.3265 -17.1383 -16.9230 -16.9179
   -16.6024 -16.5238 -16.4654 -16.3848 -16.2565 -15.9298 -15.6740 -15.3978
   -15.3473 -15.0064 -14.9064 -14.8949 -14.8670 -14.5998 -14.5928 -14.5377
   -14.4904 -14.4188 -13.4975 -13.4667 -13.3325 -13.3173 -13.2974 -13.2921
   -13.2702 -12.9443 -12.8226 -12.7591 -12.6606 -12.4733 -12.4050 -11.9833
   -11.9489 -11.8795 -11.8575 -11.8136 -11.5339 -11.3902 -11.1164 -11.0304
   -11.0243 -10.9536 -10.6959 -10.6222 -10.4011 -10.3913 -10.3558 -10.3548
   -10.1467 -10.0550  -9.9940  -9.9586  -9.9124  -9.7854  -9.7262  -9.6799
    -9.4762  -9.4095  -9.3293  -9.2991  -9.2628  -9.2082  -9.0954  -9.0058
    -8.9993  -8.9548  -8.9183  -8.8763  -8.8656  -8.7986  -8.7632  -8.7473
    -8.7055  -8.6598  -8.6431  -8.6307  -8.5498  -8.5333  -8.5043  -8.4424
    -8.4221  -8.2696  -8.1406  -8.0692  -8.0538  -7.9915  -7.9862  -7.8841
    -7.7925  -7.6848  -7.6144  -7.5566  -7.5256  -7.5235  -7.4600  -7.4531
    -7.4296  -7.3964  -7.1963  -7.1246  -6.9498  -6.8884  -6.8462  -6.7273
    -6.6573  -6.6263  -6.5489  -6.5261  -6.3734  -6.3283  -6.3092  -6.2906
    -6.2334  -6.0349  -5.9489  -5.7822  -5.7722  -5.6605  -5.6075  -5.5825
    -5.4628  -5.3837  -5.1933  -5.0416  -4.8817  -4.8379  -4.8298  -4.6234
    -4.4085  -4.3695  -4.2412  -4.1665  -3.8958  -3.7717  -2.9266  -2.8915
    -1.7234  -1.6646  -1.0060  -0.7936  -0.6536  -0.6208  -0.5470  -0.4886
    -0.3258  -0.2560   0.1214   0.2364   0.4079   0.5114   0.7194   0.7566
     0.7955   0.8066   0.9037   1.0309   1.0517   1.1725   1.2163   1.2635
     1.2676   1.3172   1.3648   1.4575   1.4776   1.4874   1.5199   1.5577
     1.9201   1.9500   1.9589   1.9896   1.9984   2.0659   2.0902   2.1894
     2.2605   2.2797   2.2860   2.4060   2.4483   2.5479   2.5699   2.5766
     2.5887   2.6136   2.6357   2.6468   2.6675   2.7304   2.7408   2.7599
     2.8249   2.8388   2.8675   2.9173   2.9720   2.9977   2.9994   3.0740
     3.1110   3.1485   3.1581   3.1663   3.1702   3.2074   3.2118   3.3953
     3.4347   3.4381   3.4702   3.4936   3.5165   3.5165   3.5620   3.5647
     3.6125   3.6175   3.6505   3.6655   3.7094   3.7853   3.7877   3.8342
     3.8905   3.9158   3.9214   3.9458   3.9680   3.9697   4.0050   4.0084
     4.0720   4.0726   4.0768   4.1323   4.1500   4.2125   4.2745   4.2950
     4.3150   4.3217   4.3573   4.3741   4.4042   4.4154   4.4575   4.4693
     4.4753   4.4891   4.5104   4.5714   4.6021   4.6221   4.6336   4.6807
     4.6957   4.6999   4.7006   4.7325   4.7539   4.7717   4.8073   4.8151
     4.8621   4.8692   4.9250   4.9310   4.9813   4.9966   5.0425   5.0767
     5.1169   5.1476   5.1697   5.1967   5.2323   5.2696   5.2966   5.2982
     5.3197   5.3695   5.4076   5.4183   5.4530   5.4533   5.4596   5.4790
     5.5045   5.5283   5.5384   5.5417   5.5512   5.5757   5.5839   5.6228
     5.6399   5.6551   5.6668   5.6866   5.7016   5.7216   5.7544   5.8213
     5.8255   5.8373   5.8928   5.9072   5.9150   5.9156   5.9456   5.9562
     5.9757   5.9864   6.0081   6.0368   6.0392   6.0509   6.0560   6.0670
     6.0870   6.1349   6.1796   6.1840   6.1950   6.2137   6.2239   6.2406
     6.2784   6.2890   6.2974   6.3240   6.3616   6.3733   6.4063   6.4128
     6.4440   6.4630   6.4660   6.4885   6.5070   6.5460   6.6009   6.6116
     6.6290   6.6472   6.6829   6.6858   6.6932   6.7226   6.7306   6.7620
     6.7736   6.7949   6.8304   6.8505   6.8703   6.8749   6.8951   6.9077
     6.9268   6.9539   6.9784   6.9881   7.0075   7.0188   7.0199   7.0419
     7.0784   7.0852   7.0978   7.1294   7.1347   7.1418   7.1442   7.1470
     7.1864   7.1959   7.2202   7.2257   7.2435   7.2695   7.2848   7.2922
     7.2969   7.3264   7.3690   7.3793   7.4062   7.4097   7.4188   7.4233
     7.4333   7.4726   7.4856   7.4897   7.4933   7.5250   7.5364   7.5606
     7.5744   7.5787   7.5826   7.6313   7.6447   7.6709   7.6734   7.6834
     7.7281   7.7311   7.7905   7.7993   7.8315   7.8734   7.8744   7.8859
     7.9041   7.9096   7.9239   7.9284   7.9599   7.9695   8.0037   8.0261
     8.0483   8.0640   8.0657   8.0684   8.0923   8.1315   8.1317   8.1614
     8.1753   8.1887   8.1953   8.2087   8.2260   8.2538   8.2553   8.2747
     8.3017   8.3049   8.3837   8.3855   8.4215   8.4384   8.4565   8.4734
     8.4793   8.4932   8.5204   8.5316   8.5379   8.5793   8.5872   8.5941
     8.6304   8.6323   8.6406   8.6635   8.6686   8.6731   8.6794   8.6974
     8.7096   8.7174   8.7648   8.7800

          k = 0.0000 0.0000 0.0023 (147377 PWs)   bands (ev):

   -21.6501 -21.3051 -21.2450 -21.1988 -20.8333 -20.7562 -20.5271 -20.2637
   -20.1684 -20.0497 -19.9484 -19.7927 -19.6789 -19.6431 -19.1267 -19.0580
   -18.9496 -18.7914 -18.6114 -18.4544 -18.2949 -18.1438 -18.0314 -18.0251
   -17.9124 -17.7295 -17.5373 -17.3926 -17.3337 -17.1252 -16.9234 -16.9207
   -16.5990 -16.5488 -16.4413 -16.3936 -16.2568 -15.9384 -15.6722 -15.3891
   -15.3574 -14.9984 -14.9082 -14.8973 -14.8562 -14.6040 -14.5972 -14.5240
   -14.5010 -14.4085 -13.5039 -13.4729 -13.3496 -13.3275 -13.2934 -13.2779
   -13.2544 -13.0048 -12.8083 -12.7615 -12.6121 -12.4702 -12.4005 -11.9859
   -11.9575 -11.8788 -11.8739 -11.7927 -11.5347 -11.3873 -11.1385 -11.0505
   -10.9960 -10.9366 -10.7098 -10.6119 -10.4228 -10.3986 -10.3569 -10.3348
   -10.1433 -10.0514  -9.9904  -9.9794  -9.8912  -9.8346  -9.7256  -9.6322
    -9.4742  -9.4069  -9.3337  -9.3155  -9.2453  -9.2078  -9.0990  -9.0136
    -9.0015  -8.9693  -8.9354  -8.8772  -8.8495  -8.7744  -8.7719  -8.7538
    -8.6932  -8.6620  -8.6459  -8.6346  -8.5489  -8.5262  -8.5029  -8.4422
    -8.4171  -8.2724  -8.1330  -8.0902  -8.0527  -7.9861  -7.9842  -7.8744
    -7.7866  -7.6852  -7.6308  -7.5540  -7.5537  -7.5124  -7.4549  -7.4418
    -7.4273  -7.3879  -7.2156  -7.1043  -6.9655  -6.8886  -6.8326  -6.7545
    -6.6583  -6.6294  -6.5244  -6.5178  -6.3741  -6.3289  -6.3114  -6.3095
    -6.2127  -6.0776  -5.9057  -5.7993  -5.7722  -5.6464  -5.6088  -5.5834
    -5.4981  -5.3447  -5.1955  -5.0415  -4.8898  -4.8413  -4.8298  -4.6131
    -4.4089  -4.3680  -4.2643  -4.1450  -3.8959  -3.7742  -2.9281  -2.8974
    -1.7176  -1.6636  -1.0029  -0.7933  -0.6501  -0.6351  -0.5310  -0.4924
    -0.3219  -0.2559   0.0936   0.2600   0.4074   0.5129   0.6844   0.7572
     0.8072   0.8289   0.9062   1.0106   1.0315   1.2011   1.2158   1.2487
     1.2836   1.3038   1.3329   1.4582   1.4756   1.5039   1.5485   1.5778
     1.9198   1.9309   1.9398   2.0099   2.0182   2.0667   2.0907   2.1813
     2.2363   2.2846   2.2892   2.4275   2.4396   2.5328   2.5602   2.5727
     2.5914   2.6176   2.6378   2.6613   2.6680   2.7257   2.7444   2.7476
     2.8168   2.8600   2.8806   2.9128   2.9684   2.9773   3.0025   3.0935
     3.1082   3.1493   3.1514   3.1516   3.1766   3.2269   3.2321   3.3704
     3.4003   3.4433   3.4694   3.4810   3.5192   3.5516   3.5589   3.5780
     3.5943   3.6415   3.6668   3.6674   3.7073   3.7683   3.7860   3.8137
     3.8748   3.9220   3.9221   3.9454   3.9511   3.9586   4.0255   4.0277
     4.0507   4.0882   4.0916   4.1498   4.1524   4.2153   4.2623   4.2819
     4.3053   4.3379   4.3409   4.3640   4.3964   4.4265   4.4434   4.4681
     4.4846   4.5105   4.5181   4.5560   4.5934   4.6086   4.6169   4.6706
     4.6853   4.6970   4.7112   4.7157   4.7712   4.7880   4.8226   4.8468
     4.8651   4.8786   4.9234   4.9376   4.9853   4.9974   5.0285   5.0784
     5.0829   5.1633   5.1649   5.2363   5.2435   5.2670   5.2928   5.3024
     5.3175   5.3526   5.3824   5.4262   5.4271   5.4434   5.4608   5.4715
     5.4845   5.5115   5.5325   5.5689   5.5716   5.5953   5.6002   5.6403
     5.6496   5.6515   5.6773   5.6830   5.6913   5.7090   5.7223   5.8277
     5.8310   5.8509   5.8689   5.8770   5.8868   5.9152   5.9498   5.9645
     5.9779   6.0089   6.0259   6.0380   6.0522   6.0563   6.0705   6.0780
     6.0867   6.1338   6.1785   6.1875   6.2057   6.2070   6.2252   6.2505
     6.2735   6.2918   6.2977   6.3026   6.3530   6.3638   6.4123   6.4167
     6.4581   6.4585   6.4791   6.4815   6.5145   6.5508   6.5756   6.6260
     6.6287   6.6514   6.6594   6.6788   6.6912   6.7114   6.7129   6.7629
     6.7817   6.7936   6.8643   6.8644   6.8665   6.8695   6.8836   6.9046
     6.9277   6.9637   6.9757   6.9760   6.9890   7.0229   7.0395   7.0571
     7.0608   7.0702   7.0862   7.1101   7.1124   7.1224   7.1487   7.1661
     7.1984   7.2041   7.2244   7.2264   7.2507   7.2816   7.2859   7.2882
     7.3199   7.3381   7.3722   7.3888   7.3891   7.4069   7.4159   7.4282
     7.4406   7.4594   7.4792   7.4875   7.4913   7.4968   7.5249   7.5321
     7.5740   7.5945   7.6113   7.6396   7.6711   7.6781   7.7000   7.7182
     7.7254   7.7379   7.7870   7.7971   7.8220   7.8633   7.8737   7.8755
     7.9048   7.9146   7.9247   7.9303   7.9564   7.9701   7.9884   8.0077
     8.0496   8.0656   8.0661   8.0725   8.0741   8.1196   8.1209   8.1368
     8.1781   8.1842   8.1990   8.2226   8.2240   8.2525   8.2599   8.2850
     8.3098   8.3218   8.3995   8.4053   8.4252   8.4315   8.4536   8.4776
     8.4779   8.4825   8.5187   8.5442   8.5535   8.5620   8.6017   8.6028
     8.6136   8.6237   8.6344   8.6549   8.6651   8.6920   8.6996   8.7160
     8.7168   8.7238   8.7590   8.7665

          k = 0.0000 0.0000 0.0035 (147387 PWs)   bands (ev):

   -21.6494 -21.3186 -21.2301 -21.1983 -20.8433 -20.7446 -20.5269 -20.2872
   -20.1576 -20.0401 -19.9423 -19.8179 -19.6547 -19.6414 -19.1270 -19.0822
   -18.9248 -18.7890 -18.6148 -18.4908 -18.2536 -18.1733 -18.0318 -18.0076
   -17.9250 -17.7031 -17.5456 -17.3922 -17.3430 -17.1061 -16.9253 -16.9241
   -16.5933 -16.5748 -16.4169 -16.4077 -16.2574 -15.9521 -15.6694 -15.3804
   -15.3677 -14.9853 -14.9111 -14.9011 -14.8393 -14.6165 -14.5933 -14.5139
   -14.5074 -14.3954 -13.5139 -13.4825 -13.3698 -13.3368 -13.2873 -13.2628
   -13.2363 -13.0650 -12.8571 -12.7003 -12.5644 -12.4651 -12.3928 -11.9903
   -11.9698 -11.9003 -11.8667 -11.7718 -11.5365 -11.3825 -11.1613 -11.0744
   -10.9627 -10.9183 -10.7279 -10.5991 -10.4445 -10.4099 -10.3606 -10.3144
   -10.1372 -10.0466 -10.0033  -9.9846  -9.8791  -9.8685  -9.7248  -9.5918
    -9.4661  -9.4030  -9.3405  -9.3319  -9.2271  -9.2072  -9.1087  -9.0270
    -9.0097  -8.9735  -8.9560  -8.8827  -8.8222  -8.7877  -8.7640  -8.7460
    -8.6781  -8.6652  -8.6490  -8.6390  -8.5476  -8.5162  -8.5005  -8.4419
    -8.4091  -8.2759  -8.1214  -8.1160  -8.0509  -7.9860  -7.9806  -7.8582
    -7.7771  -7.6859  -7.6500  -7.5847  -7.5535  -7.4936  -7.4564  -7.4547
    -7.3961  -7.3794  -7.2368  -7.0813  -6.9861  -6.8889  -6.8154  -6.7830
    -6.6919  -6.6000  -6.5216  -6.4860  -6.3759  -6.3332  -6.3298  -6.3101
    -6.1907  -6.1200  -5.8627  -5.8218  -5.7721  -5.6313  -5.6108  -5.5849
    -5.5292  -5.3048  -5.1992  -5.0413  -4.9028  -4.8453  -4.8299  -4.5985
    -4.4104  -4.3644  -4.2903  -4.1216  -3.8961  -3.7783  -2.9306  -2.9069
    -1.7081  -1.6621  -0.9977  -0.7928  -0.6518  -0.6442  -0.5114  -0.4982
    -0.3159  -0.2555   0.0605   0.2854   0.4066   0.5163   0.6479   0.7582
     0.8082   0.8621   0.9103   0.9674   1.0325   1.1843   1.2321   1.2429
     1.2631   1.3016   1.3510   1.4593   1.4683   1.4941   1.5985   1.6093
     1.9121   1.9195   1.9210   2.0307   2.0378   2.0685   2.0915   2.1693
     2.2068   2.2915   2.2921   2.4267   2.4550   2.5126   2.5395   2.5771
     2.5937   2.6250   2.6399   2.6688   2.6759   2.7116   2.7311   2.7644
     2.8052   2.8862   2.8981   2.8993   2.9465   2.9825   3.0119   3.0754
     3.1226   3.1330   3.1507   3.1576   3.1964   3.2475   3.2529   3.3428
     3.3646   3.4386   3.4656   3.4701   3.5241   3.5636   3.5760   3.5854
     3.5944   3.6708   3.6717   3.6797   3.6979   3.7415   3.7870   3.8110
     3.8533   3.8961   3.9175   3.9233   3.9328   4.0006   4.0241   4.0466
     4.0472   4.1106   4.1129   4.1494   4.1657   4.2142   4.2614   4.2614
     4.2928   4.3178   4.3480   4.3623   4.3851   4.4248   4.4409   4.4565
     4.5011   4.5244   4.5296   4.5420   4.5638   4.5843   4.6365   4.6519
     4.6620   4.7012   4.7078   4.7284   4.7815   4.8195   4.8273   4.8693
     4.8703   4.9114   4.9124   4.9503   4.9916   4.9986   5.0165   5.0401
     5.0952   5.1537   5.1860   5.2593   5.2617   5.2765   5.2795   5.3107
     5.3142   5.3379   5.3448   5.3922   5.4365   5.4472   5.4576   5.4640
     5.4699   5.4964   5.5215   5.5757   5.5923   5.6201   5.6254   5.6413
     5.6457   5.6583   5.6752   5.6818   5.6835   5.7146   5.7147   5.7910
     5.8145   5.8308   5.8552   5.8823   5.8991   5.9198   5.9501   5.9784
     5.9792   6.0088   6.0216   6.0463   6.0651   6.0659   6.0849   6.1005
     6.1015   6.1328   6.1714   6.1938   6.2113   6.2186   6.2287   6.2545
     6.2648   6.2863   6.2981   6.2991   6.3277   6.3672   6.4122   6.4321
     6.4494   6.4725   6.4769   6.4896   6.5247   6.5466   6.5558   6.6302
     6.6308   6.6328   6.6439   6.6665   6.6861   6.7026   6.7197   6.7651
     6.7851   6.7961   6.8407   6.8603   6.8613   6.8947   6.8966   6.9203
     6.9266   6.9641   6.9656   6.9693   6.9765   7.0220   7.0249   7.0311
     7.0698   7.0728   7.0789   7.0899   7.1049   7.1335   7.1521   7.1903
     7.1977   7.2164   7.2197   7.2255   7.2315   7.2774   7.2802   7.3264
     7.3407   7.3651   7.3691   7.3757   7.4015   7.4045   7.4080   7.4173
     7.4264   7.4499   7.4652   7.4885   7.4941   7.4978   7.5020   7.5456
     7.5728   7.6083   7.6438   7.6486   7.6784   7.6842   7.7151   7.7471
     7.7558   7.7583   7.7694   7.8072   7.8189   7.8499   7.8631   7.8635
     7.8940   7.9072   7.9245   7.9323   7.9332   7.9833   7.9992   8.0029
     8.0446   8.0508   8.0617   8.0686   8.0789   8.0974   8.0977   8.1124
     8.1581   8.1802   8.1967   8.2115   8.2279   8.2745   8.2939   8.3124
     8.3245   8.3445   8.3701   8.4127   8.4175   8.4515   8.4628   8.4785
     8.4811   8.4861   8.5209   8.5558   8.5567   8.5722   8.5940   8.6104
     8.6149   8.6195   8.6331   8.6429   8.6525   8.7060   8.7132   8.7169
     8.7304   8.7355   8.7482   8.7533

          k = 0.0000 0.0000 0.0047 (147403 PWs)   bands (ev):

   -21.6484 -21.3320 -21.2147 -21.1975 -20.8541 -20.7315 -20.5266 -20.3118
   -20.1514 -20.0257 -19.9341 -19.8435 -19.6452 -19.6243 -19.1274 -19.1066
   -18.8995 -18.7857 -18.6216 -18.5236 -18.2119 -18.2038 -18.0324 -18.0047
   -17.9250 -17.6730 -17.5575 -17.3917 -17.3523 -17.0831 -16.9311 -16.9251
   -16.6010 -16.5857 -16.4268 -16.3929 -16.2583 -15.9703 -15.6660 -15.3978
   -15.3515 -14.9676 -14.9149 -14.9062 -14.8175 -14.6288 -14.5893 -14.5266
   -14.4892 -14.3814 -13.5270 -13.4949 -13.3918 -13.3455 -13.2799 -13.2474
   -13.2173 -13.1248 -12.9050 -12.6391 -12.5183 -12.4582 -12.3816 -11.9962
   -11.9845 -11.9218 -11.8588 -11.7513 -11.5393 -11.3762 -11.1819 -11.0997
   -10.9272 -10.9010 -10.7484 -10.5853 -10.4662 -10.4245 -10.3661 -10.2953
   -10.1283 -10.0454 -10.0305  -9.9769  -9.9131  -9.8453  -9.7236  -9.5665
    -9.4449  -9.3977  -9.3492  -9.3480  -9.2086  -9.2063  -9.1278  -9.0376
    -9.0309  -8.9707  -8.9674  -8.8855  -8.8016  -8.7984  -8.7774  -8.7262
    -8.6682  -8.6616  -8.6494  -8.6422  -8.5458  -8.5048  -8.4972  -8.4415
    -8.3984  -8.2791  -8.1439  -8.1068  -8.0484  -7.9857  -7.9817  -7.8373
    -7.7643  -7.6869  -7.6703  -7.6154  -7.5552  -7.4727  -7.4723  -7.4545
    -7.3717  -7.3648  -7.2579  -7.0575  -7.0094  -6.8893  -6.8117  -6.7969
    -6.7259  -6.5699  -6.5176  -6.4546  -6.3808  -6.3525  -6.3307  -6.3112
    -6.1684  -6.1617  -5.8471  -5.8201  -5.7717  -5.6261  -5.6137  -5.5870
    -5.5476  -5.2646  -5.2049  -5.0410  -4.9190  -4.8491  -4.8300  -4.5819
    -4.4136  -4.3575  -4.3175  -4.0984  -3.8963  -3.7836  -2.9340  -2.9200
    -1.6949  -1.6599  -0.9907  -0.7921  -0.6689  -0.6360  -0.5058  -0.4901
    -0.3082  -0.2551   0.0255   0.3084   0.4053   0.5225   0.6106   0.7595
     0.8095   0.8916   0.9159   0.9279   1.0339   1.1673   1.1823   1.2153
     1.3118   1.3203   1.3699   1.4545   1.4609   1.4917   1.6196   1.6693
     1.8937   1.9026   1.9195   2.0516   2.0552   2.0731   2.0926   2.1545
     2.1747   2.2953   2.2993   2.4107   2.4852   2.4880   2.5198   2.5831
     2.5931   2.6319   2.6392   2.6698   2.6913   2.7053   2.7129   2.7868
     2.7914   2.8747   2.9145   2.9180   2.9373   2.9865   3.0255   3.0576
     3.1107   3.1158   3.1526   3.1905   3.2163   3.2688   3.2742   3.3142
     3.3293   3.4275   3.4494   3.4714   3.5286   3.5578   3.5762   3.6119
     3.6146   3.6655   3.6806   3.6868   3.7030   3.7382   3.7885   3.8136
     3.8292   3.8689   3.8883   3.9148   3.9246   3.9989   4.0407   4.0651
     4.0667   4.1331   4.1356   4.1493   4.1726   4.2033   4.2368   4.2778
     4.2799   4.2992   4.3269   4.3706   4.3845   4.4047   4.4388   4.4573
     4.4836   4.5201   4.5360   4.5429   4.5637   4.5777   4.6325   4.6337
     4.6581   4.7047   4.7107   4.7419   4.7951   4.8203   4.8547   4.8822
     4.8829   4.9025   4.9518   4.9528   4.9979   5.0002   5.0047   5.0195
     5.1148   5.1420   5.2076   5.2415   5.2621   5.2749   5.3093   5.3169
     5.3205   5.3239   5.3288   5.3570   5.4149   5.4434   5.4561   5.4675
     5.4690   5.4995   5.5022   5.5766   5.6077   5.6258   5.6302   5.6395
     5.6429   5.6483   5.6590   5.6819   5.7119   5.7189   5.7433   5.7539
     5.7910   5.7933   5.8408   5.9110   5.9112   5.9351   5.9498   5.9750
     5.9827   5.9998   6.0307   6.0398   6.0704   6.0816   6.1063   6.1142
     6.1204   6.1396   6.1650   6.1897   6.2232   6.2293   6.2387   6.2485
     6.2569   6.2868   6.2984   6.3060   6.3135   6.3712   6.4135   6.4363
     6.4510   6.4757   6.4818   6.4967   6.5135   6.5386   6.5552   6.6004
     6.6012   6.6440   6.6513   6.6613   6.6774   6.6985   6.7380   6.7665
     6.7847   6.8033   6.8078   6.8476   6.8554   6.9067   6.9100   6.9203
     6.9399   6.9415   6.9508   6.9657   6.9796   7.0079   7.0169   7.0205
     7.0511   7.0580   7.0838   7.1062   7.1205   7.1574   7.1600   7.1753
     7.1854   7.2112   7.2212   7.2407   7.2453   7.2737   7.2847   7.3029
     7.3555   7.3655   7.3727   7.3799   7.3920   7.4005   7.4075   7.4155
     7.4236   7.4634   7.4680   7.4856   7.4934   7.4974   7.5099   7.5675
     7.5706   7.6239   7.6483   7.6867   7.6869   7.6940   7.7009   7.7531
     7.7566   7.7958   7.8118   7.8159   7.8164   7.8351   7.8443   7.8470
     7.8715   7.8798   7.9320   7.9348   7.9365   7.9971   8.0012   8.0187
     8.0210   8.0412   8.0563   8.0643   8.0694   8.0705   8.0717   8.1177
     8.1333   8.1642   8.1917   8.2063   8.2314   8.3062   8.3250   8.3378
     8.3445   8.3475   8.3690   8.4077   8.4145   8.4353   8.4515   8.4777
     8.5087   8.5268   8.5329   8.5530   8.5582   8.5801   8.5980   8.5998
     8.6044   8.6140   8.6270   8.6516   8.6584   8.6651   8.7041   8.7169
     8.7372   8.7463   8.7506   8.7606

          k = 0.0000 0.0000 0.0059 (147375 PWs)   bands (ev):

   -21.6472 -21.3451 -21.1989 -21.1966 -20.8653 -20.7176 -20.5262 -20.3370
   -20.1495 -20.0070 -19.9241 -19.8691 -19.6443 -19.5984 -19.1309 -19.1278
   -18.8742 -18.7814 -18.6347 -18.5496 -18.2350 -18.1699 -18.0331 -18.0182
   -17.9094 -17.6407 -17.5728 -17.3908 -17.3600 -17.0581 -16.9376 -16.9265
   -16.6272 -16.5764 -16.4501 -16.3698 -16.2595 -15.9921 -15.6620 -15.4230
   -15.3268 -14.9460 -14.9196 -14.9122 -14.7918 -14.6405 -14.5876 -14.5359
   -14.4702 -14.3672 -13.5424 -13.5093 -13.4151 -13.3539 -13.2717 -13.2329
   -13.1987 -13.1832 -12.9513 -12.5779 -12.4747 -12.4494 -12.3660 -12.0036
   -12.0010 -11.9431 -11.8507 -11.7311 -11.5437 -11.3686 -11.1991 -11.1255
   -10.8903 -10.8861 -10.7703 -10.5706 -10.4876 -10.4416 -10.3735 -10.2779
   -10.1160 -10.0770 -10.0360  -9.9677  -9.9328  -9.8211  -9.7221  -9.5580
    -9.4120  -9.3885  -9.3637  -9.3593  -9.2052  -9.1898  -9.1554  -9.0629
    -9.0426  -8.9694  -8.9646  -8.8874  -8.8156  -8.7952  -8.7792  -8.7176
    -8.6701  -8.6443  -8.6427  -8.6420  -8.5437  -8.4944  -8.4913  -8.4411
    -8.3853  -8.2810  -8.1728  -8.0900  -8.0451  -7.9860  -7.9853  -7.8142
    -7.7480  -7.6907  -7.6883  -7.6458  -7.5579  -7.4906  -7.4544  -7.4497
    -7.3654  -7.3335  -7.2778  -7.0344  -7.0336  -6.8895  -6.8402  -6.7781
    -6.7601  -6.5396  -6.5126  -6.4246  -6.3940  -6.3640  -6.3309  -6.3135
    -6.2021  -6.1463  -5.8742  -5.7826  -5.7661  -5.6420  -5.6175  -5.5897
    -5.5431  -5.2242  -5.2127  -5.0405  -4.9367  -4.8529  -4.8302  -4.5656
    -4.4185  -4.3467  -4.3453  -4.0762  -3.8966  -3.7901  -2.9383  -2.9364
    -1.6785  -1.6572  -0.9820  -0.7912  -0.6855  -0.6255  -0.5146  -0.4680
    -0.2995  -0.2544  -0.0098   0.3265   0.4036   0.5329   0.5726   0.7613
     0.8113   0.8750   0.9228   0.9349   1.0357   1.1221   1.1503   1.1985
     1.3392   1.3612   1.3892   1.4384   1.4632   1.4928   1.6411   1.7277
     1.8757   1.8845   1.9205   2.0644   2.0727   2.0864   2.0944   2.1377
     2.1413   2.2993   2.3076   2.3926   2.4605   2.5018   2.5165   2.5872
     2.5903   2.6356   2.6374   2.6710   2.6937   2.7080   2.7093   2.7768
     2.8035   2.8518   2.9341   2.9392   2.9435   2.9898   3.0402   3.0407
     3.0967   3.1011   3.1552   3.2238   3.2348   3.2849   3.2933   3.2957
     3.2961   3.4142   3.4332   3.4732   3.5321   3.5399   3.5940   3.6226
     3.6294   3.6345   3.6870   3.6973   3.7367   3.7503   3.7905   3.8054
     3.8182   3.8414   3.8584   3.8974   3.9265   3.9747   4.0761   4.0800
     4.0855   4.1465   4.1501   4.1640   4.1772   4.1880   4.2130   4.2682
     4.2819   4.3017   4.3031   4.3504   4.3824   4.4099   4.4188   4.4443
     4.4667   4.5152   4.5403   4.5414   4.5615   4.6019   4.6153   4.6172
     4.6766   4.7052   4.7221   4.7522   4.8089   4.8122   4.8749   4.8916
     4.8971   4.9113   4.9401   4.9640   4.9938   5.0034   5.0105   5.0394
     5.1289   5.1412   5.1984   5.2264   5.2541   5.2811   5.3012   5.3189
     5.3198   5.3333   5.3338   5.3576   5.3843   5.4228   5.4613   5.4668
     5.4784   5.4881   5.5077   5.5739   5.5849   5.6162   5.6197   5.6404
     5.6452   5.6531   5.6678   5.6853   5.6854   5.7275   5.7565   5.7647
     5.7686   5.7815   5.8429   5.9168   5.9312   5.9416   5.9545   5.9586
     5.9811   5.9974   6.0376   6.0588   6.0704   6.0814   6.1071   6.1328
     6.1469   6.1563   6.1607   6.1845   6.2230   6.2242   6.2361   6.2532
     6.2650   6.2826   6.2984   6.3184   6.3369   6.3758   6.4159   6.4184
     6.4709   6.4771   6.4778   6.4835   6.5036   6.5477   6.5567   6.5726
     6.5728   6.6349   6.6534   6.6640   6.6787   6.7050   6.7589   6.7646
     6.7746   6.7852   6.8085   6.8319   6.8501   6.8881   6.8932   6.9092
     6.9107   6.9584   6.9655   6.9677   6.9720   7.0174   7.0199   7.0205
     7.0312   7.0328   7.1027   7.1141   7.1516   7.1571   7.1615   7.1648
     7.1893   7.2034   7.2194   7.2481   7.2601   7.2685   7.2907   7.2938
     7.3250   7.3479   7.3621   7.3687   7.3789   7.4133   7.4227   7.4235
     7.4595   7.4761   7.4837   7.4922   7.4941   7.5006   7.5243   7.5688
     7.5900   7.6440   7.6543   7.6699   7.6958   7.7130   7.7254   7.7535
     7.7570   7.7971   7.7995   7.8198   7.8237   7.8313   7.8347   7.8615
     7.8675   7.8706   7.9312   7.9384   7.9438   8.0010   8.0034   8.0069
     8.0109   8.0189   8.0420   8.0568   8.0592   8.0705   8.0732   8.1079
     8.1309   8.1552   8.1806   8.2083   8.2302   8.2970   8.3323   8.3587
     8.3647   8.3700   8.3875   8.4054   8.4222   8.4232   8.4525   8.4787
     8.5288   8.5289   8.5444   8.5609   8.5675   8.5736   8.5784   8.5921
     8.5923   8.5959   8.6392   8.6499   8.6545   8.6892   8.6913   8.7287
     8.7380   8.7409   8.7722   8.7803

          k = 0.0000 0.0000 0.0070 (147319 PWs)   bands (ev):

   -21.6457 -21.3579 -21.1955 -21.1828 -20.8764 -20.7030 -20.5258 -20.3625
   -20.1507 -19.9856 -19.9122 -19.8947 -19.6439 -19.5718 -19.1551 -19.1281
   -18.8492 -18.7764 -18.6564 -18.5662 -18.2667 -18.1279 -18.0392 -18.0337
   -17.8865 -17.6071 -17.5913 -17.3897 -17.3657 -17.0332 -16.9433 -16.9284
   -16.6531 -16.5659 -16.4770 -16.3480 -16.2611 -16.0165 -15.6578 -15.4515
   -15.2975 -14.9251 -14.9236 -14.9163 -14.7631 -14.6512 -14.5917 -14.5380
   -14.4505 -14.3531 -13.5598 -13.5253 -13.4397 -13.3623 -13.2653 -13.2406
   -13.2207 -13.1779 -12.9943 -12.5169 -12.4389 -12.4355 -12.3444 -12.0188
   -12.0125 -11.9639 -11.8427 -11.7118 -11.5496 -11.3601 -11.2125 -11.1515
   -10.8742 -10.8526 -10.7930 -10.5550 -10.5084 -10.4604 -10.3830 -10.2626
   -10.1240 -10.1002 -10.0367  -9.9573  -9.9389  -9.7963  -9.7202  -9.5596
    -9.3936  -9.3791  -9.3701  -9.3558  -9.2038  -9.1879  -9.1705  -9.0993
    -9.0444  -8.9674  -8.9568  -8.8890  -8.8294  -8.8135  -8.7696  -8.7207
    -8.6722  -8.6353  -8.6291  -8.6264  -8.5407  -8.4887  -8.4798  -8.4405
    -8.3700  -8.2810  -8.2022  -8.0718  -8.0412  -7.9923  -7.9847  -7.7909
    -7.7280  -7.7110  -7.6904  -7.6761  -7.5614  -7.5098  -7.4542  -7.4266
    -7.3610  -7.3023  -7.2954  -7.0604  -7.0099  -6.8896  -6.8686  -6.7942
    -6.7595  -6.5093  -6.5066  -6.4147  -6.3978  -6.3684  -6.3290  -6.3188
    -6.2392  -6.1244  -5.9024  -5.7753  -5.7305  -5.6704  -5.6220  -5.5930
    -5.5244  -5.2230  -5.1838  -5.0398  -4.9541  -4.8568  -4.8304  -4.5514
    -4.4248  -4.3734  -4.3316  -4.0556  -3.8970  -3.7971  -2.9559  -2.9436
    -1.6590  -1.6539  -0.9718  -0.7902  -0.7010  -0.6131  -0.5243  -0.4454
    -0.2906  -0.2535  -0.0446   0.3384   0.4014   0.5338   0.5482   0.7635
     0.8134   0.8347   0.9307   0.9663   1.0379   1.0626   1.1336   1.1818
     1.3579   1.4086   1.4109   1.4221   1.4662   1.4956   1.6631   1.7825
     1.8582   1.8669   1.9243   2.0681   2.0905   2.0999   2.1059   2.1072
     2.1193   2.3040   2.3162   2.3731   2.4315   2.4849   2.5480   2.5752
     2.5984   2.6329   2.6420   2.6721   2.6744   2.7209   2.7254   2.7622
     2.7922   2.8562   2.9325   2.9610   2.9707   2.9929   3.0267   3.0496
     3.0839   3.0941   3.1584   3.2356   3.2399   3.2771   3.2803   3.3139
     3.3171   3.4018   3.4176   3.4754   3.5223   3.5354   3.5766   3.6143
     3.6448   3.6458   3.6843   3.7164   3.7668   3.7684   3.7884   3.7931
     3.8162   3.8244   3.8292   3.8804   3.9288   3.9518   4.0887   4.0989
     4.1028   4.1463   4.1626   4.1711   4.1843   4.1885   4.1993   4.2605
     4.2657   4.2727   4.3209   4.3304   4.3637   4.3952   4.4144   4.4345
     4.4582   4.5131   4.5215   4.5646   4.5713   4.5782   4.6032   4.6542
     4.6838   4.7152   4.7317   4.7609   4.7964   4.8314   4.8617   4.9110
     4.9255   4.9265   4.9269   4.9294   5.0062   5.0223   5.0330   5.0661
     5.1150   5.1507   5.1721   5.2327   5.2532   5.2782   5.2847   5.2951
     5.3224   5.3436   5.3519   5.3528   5.3962   5.4044   5.4457   5.4688
     5.4690   5.5087   5.5139   5.5519   5.5636   5.5975   5.6109   5.6353
     5.6483   5.6548   5.6616   5.6680   5.6906   5.7212   5.7356   5.7579
     5.7951   5.8210   5.8538   5.9188   5.9352   5.9368   5.9472   5.9594
     5.9643   6.0112   6.0469   6.0692   6.0797   6.0885   6.0997   6.1416
     6.1593   6.1698   6.1801   6.1875   6.2192   6.2212   6.2267   6.2304
     6.2771   6.2970   6.2998   6.3529   6.3688   6.3808   6.3964   6.4194
     6.4351   6.4801   6.4829   6.4933   6.5084   6.5375   6.5479   6.5479
     6.5784   6.6200   6.6494   6.6512   6.6926   6.7250   6.7420   6.7599
     6.7787   6.7896   6.7916   6.8206   6.8447   6.8458   6.8596   6.9040
     6.9068   6.9456   6.9691   6.9816   6.9915   7.0013   7.0090   7.0240
     7.0358   7.0384   7.1127   7.1281   7.1403   7.1557   7.1718   7.1731
     7.1983   7.1988   7.2108   7.2297   7.2532   7.2808   7.2919   7.3061
     7.3104   7.3268   7.3587   7.3609   7.3755   7.4255   7.4290   7.4436
     7.4744   7.4856   7.4882   7.4891   7.5039   7.5378   7.5417   7.5795
     7.6101   7.6443   7.6627   7.6645   7.6922   7.7205   7.7562   7.7589
     7.7636   7.7691   7.7701   7.8047   7.8309   7.8322   7.8345   7.8653
     7.8666   7.9209   7.9271   7.9376   7.9510   7.9627   7.9774   8.0014
     8.0092   8.0217   8.0449   8.0594   8.0701   8.0766   8.0798   8.0851
     8.1340   8.1503   8.1813   8.2134   8.2239   8.2629   8.3353   8.3699
     8.3739   8.3815   8.3920   8.4038   8.4478   8.4481   8.4705   8.4805
     8.5030   8.5136   8.5288   8.5323   8.5478   8.5757   8.5880   8.6017
     8.6076   8.6113   8.6437   8.6506   8.6788   8.6814   8.7040   8.7426
     8.7453   8.7598   8.7654   8.7912

          k = 0.0000 0.0000 0.0082 (147293 PWs)   bands (ev):

   -21.6439 -21.3704 -21.1942 -21.1664 -20.8875 -20.6879 -20.5253 -20.3880
   -20.1540 -19.9628 -19.9200 -19.8985 -19.6437 -19.5452 -19.1790 -19.1283
   -18.8251 -18.7706 -18.6847 -18.5749 -18.2988 -18.0864 -18.0626 -18.0339
   -17.8611 -17.6124 -17.5729 -17.3879 -17.3692 -17.0122 -16.9450 -16.9309
   -16.6786 -16.5550 -16.5061 -16.3279 -16.2630 -16.0427 -15.6535 -15.4824
   -15.2645 -14.9314 -14.9276 -14.8916 -14.7323 -14.6608 -14.6017 -14.5327
   -14.4303 -14.3395 -13.5788 -13.5423 -13.4655 -13.3710 -13.3038 -13.2508
   -13.2141 -13.1582 -13.0309 -12.4576 -12.4256 -12.4023 -12.3154 -12.0377
   -12.0229 -11.9839 -11.8348 -11.6937 -11.5568 -11.3512 -11.2218 -11.1771
   -10.8660 -10.8161 -10.8145 -10.5395 -10.5271 -10.4801 -10.3945 -10.2496
   -10.1754 -10.0811 -10.0395  -9.9461  -9.9355  -9.7711  -9.7181  -9.5661
    -9.3942  -9.3866  -9.3812  -9.3090  -9.2227  -9.2022  -9.1509  -9.1367
    -9.0451  -8.9636  -8.9486  -8.8906  -8.8430  -8.8340  -8.7663  -8.7310
    -8.6757  -8.6217  -8.6142  -8.6080  -8.5363  -8.4828  -8.4678  -8.4399
    -8.3529  -8.2784  -8.2319  -8.0526  -8.0367  -7.9997  -7.9839  -7.7687
    -7.7310  -7.7061  -7.7042  -7.6931  -7.5657  -7.5303  -7.4540  -7.4031
    -7.3601  -7.3093  -7.2714  -7.0873  -6.9870  -6.8967  -6.8894  -6.8279
    -6.7414  -6.4996  -6.4790  -6.4380  -6.3782  -6.3704  -6.3321  -6.3207
    -6.2679  -6.1027  -5.9315  -5.7750  -5.7025  -5.6881  -5.6274  -5.5969
    -5.5009  -5.2360  -5.1437  -5.0384  -4.9701  -4.8609  -4.8306  -4.5407
    -4.4317  -4.4017  -4.3121  -4.0374  -3.8974  -3.8041  -2.9781  -2.9496
    -1.6501  -1.6368  -0.9607  -0.7889  -0.7149  -0.5989  -0.5342  -0.4225
    -0.2824  -0.2523  -0.0778   0.3441   0.3985   0.4943   0.5686   0.7660
     0.7945   0.8160   0.9386   0.9989   1.0048   1.0405   1.1171   1.1655
     1.3749   1.4075   1.4276   1.4608   1.4704   1.4996   1.6855   1.8284
     1.8411   1.8496   1.9357   2.0708   2.0733   2.0954   2.0997   2.1189
     2.1267   2.3097   2.3251   2.3525   2.4020   2.4686   2.5585   2.5793
     2.6069   2.6324   2.6458   2.6554   2.6728   2.7368   2.7402   2.7488
     2.7664   2.8777   2.9312   2.9833   2.9851   2.9962   3.0261   3.0452
     3.0731   3.1026   3.1622   3.2124   3.2146   3.2895   3.3057   3.3355
     3.3375   3.3943   3.4036   3.4780   3.5050   3.5297   3.5389   3.6357
     3.6498   3.6596   3.6802   3.7171   3.7729   3.7843   3.7945   3.7947
     3.8026   3.8203   3.8324   3.8640   3.9305   3.9316   4.0892   4.0964
     4.1156   4.1476   4.1545   4.1684   4.1957   4.2070   4.2081   4.2393
     4.2512   4.2616   4.2844   4.3360   4.3681   4.3695   4.3938   4.4370
     4.4605   4.5055   4.5216   4.5417   4.5895   4.5940   4.5966   4.6811
     4.6940   4.7299   4.7355   4.7691   4.7858   4.8516   4.8535   4.8903
     4.9063   4.9298   4.9421   4.9673   5.0096   5.0351   5.0705   5.0816
     5.1012   5.1152   5.2004   5.2233   5.2497   5.2557   5.2792   5.2955
     5.3224   5.3304   5.3539   5.3758   5.3806   5.4136   5.4400   5.4665
     5.4767   5.5064   5.5190   5.5295   5.5541   5.5814   5.5948   5.6020
     5.6362   5.6494   5.6781   5.6836   5.6905   5.6944   5.7278   5.7792
     5.8124   5.8571   5.8709   5.9128   5.9134   5.9234   5.9491   5.9568
     5.9733   6.0058   6.0626   6.0673   6.0840   6.0998   6.1224   6.1489
     6.1616   6.1789   6.1791   6.1940   6.2191   6.2206   6.2278   6.2295
     6.2871   6.2925   6.3142   6.3733   6.3849   6.3923   6.3963   6.4047
     6.4259   6.4741   6.4909   6.5070   6.5070   6.5259   6.5300   6.5333
     6.6025   6.6066   6.6380   6.6390   6.7050   6.7104   6.7428   6.7549
     6.7578   6.7895   6.7942   6.7994   6.8118   6.8394   6.8428   6.8952
     6.9149   6.9216   6.9627   6.9901   6.9935   6.9943   7.0160   7.0276
     7.0336   7.0615   7.1002   7.1408   7.1515   7.1581   7.1632   7.1721
     7.1748   7.1812   7.2154   7.2353   7.2564   7.2739   7.2854   7.3083
     7.3161   7.3520   7.3579   7.3628   7.3755   7.4345   7.4433   7.4590
     7.4707   7.4835   7.4881   7.5051   7.5064   7.5428   7.5878   7.6132
     7.6207   7.6291   7.6641   7.6740   7.6869   7.7109   7.7365   7.7431
     7.7637   7.7893   7.7924   7.8019   7.8178   7.8311   7.8324   7.8679
     7.8731   7.9126   7.9194   7.9350   7.9431   7.9564   7.9810   8.0017
     8.0182   8.0309   8.0436   8.0681   8.0749   8.0823   8.0894   8.0926
     8.1236   8.1488   8.1925   8.2151   8.2250   8.2290   8.3177   8.3650
     8.3759   8.3799   8.4067   8.4167   8.4449   8.4515   8.4820   8.4846
     8.4924   8.5058   8.5190   8.5218   8.5306   8.5711   8.5857   8.6148
     8.6337   8.6358   8.6398   8.6615   8.6879   8.6931   8.7126   8.7409
     8.7509   8.7585   8.7711   8.7930

          k = 0.0000 0.0000 0.0094 (147291 PWs)   bands (ev):

   -21.6418 -21.3827 -21.1928 -21.1497 -20.8982 -20.6724 -20.5248 -20.4134
   -20.1586 -19.9452 -19.9397 -19.8826 -19.6434 -19.5187 -19.2027 -19.1281
   -18.8041 -18.7640 -18.7141 -18.5790 -18.3311 -18.0867 -18.0512 -18.0277
   -17.8348 -17.6355 -17.5387 -17.3853 -17.3707 -17.0021 -16.9359 -16.9340
   -16.7035 -16.5524 -16.5287 -16.3105 -16.2653 -16.0692 -15.6490 -15.5151
   -15.2283 -14.9383 -14.9355 -14.8616 -14.7003 -14.6689 -14.6144 -14.5229
   -14.4099 -14.3263 -13.5993 -13.5600 -13.4927 -13.3803 -13.3602 -13.2421
   -13.2181 -13.1383 -13.0560 -12.4198 -12.3899 -12.3749 -12.2796 -12.0575
   -12.0351 -12.0023 -11.8268 -11.6781 -11.5640 -11.3429 -11.2270 -11.2015
   -10.8620 -10.8390 -10.7766 -10.5495 -10.5178 -10.4999 -10.4087 -10.2386
   -10.2283 -10.0593 -10.0433  -9.9345  -9.9266  -9.7456  -9.7155  -9.5748
    -9.4089  -9.3922  -9.3808  -9.2646  -9.2583  -9.2003  -9.1702  -9.1310
    -9.0459  -8.9590  -8.9410  -8.8921  -8.8562  -8.8557  -8.7664  -8.7451
    -8.6806  -8.6042  -8.6020  -8.5892  -8.5298  -8.4762  -8.4560  -8.4392
    -8.3340  -8.2728  -8.2615  -8.0330  -8.0316  -8.0077  -7.9828  -7.7506
    -7.7480  -7.7359  -7.6968  -7.6770  -7.5707  -7.5517  -7.4538  -7.3795
    -7.3645  -7.3172  -7.2409  -7.1147  -6.9657  -6.9246  -6.8887  -6.8601
    -6.7239  -6.4918  -6.4621  -6.4491  -6.3719  -6.3697  -6.3588  -6.3024
    -6.2826  -6.0814  -5.9614  -5.7752  -5.7352  -5.6453  -5.6336  -5.6013
    -5.4755  -5.2521  -5.1051  -5.0356  -4.9840  -4.8654  -4.8310  -4.5347
    -4.4381  -4.4301  -4.2886  -4.0227  -3.8979  -3.8100  -3.0028  -2.9564
    -1.6459  -1.6121  -0.9492  -0.7875  -0.7266  -0.5841  -0.5433  -0.3996
    -0.2764  -0.2507  -0.1079   0.3442   0.3947   0.4543   0.5930   0.7556
     0.7690   0.8189   0.9308   0.9642   1.0315   1.0434   1.1010   1.1494
     1.3800   1.4047   1.4448   1.4771   1.5048   1.5108   1.7082   1.8244
     1.8327   1.8566   1.9612   2.0419   2.0734   2.0790   2.0975   2.1410
     2.1479   2.3163   2.3312   2.3342   2.3724   2.4530   2.5397   2.6096
     2.6134   2.6336   2.6388   2.6488   2.6722   2.7250   2.7382   2.7551
     2.7687   2.9007   2.9292   2.9769   2.9997   3.0057   3.0326   3.0484
     3.0653   3.1205   3.1669   3.1825   3.1834   3.3099   3.3270   3.3537
     3.3547   3.3947   3.4012   3.4810   3.4811   3.4892   3.5427   3.6519
     3.6572   3.6671   3.6753   3.6986   3.7477   3.7820   3.7978   3.8008
     3.8226   3.8428   3.8490   3.8524   3.9117   3.9348   4.0749   4.0821
     4.1198   4.1380   4.1534   4.1615   4.2048   4.2119   4.2155   4.2228
     4.2488   4.2495   4.2747   4.3180   4.3446   4.3761   4.3966   4.4137
     4.4857   4.4954   4.5157   4.5258   4.5937   4.6157   4.6159   4.6744
     4.7307   4.7344   4.7360   4.7775   4.7840   4.8537   4.8542   4.8724
     4.8925   4.9453   4.9577   5.0038   5.0136   5.0426   5.0482   5.0894
     5.1065   5.1340   5.2081   5.2141   5.2151   5.2505   5.2952   5.2975
     5.3051   5.3410   5.3593   5.3615   5.3809   5.4009   5.4636   5.4752
     5.4788   5.4802   5.4926   5.5465   5.5506   5.5594   5.5658   5.5981
     5.6262   5.6347   5.6792   5.6904   5.6981   5.7055   5.7210   5.8014
     5.8191   5.8849   5.8886   5.8914   5.9025   5.9059   5.9374   5.9595
     5.9809   6.0165   6.0360   6.0903   6.0982   6.1217   6.1442   6.1506
     6.1670   6.1692   6.1839   6.1888   6.2163   6.2242   6.2334   6.2610
     6.2868   6.2952   6.3253   6.3489   6.3550   6.3874   6.4279   6.4381
     6.4487   6.4677   6.4940   6.4999   6.5017   6.5053   6.5283   6.5471
     6.5950   6.6196   6.6245   6.6373   6.6793   6.7034   6.7242   6.7417
     6.7443   6.7649   6.7743   6.8035   6.8160   6.8423   6.8454   6.8853
     6.8921   6.9147   6.9569   6.9786   6.9989   7.0019   7.0210   7.0307
     7.0373   7.0795   7.0953   7.1160   7.1266   7.1487   7.1557   7.1820
     7.1838   7.1883   7.1926   7.2583   7.2620   7.2642   7.3065   7.3078
     7.3180   7.3664   7.3719   7.3734   7.3924   7.4416   7.4545   7.4612
     7.4746   7.4799   7.4902   7.5060   7.5232   7.5402   7.5956   7.6214
     7.6394   7.6440   7.6557   7.6882   7.6886   7.7068   7.7190   7.7446
     7.7645   7.7763   7.7894   7.8102   7.8200   7.8356   7.8381   7.8685
     7.8729   7.8838   7.9124   7.9283   7.9285   7.9613   7.9890   8.0331
     8.0333   8.0382   8.0455   8.0678   8.0875   8.0917   8.1068   8.1103
     8.1126   8.1508   8.1973   8.2036   8.2099   8.2385   8.3036   8.3433
     8.3520   8.3776   8.4194   8.4209   8.4279   8.4513   8.4690   8.4804
     8.4859   8.5074   8.5172   8.5187   8.5669   8.5753   8.5825   8.6125
     8.6238   8.6580   8.6657   8.6780   8.6895   8.6986   8.7188   8.7227
     8.7228   8.7756   8.7893   8.7962

          k = 0.0000 0.0000 0.0106 (147327 PWs)   bands (ev):

   -21.6395 -21.3946 -21.1912 -21.1327 -20.9087 -20.6566 -20.5244 -20.4386
   -20.1639 -19.9702 -19.9175 -19.8640 -19.6432 -19.4924 -19.2261 -19.1276
   -18.7953 -18.7568 -18.7335 -18.5808 -18.3637 -18.1108 -18.0432 -17.9945
   -17.8082 -17.6601 -17.5053 -17.3810 -17.3704 -17.0041 -16.9381 -16.9148
   -16.7274 -16.5803 -16.5219 -16.2973 -16.2678 -16.0943 -15.6444 -15.5491
   -15.1893 -14.9458 -14.9436 -14.8307 -14.6809 -14.6620 -14.6269 -14.5107
   -14.3892 -14.3138 -13.6213 -13.5781 -13.5215 -13.4155 -13.3905 -13.2367
   -13.2328 -13.1185 -13.0653 -12.4044 -12.3512 -12.3313 -12.2393 -12.0779
   -12.0494 -12.0184 -11.8188 -11.6673 -11.5689 -11.3366 -11.2287 -11.2234
   -10.8649 -10.8592 -10.7400 -10.5675 -10.5186 -10.4976 -10.4260 -10.2805
   -10.2292 -10.0470 -10.0355  -9.9225  -9.9148  -9.7201  -9.7127  -9.5846
    -9.4232  -9.4033  -9.3754  -9.2936  -9.2491  -9.1983  -9.1748  -9.1108
    -9.0474  -8.9541  -8.9352  -8.8936  -8.8781  -8.8691  -8.7668  -8.7613
    -8.6862  -8.5941  -8.5861  -8.5701  -8.5212  -8.4692  -8.4439  -8.4386
    -8.3136  -8.2910  -8.2639  -8.0261  -8.0160  -8.0133  -7.9811  -7.7696
    -7.7654  -7.7283  -7.7016  -7.6472  -7.5763  -7.5735  -7.4536  -7.3740
    -7.3560  -7.3192  -7.2111  -7.1425  -6.9521  -6.9497  -6.8874  -6.8872
    -6.7072  -6.4864  -6.4831  -6.4207  -6.3937  -6.3732  -6.3691  -6.2874
    -6.2772  -6.0603  -5.9921  -5.7757  -5.7676  -5.6407  -5.6063  -5.6024
    -5.4492  -5.2710  -5.0718  -5.0273  -4.9954  -4.8701  -4.8313  -4.5345
    -4.4585  -4.4429  -4.2616  -4.0125  -3.8984  -3.8136  -3.0297  -2.9639
    -1.6413  -1.5853  -0.9382  -0.7859  -0.7353  -0.5746  -0.5457  -0.3768
    -0.2749  -0.2485  -0.1322   0.3400   0.3889   0.4148   0.6201   0.7184
     0.7723   0.8222   0.8796   0.9687   1.0468   1.0639   1.0852   1.1337
     1.3677   1.4190   1.4580   1.4885   1.5115   1.5606   1.7313   1.8082
     1.8162   1.8671   1.9808   2.0330   2.0574   2.0762   2.0994   2.1637
     2.1687   2.3096   2.3241   2.3435   2.3436   2.4379   2.5202   2.6075
     2.6351   2.6358   2.6376   2.6494   2.6690   2.6959   2.7329   2.7749
     2.7869   2.9216   2.9264   2.9620   3.0032   3.0181   3.0279   3.0611
     3.0765   3.1415   3.1511   3.1546   3.1726   3.3293   3.3319   3.3558
     3.3769   3.4009   3.4268   3.4340   3.4721   3.4844   3.5470   3.6492
     3.6630   3.6700   3.6761   3.6777   3.7221   3.7729   3.8015   3.8149
     3.8307   3.8563   3.8615   3.8748   3.9075   3.9385   4.0467   4.0691
     4.1163   4.1218   4.1278   4.1598   4.1828   4.2132   4.2194   4.2213
     4.2313   4.2783   4.2843   4.2984   4.3309   4.3565   4.3914   4.4262
     4.4818   4.4923   4.5214   4.5223   4.6036   4.6360   4.6432   4.6649
     4.7182   4.7290   4.7749   4.7866   4.7936   4.8191   4.8616   4.8802
     4.8932   4.9619   4.9733   4.9952   5.0182   5.0345   5.0551   5.0898
     5.1410   5.1563   5.1815   5.1919   5.2142   5.2407   5.2797   5.3108
     5.3314   5.3374   5.3394   5.3558   5.3749   5.4261   5.4446   5.4529
     5.4595   5.4638   5.5252   5.5303   5.5314   5.5665   5.5716   5.6012
     5.6055   5.6232   5.6874   5.7003   5.7038   5.7167   5.7266   5.8160
     5.8176   5.8700   5.8779   5.8909   5.8986   5.9022   5.9427   5.9613
     5.9799   6.0073   6.0537   6.1015   6.1082   6.1319   6.1466   6.1551
     6.1712   6.1841   6.1953   6.2020   6.2154   6.2295   6.2400   6.2485
     6.3010   6.3069   6.3143   6.3336   6.3472   6.3898   6.4392   6.4523
     6.4698   6.4740   6.4810   6.4849   6.5006   6.5175   6.5339   6.5687
     6.5858   6.6119   6.6152   6.6475   6.6537   6.6680   6.6973   6.7309
     6.7333   6.7461   6.7690   6.7988   6.8255   6.8510   6.8650   6.8659
     6.8745   6.9000   6.9614   6.9701   6.9892   7.0063   7.0078   7.0493
     7.0535   7.0586   7.0866   7.0993   7.1011   7.1275   7.1614   7.1694
     7.1943   7.2065   7.2105   7.2576   7.2593   7.2932   7.2996   7.3198
     7.3414   7.3663   7.3830   7.3897   7.4263   7.4310   7.4533   7.4709
     7.4800   7.4923   7.4926   7.4999   7.5405   7.5433   7.5762   7.5794
     7.6383   7.6754   7.6882   7.6944   7.6963   7.7037   7.7370   7.7484
     7.7568   7.7607   7.7671   7.7920   7.8223   7.8249   7.8412   7.8750
     7.8792   7.8902   7.9158   7.9199   7.9365   7.9677   7.9774   8.0371
     8.0389   8.0442   8.0795   8.0817   8.0936   8.1110   8.1128   8.1179
     8.1280   8.1538   8.1736   8.2154   8.2173   8.2352   8.2834   8.3117
     8.3400   8.3768   8.4097   8.4220   8.4310   8.4418   8.4522   8.4726
     8.4791   8.5002   8.5231   8.5296   8.5698   8.5757   8.6148   8.6184
     8.6193   8.6473   8.6565   8.6780   8.6932   8.7109   8.7199   8.7339
     8.7533   8.7647   8.7780   8.7930

          k = 0.0000 0.0000 0.0117 (147325 PWs)   bands (ev):

   -21.6369 -21.4062 -21.1894 -21.1154 -20.9189 -20.6404 -20.5242 -20.4634
   -20.1695 -19.9949 -19.8969 -19.8424 -19.6430 -19.4666 -19.2491 -19.1264
   -18.8132 -18.7491 -18.7273 -18.5810 -18.3965 -18.1346 -18.0440 -17.9525
   -17.7815 -17.6856 -17.4745 -17.3735 -17.3685 -17.0124 -16.9432 -16.8878
   -16.7501 -16.6165 -16.5080 -16.2906 -16.2706 -16.1153 -15.6398 -15.5841
   -15.1479 -14.9537 -14.9519 -14.8008 -14.6861 -14.6368 -14.6288 -14.4971
   -14.3683 -14.3019 -13.6452 -13.5965 -13.5521 -13.4684 -13.4021 -13.2671
   -13.2234 -13.0987 -13.0611 -12.3901 -12.3291 -12.2719 -12.1970 -12.0988
   -12.0657 -12.0314 -11.8107 -11.6643 -11.5679 -11.3353 -11.2402 -11.2272
   -10.8848 -10.8660 -10.7066 -10.5845 -10.5343 -10.4753 -10.4481 -10.3296
   -10.2210 -10.0499 -10.0109  -9.9100  -9.9017  -9.7095  -9.6953  -9.5943
    -9.4372  -9.4150  -9.3703  -9.3270  -9.2775  -9.1960  -9.1362  -9.0902
    -9.0504  -8.9492  -8.9329  -8.8999  -8.8949  -8.8815  -8.7788  -8.7653
    -8.6923  -8.5899  -8.5693  -8.5505  -8.5117  -8.4622  -8.4380  -8.4312
    -8.3203  -8.2918  -8.2518  -8.0243  -8.0204  -7.9944  -7.9788  -7.7946
    -7.7880  -7.7093  -7.7078  -7.6154  -7.5951  -7.5824  -7.4533  -7.3859
    -7.3332  -7.3181  -7.1823  -7.1701  -6.9792  -6.9533  -6.8954  -6.8847
    -6.6915  -6.5108  -6.4737  -6.4357  -6.3899  -6.3745  -6.3721  -6.2872
    -6.2494  -6.0397  -6.0235  -5.7992  -5.7762  -5.6486  -5.6120  -5.5596
    -5.4224  -5.2927  -5.0540  -5.0043  -5.0036  -4.8752  -4.8318  -4.5404
    -4.4869  -4.4453  -4.2316  -4.0082  -3.8989  -3.8138  -3.0585  -2.9720
    -1.6364  -1.5565  -0.9287  -0.7843  -0.7398  -0.5792  -0.5329  -0.3547
    -0.2811  -0.2453  -0.1475   0.3325   0.3672   0.3895   0.6489   0.6832
     0.7760   0.8224   0.8259   0.9809   1.0505   1.0697   1.0960   1.1183
     1.3526   1.4355   1.4665   1.5053   1.5200   1.6101   1.7547   1.7924
     1.8002   1.8682   1.9582   2.0353   2.0743   2.0792   2.1010   2.1866
     2.1883   2.2879   2.3162   2.3333   2.3534   2.4233   2.5008   2.5904
     2.6386   2.6398   2.6428   2.6564   2.6669   2.6758   2.7364   2.7957
     2.8063   2.9210   2.9403   2.9458   3.0001   3.0101   3.0498   3.0594
     3.0948   3.1288   3.1314   3.1632   3.1793   3.3221   3.3468   3.3545
     3.3863   3.4014   3.4193   3.4559   3.4618   3.4883   3.5519   3.6335
     3.6460   3.6645   3.6676   3.6743   3.7166   3.7764   3.8056   3.8167
     3.8265   3.8644   3.8725   3.8991   3.9382   3.9426   4.0170   4.0522
     4.0771   4.1059   4.1089   4.1614   4.1631   4.1991   4.1994   4.2302
     4.2515   4.2700   4.2791   4.3137   4.3336   4.3424   4.3740   4.4504
     4.4635   4.4945   4.5116   4.5518   4.6197   4.6528   4.6568   4.6715
     4.7018   4.7170   4.7824   4.7966   4.8047   4.8185   4.8696   4.8741
     4.9135   4.9490   4.9812   4.9885   5.0233   5.0423   5.0608   5.1136
     5.1494   5.1500   5.1713   5.1928   5.2135   5.2289   5.2752   5.3025
     5.3145   5.3168   5.3689   5.3719   5.3803   5.4037   5.4234   5.4358
     5.4516   5.4528   5.4955   5.5348   5.5665   5.5684   5.5729   5.6001
     5.6083   5.6238   5.6982   5.7024   5.7168   5.7181   5.7450   5.8035
     5.8185   5.8532   5.8655   5.8806   5.8870   5.8957   5.9621   5.9702
     5.9793   5.9986   6.0721   6.0956   6.1171   6.1368   6.1581   6.1629
     6.1879   6.2024   6.2032   6.2141   6.2165   6.2286   6.2370   6.2488
     6.2721   6.3029   6.3365   6.3396   6.3632   6.3945   6.4439   6.4504
     6.4538   6.4635   6.4649   6.5022   6.5060   6.5416   6.5520   6.5841
     6.5902   6.6010   6.6041   6.6112   6.6262   6.6574   6.6866   6.7161
     6.7201   6.7391   6.7703   6.8001   6.8192   6.8435   6.8622   6.8739
     6.8841   6.8872   6.9634   6.9643   6.9764   6.9867   7.0094   7.0146
     7.0468   7.0690   7.0692   7.0801   7.1098   7.1152   7.1758   7.1764
     7.2008   7.2047   7.2321   7.2601   7.2756   7.2962   7.3216   7.3231
     7.3589   7.3756   7.3917   7.4025   7.4060   7.4568   7.4659   7.4700
     7.4874   7.4921   7.4972   7.5136   7.5290   7.5433   7.5655   7.5665
     7.6310   7.6807   7.6909   7.6931   7.7029   7.7184   7.7302   7.7412
     7.7525   7.7724   7.7760   7.7785   7.7895   7.8245   7.8519   7.8852
     7.8899   7.8979   7.9100   7.9312   7.9668   7.9683   7.9797   8.0233
     8.0418   8.0488   8.0882   8.0937   8.1002   8.1199   8.1322   8.1350
     8.1422   8.1620   8.1730   8.2163   8.2222   8.2305   8.2412   8.3314
     8.3374   8.3760   8.3888   8.4010   8.4267   8.4353   8.4484   8.4602
     8.4867   8.4947   8.5177   8.5335   8.5661   8.5764   8.6021   8.6067
     8.6182   8.6490   8.6640   8.6874   8.7113   8.7149   8.7312   8.7435
     8.7492   8.7564   8.7891   8.8038

          k = 0.0000 0.0000 0.0129 (147299 PWs)   bands (ev):

   -21.6341 -21.4175 -21.1875 -21.0978 -20.9287 -20.6239 -20.5247 -20.4873
   -20.1754 -20.0193 -19.8780 -19.8180 -19.6428 -19.4415 -19.2717 -19.1245
   -18.8451 -18.7409 -18.7081 -18.5799 -18.4292 -18.1578 -18.0461 -17.9095
   -17.7549 -17.7116 -17.4491 -17.3655 -17.3601 -17.0232 -16.9499 -16.8588
   -16.7711 -16.6548 -16.4928 -16.2935 -16.2736 -16.1289 -15.6352 -15.6198
   -15.1046 -14.9618 -14.9601 -14.7755 -14.6919 -14.6402 -14.5932 -14.4826
   -14.3475 -14.2908 -13.6717 -13.6150 -13.5851 -13.5173 -13.4165 -13.3024
   -13.2142 -13.0790 -13.0490 -12.3758 -12.3076 -12.2144 -12.1542 -12.1200
   -12.0826 -12.0411 -11.8022 -11.6704 -11.5594 -11.3424 -11.2488 -11.2235
   -10.9059 -10.8749 -10.6806 -10.6002 -10.5435 -10.4769 -10.4513 -10.3721
   -10.2135 -10.0519  -9.9867  -9.8967  -9.8881  -9.7060  -9.6726  -9.6022
    -9.4508  -9.4293  -9.3661  -9.3560  -9.3155  -9.1936  -9.0883  -9.0693
    -9.0553  -8.9449  -8.9382  -8.9168  -8.8957  -8.8935  -8.7968  -8.7610
    -8.6985  -8.5881  -8.5548  -8.5307  -8.5025  -8.4561  -8.4377  -8.4172
    -8.3491  -8.2688  -8.2366  -8.0324  -8.0146  -7.9769  -7.9756  -7.8236
    -7.8055  -7.7153  -7.6906  -7.6158  -7.5891  -7.5823  -7.4531  -7.3982
    -7.3158  -7.3121  -7.1962  -7.1547  -7.0060  -6.9786  -6.8820  -6.8807
    -6.6769  -6.5348  -6.4761  -6.4635  -6.3769  -6.3759  -6.3645  -6.2831
    -6.2209  -6.0555  -6.0194  -5.8299  -5.7769  -5.6572  -5.6181  -5.5170
    -5.3954  -5.3166  -5.0482  -5.0107  -4.9679  -4.8805  -4.8324  -4.5518
    -4.5150  -4.4454  -4.1995  -4.0105  -3.8994  -3.8099  -3.0890  -2.9806
    -1.6312  -1.5261  -0.9219  -0.7825  -0.7391  -0.5904  -0.5127  -0.3340
    -0.2960  -0.2405  -0.1524   0.3226   0.3269   0.3808   0.6504   0.6781
     0.7650   0.7802   0.8300   0.9952   1.0532   1.0560   1.1033   1.1279
     1.3374   1.4511   1.4726   1.5252   1.5307   1.6591   1.7770   1.7775
     1.7855   1.8634   1.9280   2.0127   2.0824   2.1022   2.1271   2.2038
     2.2092   2.2672   2.2933   2.3447   2.3638   2.4093   2.4820   2.5713
     2.6138   2.6419   2.6487   2.6524   2.6723   2.6810   2.7506   2.8173
     2.8252   2.9147   2.9292   2.9548   2.9858   3.0137   3.0548   3.0710
     3.0755   3.1121   3.1503   3.1845   3.1873   3.3132   3.3359   3.3387
     3.3774   3.4261   3.4402   3.4412   3.4927   3.5002   3.5576   3.6083
     3.6208   3.6489   3.6588   3.6662   3.7347   3.7878   3.8028   3.8099
     3.8362   3.8481   3.8894   3.9379   3.9472   3.9760   3.9884   4.0215
     4.0331   4.0905   4.0996   4.1374   4.1574   4.1847   4.1869   4.2302
     4.2522   4.2590   4.2793   4.3081   4.3419   4.3497   4.3828   4.4343
     4.4858   4.4991   4.4998   4.5837   4.6381   4.6384   4.6774   4.6862
     4.6995   4.7047   4.7504   4.8066   4.8080   4.8598   4.8624   4.8890
     4.9125   4.9324   5.0003   5.0029   5.0289   5.0306   5.0720   5.1205
     5.1230   5.1496   5.1861   5.1980   5.2164   5.2276   5.2647   5.2852
     5.2906   5.3198   5.3623   5.3829   5.3840   5.3953   5.4017   5.4125
     5.4374   5.4703   5.4783   5.5395   5.5440   5.5764   5.6080   5.6190
     5.6251   5.6265   5.6914   5.7203   5.7218   5.7327   5.7551   5.7811
     5.8050   5.8354   5.8651   5.8655   5.8797   5.8925   5.9542   5.9623
     6.0045   6.0172   6.0525   6.1098   6.1156   6.1582   6.1601   6.1766
     6.1795   6.1968   6.2051   6.2051   6.2368   6.2401   6.2520   6.2623
     6.2666   6.3009   6.3400   6.3447   6.4017   6.4025   6.4321   6.4339
     6.4407   6.4563   6.4618   6.5055   6.5132   6.5515   6.5580   6.5678
     6.5695   6.5877   6.6089   6.6215   6.6273   6.6314   6.6882   6.7020
     6.7029   6.7473   6.7710   6.8060   6.8099   6.8366   6.8469   6.8746
     6.8876   6.9084   6.9488   6.9603   6.9691   6.9722   6.9802   6.9897
     7.0251   7.0279   7.0821   7.1066   7.1126   7.1210   7.1855   7.1901
     7.1949   7.2095   7.2542   7.2624   7.3004   7.3020   7.3256   7.3447
     7.3498   7.3785   7.3899   7.4091   7.4218   7.4570   7.4696   7.4743
     7.4745   7.4883   7.5149   7.5188   7.5366   7.5424   7.5532   7.5906
     7.6383   7.6654   7.6705   7.6746   7.6882   7.7141   7.7291   7.7367
     7.7419   7.7590   7.7910   7.8012   7.8191   7.8194   7.8731   7.8777
     7.8898   7.8933   7.9430   7.9439   7.9601   7.9897   8.0053   8.0116
     8.0489   8.0499   8.0816   8.0887   8.0957   8.1213   8.1334   8.1604
     8.1674   8.1688   8.1931   8.1943   8.1947   8.2466   8.2661   8.3293
     8.3640   8.3647   8.3765   8.3785   8.4186   8.4355   8.4390   8.4471
     8.4859   8.4961   8.4973   8.5455   8.5580   8.5612   8.5782   8.5921
     8.6209   8.6719   8.6777   8.6826   8.6910   8.7106   8.7274   8.7472
     8.7489   8.7704   8.7743   8.7823

          k = 0.0000 0.0000 0.0141 (147253 PWs)   bands (ev):

   -21.6310 -21.4284 -21.1854 -21.0800 -20.9381 -20.6072 -20.5288 -20.5073
   -20.1812 -20.0434 -19.8605 -19.7914 -19.6425 -19.4172 -19.2939 -19.1214
   -18.8806 -18.7324 -18.6867 -18.5773 -18.4620 -18.1803 -18.0489 -17.8660
   -17.7377 -17.7286 -17.4316 -17.3614 -17.3383 -17.0351 -16.9583 -16.8292
   -16.7901 -16.6945 -16.4768 -16.3078 -16.2767 -16.1332 -15.6560 -15.6305
   -15.0596 -14.9699 -14.9681 -14.7602 -14.6972 -14.6321 -14.5568 -14.4676
   -14.3266 -14.2805 -13.7023 -13.6335 -13.6205 -13.5606 -13.4359 -13.3364
   -13.2051 -13.0597 -13.0329 -12.3616 -12.2864 -12.1642 -12.1412 -12.1115
   -12.0967 -12.0454 -11.7934 -11.6833 -11.5451 -11.3582 -11.2489 -11.2180
   -10.9261 -10.8873 -10.6681 -10.6146 -10.5448 -10.5096 -10.4259 -10.4054
   -10.2065 -10.0529  -9.9646  -9.8815  -9.8745  -9.7022  -9.6564  -9.6040
    -9.4640  -9.4495  -9.3770  -9.3716  -9.3461  -9.1910  -9.0630  -9.0480
    -9.0404  -8.9554  -8.9418  -8.9237  -8.9050  -8.8956  -8.8145  -8.7538
    -8.7044  -8.5876  -8.5429  -8.5105  -8.4945  -8.4513  -8.4381  -8.4019
    -8.3770  -8.2450  -8.2186  -8.0404  -8.0090  -7.9713  -7.9621  -7.8522
    -7.8219  -7.7236  -7.6720  -7.6350  -7.5962  -7.5482  -7.4528  -7.4100
    -7.3132  -7.2966  -7.2172  -7.1288  -7.0323  -7.0098  -6.8748  -6.8629
    -6.6642  -6.5580  -6.5173  -6.4528  -6.3828  -6.3773  -6.3435  -6.2736
    -6.1923  -6.0882  -5.9995  -5.8596  -5.7778  -5.6667  -5.6248  -5.4746
    -5.3682  -5.3424  -5.0458  -5.0150  -4.9291  -4.8861  -4.8330  -4.5676
    -4.5428  -4.4440  -4.1656  -4.0190  -3.8999  -3.8019  -3.1209  -2.9896
    -1.6258  -1.4943  -0.9185  -0.7806  -0.7324  -0.6035  -0.4904  -0.3167
    -0.3155  -0.2331  -0.1489   0.2845   0.3109   0.3721   0.6202   0.7018
     0.7130   0.7847   0.8345   1.0111   1.0395   1.0595   1.0886   1.1594
     1.3223   1.4650   1.4778   1.5439   1.5465   1.7073   1.7622   1.7688
     1.8032   1.8511   1.9020   1.9901   2.0858   2.1024   2.1801   2.2078
     2.2272   2.2519   2.2825   2.3593   2.3748   2.3959   2.4638   2.5519
     2.5822   2.6359   2.6456   2.6623   2.6749   2.6921   2.7737   2.8392
     2.8423   2.9078   2.9124   2.9663   2.9708   3.0187   3.0395   3.0460
     3.0910   3.1113   3.1805   3.1967   3.2041   3.2916   3.3055   3.3265
     3.4005   3.4250   3.4506   3.4638   3.4974   3.5389   3.5651   3.5813
     3.5921   3.6199   3.6532   3.6665   3.7565   3.7895   3.8021   3.8136
     3.8331   3.8449   3.9011   3.9512   3.9656   3.9664   3.9758   4.0014
     4.0256   4.0757   4.0903   4.1094   4.1487   4.1705   4.1765   4.2075
     4.2305   4.2715   4.2810   4.3009   4.3290   4.3852   4.4105   4.4146
     4.4874   4.5023   4.5126   4.6134   4.6263   4.6569   4.6707   4.6936
     4.7014   4.7074   4.7397   4.7872   4.8207   4.8620   4.8912   4.9021
     4.9048   4.9472   5.0157   5.0198   5.0205   5.0351   5.0663   5.0916
     5.1081   5.1868   5.1874   5.1946   5.2043   5.2282   5.2562   5.2653
     5.2919   5.3119   5.3403   5.3691   5.3765   5.3784   5.4131   5.4159
     5.4252   5.4597   5.4892   5.5325   5.5547   5.5774   5.6301   5.6323
     5.6489   5.6542   5.6822   5.7246   5.7447   5.7453   5.7474   5.7527
     5.7898   5.8350   5.8437   5.8509   5.8942   5.8945   5.9347   5.9604
     6.0010   6.0406   6.0658   6.0997   6.1155   6.1404   6.1573   6.1840
     6.1904   6.1906   6.1934   6.2135   6.2452   6.2596   6.2730   6.2805
     6.2932   6.3002   6.3431   6.3521   6.4076   6.4142   6.4150   6.4181
     6.4454   6.4486   6.4730   6.5069   6.5074   6.5204   6.5302   6.5382
     6.5849   6.5899   6.6041   6.6172   6.6449   6.6510   6.6704   6.6944
     6.7016   6.7594   6.7710   6.7967   6.8254   6.8283   6.8334   6.8752
     6.8923   6.9172   6.9336   6.9348   6.9469   6.9621   6.9679   6.9811
     6.9876   7.0285   7.0881   7.0957   7.1391   7.1410   7.1744   7.1904
     7.2167   7.2179   7.2613   7.2749   7.3160   7.3193   7.3218   7.3324
     7.3712   7.3722   7.3785   7.4317   7.4361   7.4427   7.4434   7.4651
     7.4793   7.4897   7.5225   7.5455   7.5461   7.5546   7.5588   7.6184
     7.6340   7.6348   7.6536   7.6549   7.6819   7.6888   7.7184   7.7287
     7.7412   7.7827   7.7905   7.8131   7.8185   7.8586   7.8705   7.8862
     7.8897   7.9165   7.9531   7.9559   7.9762   7.9852   8.0249   8.0264
     8.0328   8.0601   8.0733   8.0751   8.1034   8.1126   8.1446   8.1464
     8.1739   8.1859   8.1929   8.2099   8.2167   8.2630   8.2787   8.3366
     8.3429   8.3556   8.3865   8.3883   8.4104   8.4274   8.4371   8.4387
     8.4719   8.4767   8.5076   8.5177   8.5539   8.5543   8.5783   8.5888
     8.6249   8.6344   8.6707   8.6814   8.6910   8.7040   8.7140   8.7378
     8.7411   8.7423   8.7770   8.7806

          k = 0.0000 0.0000 0.0153 (147267 PWs)   bands (ev):

   -21.6277 -21.4390 -21.1833 -21.0618 -20.9471 -20.5902 -20.5446 -20.5154
   -20.1869 -20.0672 -19.8437 -19.7633 -19.6423 -19.3940 -19.3156 -19.1170
   -18.9171 -18.7237 -18.6660 -18.5726 -18.4945 -18.2022 -18.0524 -17.8224
   -17.7633 -17.7025 -17.4213 -17.3565 -17.3089 -17.0476 -16.9687 -16.8068
   -16.8006 -16.7342 -16.4605 -16.3319 -16.2796 -16.1297 -15.6925 -15.6258
   -15.0135 -14.9778 -14.9759 -14.7571 -14.7019 -14.6099 -14.5200 -14.4522
   -14.3059 -14.2709 -13.7387 -13.6564 -13.6519 -13.5981 -13.4635 -13.3642
   -13.1961 -13.0408 -13.0148 -12.3478 -12.2657 -12.1619 -12.1423 -12.0964
   -12.0697 -12.0344 -11.7840 -11.7001 -11.5276 -11.3798 -11.2438 -11.2116
   -10.9450 -10.9028 -10.6716 -10.6277 -10.5711 -10.5107 -10.4291 -10.3994
   -10.1996 -10.0530  -9.9466  -9.8633  -9.8615  -9.6981  -9.6529  -9.5933
    -9.4768  -9.4766  -9.4066  -9.3883  -9.3475  -9.1883  -9.0739  -9.0264
    -8.9957  -8.9765  -8.9407  -8.9272  -8.9160  -8.8938  -8.8299  -8.7451
    -8.7091  -8.5878  -8.5333  -8.4900  -8.4878  -8.4482  -8.4409  -8.4023
    -8.3857  -8.2207  -8.1984  -8.0480  -8.0038  -7.9658  -7.9518  -7.8805
    -7.8371  -7.7315  -7.6534  -7.6524  -7.6038  -7.5135  -7.4525  -7.4207
    -7.3107  -7.2968  -7.2229  -7.1052  -7.0581  -7.0422  -6.8664  -6.8430
    -6.6546  -6.5789  -6.5588  -6.4415  -6.3894  -6.3788  -6.3294  -6.2567
    -6.1640  -6.1215  -5.9800  -5.8881  -5.7788  -5.6770  -5.6320  -5.4324
    -5.3697  -5.3411  -5.0443  -5.0175  -4.8920  -4.8899  -4.8334  -4.5868
    -4.5701  -4.4418  -4.1304  -4.0331  -3.9004  -3.7908  -3.1540  -2.9989
    -1.6203  -1.4614  -0.9188  -0.7787  -0.7196  -0.6180  -0.4686  -0.3381
    -0.3008  -0.2219  -0.1402   0.2415   0.2979   0.3615   0.5929   0.6501
     0.7362   0.7896   0.8394   1.0251   1.0286   1.0644   1.0742   1.1907
     1.3075   1.4772   1.4829   1.5596   1.5685   1.7478   1.7541   1.7542
     1.8276   1.8277   1.8859   1.9679   2.0894   2.1012   2.1942   2.2202
     2.2293   2.2635   2.2894   2.3794   2.3833   2.3865   2.4466   2.5323
     2.5495   2.6219   2.6496   2.6719   2.6790   2.7001   2.8016   2.8542
     2.8612   2.8957   2.9032   2.9561   2.9760   3.0163   3.0173   3.0241
     3.1095   3.1208   3.2064   3.2118   3.2199   3.2467   3.3003   3.3208
     3.4103   3.4235   3.4749   3.4853   3.5025   3.5545   3.5626   3.5633
     3.5830   3.5967   3.6476   3.6668   3.7772   3.7780   3.8088   3.8157
     3.8284   3.8530   3.8941   3.9077   3.9586   3.9642   3.9835   4.0090
     4.0542   4.0677   4.0814   4.0842   4.1357   4.1566   4.1665   4.1818
     4.2059   4.2532   4.2853   4.3224   4.3232   4.3975   4.4194   4.4403
     4.4759   4.5008   4.5374   4.6051   4.6529   4.6623   4.6752   4.6792
     4.6842   4.7244   4.7502   4.7672   4.8350   4.8632   4.8869   4.9209
     4.9448   4.9523   5.0172   5.0260   5.0405   5.0417   5.0420   5.0586
     5.1129   5.1849   5.1870   5.1882   5.1948   5.2305   5.2387   5.2543
     5.2865   5.3124   5.3413   5.3450   5.3591   5.3760   5.3984   5.4324
     5.4371   5.4541   5.4697   5.5656   5.5660   5.5764   5.6319   5.6467
     5.6731   5.6853   5.6864   5.7143   5.7282   5.7284   5.7622   5.7706
     5.7770   5.8182   5.8394   5.8494   5.8999   5.9099   5.9232   5.9482
     5.9814   6.0692   6.0758   6.0896   6.1009   6.1173   6.1561   6.1842
     6.1850   6.2011   6.2140   6.2150   6.2464   6.2707   6.2749   6.3087
     6.3209   6.3280   6.3465   6.3632   6.3887   6.3948   6.4035   6.4041
     6.4433   6.4712   6.4717   6.4885   6.4892   6.5124   6.5203   6.5353
     6.5821   6.5847   6.6030   6.6107   6.6355   6.6738   6.6742   6.6882
     6.7150   6.7680   6.7752   6.7953   6.7973   6.8318   6.8508   6.8858
     6.8873   6.8879   6.9013   6.9259   6.9338   6.9426   6.9708   6.9741
     6.9956   7.0313   7.0838   7.0876   7.1588   7.1590   7.1630   7.1934
[...]
    -6.0798  -6.0186  -5.9365  -5.8307  -5.8046  -5.8039  -5.7148  -5.5993
    -5.1261  -5.0717  -5.0176  -4.9962  -4.9456  -4.8926  -4.8399  -4.7717
    -4.5188  -4.4225  -4.2804  -3.9096  -3.8007  -3.6800  -3.4658  -3.0713
    -1.5800  -1.1564  -0.9702  -0.8345  -0.7453  -0.5438  -0.4580  -0.2939
    -0.1200  -0.1171  -0.0158  -0.0112   0.1582   0.1723   0.1805   0.4845
     0.8501   0.8936   0.8989   0.9129   0.9634   1.1246   1.1937   1.2633
     1.4356   1.5075   1.5299   1.5510   1.6447   1.6484   1.7433   1.7577
     1.7783   1.8493   1.9457   1.9507   2.0639   2.1266   2.1590   2.1857
     2.2487   2.3109   2.3293   2.3397   2.4034   2.4983   2.5008   2.5133
     2.5492   2.6545   2.6743   2.6902   2.7213   2.7528   2.7601   2.8281
     2.8387   2.8442   2.8462   2.8884   2.9986   3.0703   3.0727   3.0906
     3.1234   3.1439   3.1666   3.2081   3.2144   3.2802   3.2851   3.3103
     3.3881   3.4084   3.4430   3.5137   3.5180   3.5469   3.6069   3.6169
     3.6223   3.6435   3.6476   3.6744   3.7045   3.7317   3.7409   3.7535
     3.8055   3.8731   3.8749   3.9163   3.9228   3.9288   3.9380   3.9491
     3.9844   4.0039   4.0447   4.0544   4.0585   4.0741   4.1413   4.1859
     4.1864   4.2891   4.2992   4.3120   4.3652   4.3692   4.4418   4.4492
     4.4948   4.5295   4.6039   4.6231   4.6870   4.6953   4.7257   4.7302
     4.7400   4.7461   4.7926   4.8173   4.8182   4.8368   4.9503   4.9562
     4.9637   4.9741   4.9882   4.9929   5.0099   5.0120   5.0505   5.0710
     5.0803   5.0979   5.1247   5.1574   5.1611   5.1908   5.2219   5.2399
     5.2534   5.3060   5.3320   5.3471   5.3597   5.3666   5.4041   5.4308
     5.4478   5.4759   5.4851   5.5126   5.5906   5.6001   5.6341   5.6395
     5.6432   5.6801   5.6978   5.7004   5.7595   5.7638   5.7698   5.8420
     5.8822   5.9106   5.9239   5.9444   5.9603   5.9604   5.9949   6.0197
     6.0274   6.0452   6.0650   6.0659   6.0944   6.1046   6.1149   6.1339
     6.1395   6.1452   6.1495   6.1680   6.1802   6.2156   6.2577   6.2608
     6.2743   6.3004   6.3143   6.3497   6.3629   6.3705   6.3766   6.3826
     6.4057   6.4220   6.4404   6.4423   6.4553   6.4980   6.5113   6.5305
     6.5635   6.6140   6.6141   6.6638   6.6856   6.6898   6.7221   6.7506
     6.7757   6.8092   6.8194   6.8313   6.8329   6.8426   6.8556   6.8730
     6.8969   6.9237   6.9285   6.9311   6.9561   6.9764   6.9962   7.0123
     7.0151   7.0842   7.0849   7.0858   7.1063   7.1200   7.1210   7.1443
     7.1642   7.1835   7.1847   7.1904   7.2357   7.2392   7.2395   7.3303
     7.3629   7.3904   7.4015   7.4251   7.4407   7.4534   7.4561   7.4685
     7.4957   7.4979   7.5131   7.5229   7.5483   7.5500   7.5934   7.6124
     7.6497   7.6659   7.6887   7.7106   7.7175   7.7456   7.7477   7.7698
     7.7731   7.8242   7.8395   7.8654   7.8793   7.8959   7.8960   7.9430
     7.9521   7.9690   7.9847   8.0164   8.0170   8.0352   8.0608   8.0732
     8.0926   8.0951   8.1057   8.1229   8.1505   8.1566   8.1708   8.1896
     8.2027   8.2179   8.2402   8.2560   8.2635   8.2653   8.2756   8.2865
     8.3267   8.3359   8.3491   8.3664   8.3789   8.3808   8.4251   8.4267
     8.4449   8.4453   8.4461   8.4844   8.5114   8.5246   8.5389   8.5687
     8.5759   8.5789   8.5879   8.6148   8.6288   8.6347   8.6386   8.6399
     8.6421   8.6892   8.6994   8.7141

          k = 0.0000 0.0000 0.0270 (147192 PWs)   bands (ev):

   -21.5894 -21.5182 -21.1645 -21.0046 -20.8675 -20.7730 -20.5126 -20.4246
   -20.2712 -20.2231 -19.7050 -19.6407 -19.5290 -19.4091 -19.2748 -19.2739
   -18.9499 -18.8326 -18.6223 -18.6065 -18.4080 -18.3561 -18.1334 -17.9305
   -17.4970 -17.4043 -17.3867 -17.2908 -17.1738 -17.1504 -17.1246 -16.9452
   -16.8394 -16.7130 -16.5714 -16.3820 -16.1873 -16.0444 -16.0440 -15.5887
   -15.0353 -15.0237 -14.8467 -14.7232 -14.4967 -14.3269 -14.2711 -14.2511
   -14.1667 -14.1492 -14.1249 -13.9865 -13.9489 -13.8075 -13.7623 -13.4429
   -13.1349 -12.9083 -12.8561 -12.3367 -12.2851 -12.2661 -12.0851 -12.0611
   -11.8836 -11.7697 -11.6721 -11.6038 -11.4716 -11.3343 -11.2110 -11.2007
   -11.1575 -11.1235 -10.9926 -10.7395 -10.7090 -10.6077 -10.1999 -10.1092
   -10.0636 -10.0212  -9.9228  -9.8705  -9.8455  -9.7542  -9.7174  -9.6486
    -9.5752  -9.5429  -9.4266  -9.3672  -9.2534  -9.2195  -9.1637  -9.1628
    -9.1132  -8.9871  -8.9367  -8.9285  -8.8888  -8.7942  -8.7713  -8.6871
    -8.6052  -8.5868  -8.5618  -8.4993  -8.4912  -8.4227  -8.3652  -8.2824
    -8.2575  -8.2035  -8.1319  -8.0947  -8.0640  -8.0272  -7.9761  -7.8752
    -7.7947  -7.7817  -7.6931  -7.6214  -7.5725  -7.4802  -7.4506  -7.4460
    -7.3635  -7.2930  -7.2725  -7.1216  -7.0144  -7.0090  -6.9674  -6.8352
    -6.6922  -6.6268  -6.5492  -6.4744  -6.4619  -6.3940  -6.3224  -6.3105
    -6.0902  -6.0006  -5.9163  -5.8202  -5.8198  -5.8098  -5.7232  -5.6125
    -5.1143  -5.0376  -5.0081  -4.9915  -4.9489  -4.9077  -4.8727  -4.7776
    -4.4843  -4.4217  -4.3121  -3.9092  -3.7741  -3.6744  -3.4925  -3.0750
    -1.5781  -1.1316  -0.9733  -0.8547  -0.7459  -0.5498  -0.4242  -0.3069
    -0.1440  -0.0757  -0.0053   0.0131   0.1185   0.1479   0.1622   0.4822
     0.8580   0.8990   0.9030   0.9064   0.9539   1.1319   1.1844   1.2929
     1.4520   1.4752   1.5334   1.5565   1.6376   1.6429   1.7284   1.7788
     1.7996   1.8481   1.9239   1.9293   2.0840   2.1339   2.1878   2.1928
     2.2230   2.3044   2.3152   2.3241   2.4127   2.4880   2.5274   2.5397
     2.5738   2.6342   2.6503   2.6745   2.7173   2.7567   2.7676   2.8185
     2.8316   2.8376   2.8711   2.9003   3.0023   3.0830   3.0846   3.0885
     3.1232   3.1651   3.1699   3.1848   3.2227   3.2627   3.2764   3.2836
     3.3483   3.4271   3.4605   3.5301   3.5320   3.5544   3.6003   3.6157
     3.6269   3.6330   3.6494   3.6645   3.7132   3.7132   3.7539   3.7803
     3.8003   3.8468   3.8821   3.9014   3.9099   3.9204   3.9224   3.9380
     4.0075   4.0235   4.0399   4.0531   4.0669   4.0874   4.1561   4.1579
     4.2143   4.2538   4.2904   4.2923   4.3360   4.3661   4.4714   4.4831
     4.5139   4.5558   4.6056   4.6462   4.6575   4.6688   4.6892   4.7354
     4.7596   4.7663   4.7808   4.8108   4.8163   4.8453   4.9320   4.9451
     4.9533   4.9852   4.9878   4.9900   4.9972   5.0260   5.0680   5.0761
     5.1060   5.1090   5.1260   5.1349   5.1642   5.1900   5.2246   5.2292
     5.2521   5.2774   5.3393   5.3552   5.3690   5.3831   5.3952   5.4362
     5.4539   5.4628   5.4869   5.5096   5.5728   5.5881   5.5945   5.6464
     5.6556   5.6750   5.7041   5.7078   5.7683   5.7864   5.7968   5.8585
     5.8969   5.9088   5.9200   5.9431   5.9516   5.9605   5.9841   5.9856
     6.0438   6.0521   6.0621   6.0671   6.0699   6.0901   6.1403   6.1435
     6.1553   6.1662   6.1682   6.1777   6.1830   6.2073   6.2547   6.2656
     6.2684   6.2948   6.3083   6.3207   6.3421   6.3539   6.3708   6.3898
     6.3943   6.4000   6.4155   6.4257   6.4464   6.4892   6.5156   6.5504
     6.5963   6.6168   6.6205   6.6862   6.6875   6.6895   6.7208   6.7650
     6.7873   6.8065   6.8071   6.8243   6.8334   6.8576   6.8686   6.8737
     6.8754   6.9284   6.9461   6.9617   6.9868   6.9993   7.0013   7.0141
     7.0151   7.0434   7.0820   7.0821   7.0927   7.1173   7.1190   7.1418
     7.1421   7.1457   7.1738   7.1830   7.2374   7.2447   7.2593   7.2933
     7.3816   7.3899   7.4159   7.4227   7.4333   7.4436   7.4580   7.4839
     7.4962   7.4974   7.5122   7.5304   7.5408   7.5424   7.5979   7.6108
     7.6438   7.6641   7.6794   7.7194   7.7272   7.7474   7.7545   7.7833
     7.8164   7.8234   7.8399   7.8456   7.8707   7.8961   7.8981   7.9435
     7.9655   7.9836   7.9898   8.0067   8.0280   8.0348   8.0675   8.0686
     8.0830   8.0933   8.1090   8.1376   8.1382   8.1395   8.1542   8.1788
     8.2148   8.2243   8.2420   8.2518   8.2612   8.2743   8.2813   8.2823
     8.3164   8.3402   8.3460   8.3790   8.3849   8.3977   8.4006   8.4056
     8.4255   8.4506   8.4598   8.4970   8.5308   8.5442   8.5463   8.5499
     8.5633   8.5766   8.5841   8.6167   8.6253   8.6266   8.6341   8.6453
     8.6712   8.6763   8.6820   8.6836

          k = 0.0000 0.0000 0.0282 (147224 PWs)   bands (ev):

   -21.5874 -21.5210 -21.1639 -21.0061 -20.8493 -20.7920 -20.5124 -20.4156
   -20.2810 -20.2240 -19.6993 -19.6406 -19.5299 -19.3859 -19.3045 -19.2722
   -18.9232 -18.8614 -18.6197 -18.6063 -18.3995 -18.3606 -18.1394 -17.9339
   -17.4901 -17.4041 -17.3535 -17.2862 -17.2056 -17.1573 -17.1310 -16.9287
   -16.8199 -16.7498 -16.5645 -16.3835 -16.1660 -16.0697 -16.0420 -15.5876
   -15.0367 -15.0248 -14.8495 -14.7236 -14.4435 -14.3252 -14.3226 -14.2471
   -14.1535 -14.1093 -14.0996 -14.0188 -13.9927 -13.8132 -13.7664 -13.4441
   -13.1333 -12.9047 -12.8511 -12.3418 -12.2849 -12.2698 -12.0799 -12.0565
   -11.8910 -11.7550 -11.6794 -11.6049 -11.4308 -11.3201 -11.2150 -11.2118
   -11.1932 -11.1316 -10.9922 -10.7398 -10.7113 -10.6134 -10.1968 -10.0865
   -10.0485 -10.0122  -9.9215  -9.8967  -9.8645  -9.7579  -9.7187  -9.6458
    -9.5791  -9.5263  -9.4228  -9.3769  -9.2515  -9.2001  -9.1736  -9.1629
    -9.1345  -8.9889  -8.9378  -8.9279  -8.8882  -8.7729  -8.7711  -8.7111
    -8.6011  -8.5786  -8.5586  -8.5014  -8.4941  -8.4225  -8.3317  -8.2691
    -8.2538  -8.2409  -8.1461  -8.0958  -8.0588  -8.0329  -7.9659  -7.8730
    -7.8029  -7.7582  -7.7064  -7.6134  -7.5872  -7.4720  -7.4506  -7.4390
    -7.3788  -7.3002  -7.2744  -7.0854  -7.0136  -7.0063  -6.9958  -6.8484
    -6.6875  -6.5985  -6.5472  -6.5036  -6.4649  -6.3946  -6.3181  -6.3105
    -6.0967  -5.9886  -5.8996  -5.8347  -5.8139  -5.8122  -5.7293  -5.6206
    -5.1072  -5.0116  -4.9988  -4.9852  -4.9480  -4.9206  -4.9044  -4.7809
    -4.4548  -4.4212  -4.3399  -3.9091  -3.7552  -3.6709  -3.5113  -3.0773
    -1.5769  -1.1144  -0.9751  -0.8694  -0.7460  -0.5533  -0.3934  -0.3246
    -0.1592  -0.0373   0.0044   0.0337   0.0747   0.1272   0.1543   0.4809
     0.8652   0.8947   0.9022   0.9129   0.9463   1.1379   1.1772   1.3176
     1.4490   1.4627   1.5357   1.5603   1.6327   1.6394   1.7185   1.7955
     1.8169   1.8473   1.9065   1.9120   2.0974   2.1463   2.1892   2.1981
     2.2233   2.2904   2.3009   2.3209   2.4197   2.4804   2.5534   2.5653
     2.5982   2.6109   2.6257   2.6551   2.7163   2.7606   2.7729   2.8117
     2.8254   2.8335   2.8610   2.9537   3.0046   3.0524   3.0910   3.1016
     3.1216   3.1702   3.1872   3.1874   3.2294   3.2498   3.2593   3.2693
     3.3160   3.4410   3.4727   3.5399   3.5424   3.5617   3.5915   3.6130
     3.6192   3.6424   3.6495   3.6571   3.6983   3.7153   3.7719   3.8015
     3.8083   3.8215   3.8725   3.8878   3.9020   3.9097   3.9230   3.9307
     4.0107   4.0371   4.0497   4.0604   4.0618   4.1230   4.1288   4.1690
     4.2100   4.2414   4.2739   4.2945   4.3080   4.3634   4.4778   4.5259
     4.5450   4.5796   4.6045   4.6167   4.6461   4.6511   4.6787   4.7385
     4.7454   4.7762   4.7873   4.8135   4.8191   4.8605   4.9118   4.9307
     4.9445   4.9696   4.9864   4.9938   5.0211   5.0311   5.0723   5.0813
     5.1167   5.1233   5.1254   5.1318   5.1653   5.1948   5.2073   5.2409
     5.2450   5.2507   5.3415   5.3461   5.3612   5.4030   5.4341   5.4348
     5.4352   5.4742   5.4905   5.5118   5.5474   5.5531   5.5864   5.6486
     5.6641   5.6653   5.7053   5.7198   5.7891   5.8053   5.8338   5.8658
     5.8712   5.9081   5.9205   5.9225   5.9479   5.9564   5.9916   5.9920
     6.0398   6.0452   6.0459   6.0571   6.0712   6.0848   6.1416   6.1583
     6.1668   6.1758   6.1883   6.1904   6.2124   6.2219   6.2425   6.2580
     6.2774   6.2800   6.2824   6.3164   6.3402   6.3417   6.3578   6.3595
     6.3631   6.3992   6.4167   6.4302   6.4417   6.4799   6.5073   6.5837
     6.6163   6.6220   6.6304   6.6728   6.6900   6.7077   6.7145   6.7706
     6.7894   6.7969   6.8056   6.8210   6.8311   6.8479   6.8643   6.8824
     6.9005   6.9327   6.9565   6.9717   7.0005   7.0102   7.0171   7.0216
     7.0236   7.0469   7.0700   7.0742   7.0890   7.1020   7.1031   7.1096
     7.1365   7.1413   7.1640   7.1742   7.2360   7.2501   7.2643   7.2903
     7.3585   7.3870   7.4227   7.4263   7.4335   7.4656   7.4662   7.4961
     7.4964   7.4991   7.5047   7.5263   7.5355   7.5574   7.5695   7.6217
     7.6313   7.6619   7.6717   7.7285   7.7487   7.7511   7.7592   7.7861
     7.7896   7.8285   7.8646   7.8651   7.8711   7.8962   7.8995   7.9357
     7.9555   7.9600   8.0095   8.0182   8.0411   8.0528   8.0626   8.0652
     8.0772   8.0949   8.1118   8.1122   8.1339   8.1402   8.1478   8.1524
     8.2247   8.2391   8.2437   8.2559   8.2569   8.2800   8.2818   8.3033
     8.3155   8.3292   8.3414   8.3686   8.3784   8.3809   8.3910   8.4260
     8.4349   8.4595   8.4598   8.5185   8.5208   8.5285   8.5515   8.5603
     8.5624   8.5784   8.5943   8.6088   8.6131   8.6171   8.6402   8.6477
     8.6500   8.6604   8.6784   8.6942

          k = 0.0000 0.0000-0.0293 (147164 PWs)   bands (ev):

   -21.5867 -21.5220 -21.1637 -21.0065 -20.8395 -20.8021 -20.5124 -20.4124
   -20.2846 -20.2243 -19.6973 -19.6406 -19.5306 -19.3718 -19.3205 -19.2716
   -18.9035 -18.8819 -18.6188 -18.6062 -18.3966 -18.3622 -18.1415 -17.9350
   -17.4878 -17.4040 -17.3388 -17.2835 -17.2214 -17.1591 -17.1332 -16.9234
   -16.8012 -16.7741 -16.5621 -16.3841 -16.1556 -16.0815 -16.0412 -15.5872
   -15.0372 -15.0252 -14.8505 -14.7237 -14.4051 -14.3638 -14.3211 -14.2461
   -14.1498 -14.0851 -14.0819 -14.0382 -14.0180 -13.8151 -13.7677 -13.4445
   -13.1328 -12.9035 -12.8494 -12.3435 -12.2849 -12.2711 -12.0781 -12.0548
   -11.8936 -11.7488 -11.6837 -11.6046 -11.4141 -11.3117 -11.2326 -11.2121
   -11.1990 -11.1344 -10.9920 -10.7398 -10.7120 -10.6154 -10.1957 -10.0787
   -10.0427 -10.0064  -9.9205  -9.9087  -9.8722  -9.7590  -9.7191  -9.6448
    -9.5805  -9.5198  -9.4216  -9.3813  -9.2500  -9.1896  -9.1777  -9.1626
    -9.1456  -8.9895  -8.9382  -8.9277  -8.8879  -8.7734  -8.7569  -8.7257
    -8.5999  -8.5755  -8.5576  -8.5030  -8.4946  -8.4224  -8.3096  -8.2643
    -8.2640  -8.2525  -8.1516  -8.0961  -8.0566  -8.0354  -7.9622  -7.8722
    -7.8058  -7.7450  -7.7158  -7.6106  -7.5924  -7.4690  -7.4505  -7.4353
    -7.3854  -7.3030  -7.2749  -7.0557  -7.0368  -7.0134  -6.9908  -6.8534
    -6.6860  -6.5836  -6.5465  -6.5188  -6.4659  -6.3948  -6.3166  -6.3104
    -6.0989  -5.9844  -5.8920  -5.8415  -5.8154  -5.8094  -5.7316  -5.6234
    -5.1049  -5.0030  -4.9945  -4.9798  -4.9394  -4.9264  -4.9261  -4.7820
    -4.4409  -4.4210  -4.3532  -3.9090  -3.7482  -3.6698  -3.5183  -3.0780
    -1.5766  -1.1081  -0.9758  -0.8749  -0.7460  -0.5545  -0.3760  -0.3377
    -0.1642  -0.0186   0.0167   0.0431   0.0453   0.1179   0.1517   0.4805
     0.8687   0.8908   0.9032   0.9158   0.9430   1.1404   1.1743   1.3284
     1.4376   1.4665   1.5365   1.5617   1.6310   1.6382   1.7150   1.8024
     1.8243   1.8471   1.8994   1.9045   2.1017   2.1580   2.1824   2.1897
     2.2418   2.2738   2.2998   2.3197   2.4225   2.4775   2.5713   2.5819
     2.5937   2.6093   2.6138   2.6411   2.7161   2.7622   2.7750   2.8091
     2.8231   2.8322   2.8577   2.9938   3.0054   3.0184   3.0932   3.1065
     3.1209   3.1666   3.1965   3.1995   3.2322   3.2449   3.2464   3.2663
     3.3020   3.4463   3.4772   3.5428   3.5463   3.5651   3.5872   3.6117
     3.6173   3.6467   3.6491   3.6543   3.6921   3.7151   3.7877   3.8032
     3.8034   3.8286   3.8519   3.8902   3.8993   3.9046   3.9239   3.9279
     4.0120   4.0361   4.0485   4.0600   4.0881   4.1035   4.1527   4.1745
     4.1778   4.2589   4.2672   4.2901   4.2953   4.3623   4.4790   4.5634
     4.5637   4.5736   4.6003   4.6040   4.6319   4.6331   4.7034   4.7179
     4.7396   4.7842   4.7960   4.8108   4.8211   4.8707   4.9032   4.9187
     4.9465   4.9608   4.9860   4.9954   5.0320   5.0376   5.0626   5.0869
     5.1114   5.1211   5.1334   5.1503   5.1581   5.1990   5.2041   5.2243
     5.2475   5.2502   5.3356   5.3410   5.3668   5.4148   5.4267   5.4293
     5.4566   5.4785   5.4930   5.5182   5.5302   5.5318   5.5858   5.6494
     5.6611   5.6660   5.7055   5.7241   5.8129   5.8165   5.8316   5.8645
     5.8763   5.8898   5.9114   5.9240   5.9457   5.9519   6.0115   6.0140
     6.0155   6.0206   6.0504   6.0518   6.0790   6.0830   6.1408   6.1577
     6.1624   6.1910   6.2028   6.2126   6.2202   6.2245   6.2329   6.2548
     6.2664   6.2721   6.2874   6.3205   6.3378   6.3380   6.3398   6.3442
     6.3542   6.4025   6.4177   6.4330   6.4402   6.4754   6.5046   6.5965
     6.6206   6.6340   6.6373   6.6552   6.6997   6.7040   6.7145   6.7707
     6.7850   6.7969   6.8119   6.8175   6.8296   6.8407   6.8625   6.8849
     6.9161   6.9478   6.9588   6.9686   6.9716   7.0175   7.0261   7.0338
     7.0539   7.0593   7.0625   7.0661   7.0846   7.0887   7.0898   7.0965
     7.1366   7.1418   7.1601   7.1659   7.2355   7.2522   7.2546   7.3199
     7.3291   7.3865   7.4244   7.4282   7.4299   7.4715   7.4825   7.4915
     7.5030   7.5040   7.5126   7.5206   7.5301   7.5465   7.5695   7.6090
     7.6477   7.6523   7.6692   7.7378   7.7492   7.7540   7.7629   7.7833
     7.7965   7.7991   7.8759   7.8930   7.8954   7.9008   7.9015   7.9051
     7.9265   7.9651   8.0145   8.0283   8.0514   8.0550   8.0617   8.0632
     8.0888   8.0923   8.0957   8.1130   8.1279   8.1334   8.1343   8.1587
     8.2276   8.2409   8.2504   8.2544   8.2584   8.2799   8.2845   8.3143
     8.3210   8.3256   8.3401   8.3487   8.3721   8.3794   8.3845   8.4434
     8.4502   8.4526   8.4651   8.4997   8.5212   8.5345   8.5452   8.5725
     8.5732   8.5849   8.5875   8.5993   8.6077   8.6192   8.6384   8.6440
     8.6516   8.6516   8.6760   8.6836

     the Fermi energy is    -2.8291 ev

     Writing output data file LS9_2_9_2.save/

     init_run     :     20.64s CPU     21.42s WALL (       1 calls)
     electrons    :  10641.00s CPU  10722.30s WALL (       1 calls)

     Called by init_run:
     wfcinit      :      0.00s CPU      0.00s WALL (       1 calls)
     potinit      :      1.17s CPU      1.36s WALL (       1 calls)
     hinit0       :     16.19s CPU     16.28s WALL (       1 calls)

     Called by electrons:
     c_bands      :  10640.99s CPU  10722.27s WALL (       1 calls)
     v_of_rho     :      0.85s CPU      0.92s WALL (       1 calls)
     newd         :      0.73s CPU      1.14s WALL (       1 calls)

     Called by c_bands:
     init_us_2    :      0.77s CPU      0.90s WALL (      26 calls)
     cegterg      :  10370.49s CPU  10445.39s WALL (      52 calls)

     Called by sum_band:

     Called by *egterg:
     h_psi        :   3462.62s CPU   3499.32s WALL (    1090 calls)
     s_psi        :    332.95s CPU    333.29s WALL (    1090 calls)
     g_psi        :     15.61s CPU     15.64s WALL (    1012 calls)
     cdiaghg      :   2990.22s CPU   2993.28s WALL (    1038 calls)

     Called by h_psi:
     h_psi:pot    :   3455.37s CPU   3487.88s WALL (    1090 calls)
     h_psi:calbec :    407.91s CPU    412.35s WALL (    1090 calls)
     vloc_psi     :   2714.32s CPU   2741.80s WALL (    1090 calls)
     add_vuspsi   :    333.12s CPU    333.68s WALL (    1090 calls)

     General routines
     calbec       :    407.91s CPU    412.35s WALL (    1090 calls)
     fft          :      1.01s CPU      1.08s WALL (      14 calls)
     ffts         :      0.02s CPU      0.02s WALL (       1 calls)
     fftw         :   2563.91s CPU   2590.61s WALL (  528104 calls)
     interpolate  :      0.08s CPU      0.09s WALL (       1 calls)
     davcio       :      0.01s CPU      6.70s WALL (      52 calls)

     Parallel routines
     fft_scatt_xy :    185.77s CPU    186.55s WALL (  528119 calls)
     fft_scatt_yz :   1777.58s CPU   1801.33s WALL (  528119 calls)

     PWSCF        :     2h58m CPU       58h 3m WALL

       6h

   This run was terminated on:   5:49: 6  23Apr2021            

=------------------------------------------------------------------------------=
   JOB DONE.
=------------------------------------------------------------------------------=
