
     Program PWSCF v.6.3 starts on 19Apr2021 at 22:59:24 

     This program is part of the open-source Quantum ESPRESSO suite
     for quantum simulation of materials; please cite
         "P. Giannozzi et al., J. Phys.:Condens. Matter 21 395502 (2009);
         "P. Giannozzi et al., J. Phys.:Condens. Matter 29 465901 (2017);
          URL http://www.quantum-espresso.org", 
     in publications or presentations arising from this work. More details at
     http://www.quantum-espresso.org/quote

     Parallel version (MPI), running on    16 processors
     R & G space division:  proc/nbgrp/npool/nimage =      16
     Waiting for input...
     Reading input from standard input
     Message from routine read_cards :
     DEPRECATED: no units specified in CELL_PARAMETERS card

     Current dimensions of program PWSCF are:
     Max number of different atomic species (ntypx) = 10
     Max number of k-points (npk) =  40000
     Max angular momentum in pseudopotentials (lmaxx) =  3

     Atomic positions and unit cell read from directory:
     /home/zfwang/scratch/GNRDATASET/AGNR/F9/F9.save/


     Subspace diagonalization in iterative solution of the eigenvalue problem:
     a serial algorithm will be used


     Parallelization info
     --------------------
     sticks:   dense  smooth     PW     G-vecs:    dense   smooth      PW
     Min        1868     621    175                69960    13464    2017
     Max        1869     623    177                69961    13465    2018
     Sum       29899    9963   2817              1119371   215439   32281



     bravais-lattice index     =            0
     lattice parameter (alat)  =       1.8897  a.u.
     unit-cell volume          =    6304.4156 (a.u.)^3
     number of atoms/cell      =           22
     number of atomic types    =            2
     number of electrons       =       100.00
     number of Kohn-Sham states=          500
     kinetic-energy cutoff     =      40.0000  Ry
     charge density cutoff     =     480.0000  Ry
     Exchange-correlation      = PBE ( 1  4  3  4 0 0)

     celldm(1)=  18.897261  celldm(2)=   2.193000  celldm(3)=   0.426000
     celldm(4)=   0.000000  celldm(5)=   0.000000  celldm(6)=   0.000000

     crystal axes: (cart. coord. in units of alat)
               a(1) = (  10.000000   0.000000   0.000000 )  
               a(2) = (   0.000000  21.930000   0.000000 )  
               a(3) = (   0.000000   0.000000   4.260000 )  

     reciprocal axes: (cart. coord. in units 2 pi/alat)
               b(1) = (  0.100000  0.000000  0.000000 )  
               b(2) = (  0.000000  0.045600  0.000000 )  
               b(3) = (  0.000000  0.000000  0.234742 )  


     PseudoPot. # 1 for C  read from file:
     /home/zfwang/hp_home/MySoftware/qe-6.3/pseudo/C.pbe-n-rrkjus_psl.0.1.UPF
     MD5 check sum: fff530ed632a789b3b184014e67dd7f1
     Pseudo is Ultrasoft + core correction, Zval =  4.0
     Generated using "atomic" code by A. Dal Corso v.5.0.2 svn rev. 9415
     Using radial grid of 1073 points,  4 beta functions with: 
                l(1) =   0
                l(2) =   0
                l(3) =   1
                l(4) =   1
     Q(r) pseudized with 0 coefficients 


     PseudoPot. # 2 for F  read from file:
     /home/zfwang/hp_home/MySoftware/qe-6.3/pseudo/F.pbe-n-rrkjus_psl.0.1.UPF
     MD5 check sum: 147397eca92fbb10e5415488e6f13084
     Pseudo is Ultrasoft + core correction, Zval =  7.0
     Generated using "atomic" code by A. Dal Corso v.5.0.2 svn rev. 9415
     Using radial grid of 1105 points,  4 beta functions with: 
                l(1) =   0
                l(2) =   0
                l(3) =   1
                l(4) =   1
     Q(r) pseudized with 0 coefficients 


     atomic species   valence    mass     pseudopotential
        C              4.00    12.01070     C ( 1.00)
        F              7.00    18.99840     F ( 1.00)

     No symmetry found



   Cartesian axes

     site n.     atom                  positions (alat units)
         1           C   tau(   1) = (   5.0000013   6.0985505   2.8060811  )
         2           C   tau(   2) = (   4.9999990   7.2716773   3.5524330  )
         3           C   tau(   3) = (   5.0000023   6.0985502   1.4539179  )
         4           C   tau(   4) = (   4.9999974   8.4995778   2.8379562  )
         5           C   tau(   5) = (   4.9999977   9.7363141   3.5512634  )
         6           C   tau(   6) = (   5.0000006   7.2716781   0.7075671  )
         7           C   tau(   7) = (   4.9999984   8.4995774   1.4220454  )
         8           C   tau(   8) = (   4.9999975  10.9649620   2.8436082  )
         9           C   tau(   9) = (   4.9999988  12.1935869   3.5512743  )
        10           C   tau(  10) = (   4.9999978   9.7363145   0.7087388  )
        11           C   tau(  11) = (   4.9999971  10.9649617   1.4163927  )
        12           C   tau(  12) = (   4.9999999  13.4303781   2.8378768  )
        13           C   tau(  13) = (   5.0000003  14.6583184   3.5525321  )
        14           C   tau(  14) = (   4.9999985  12.1935861   0.7087252  )
        15           C   tau(  15) = (   5.0000003  13.4303799   1.4221227  )
        16           C   tau(  16) = (   5.0000005  15.8315494   2.8059465  )
        17           C   tau(  17) = (   5.0000016  14.6583164   0.7074677  )
        18           C   tau(  18) = (   5.0000029  15.8315505   1.4540547  )
        19           F   tau(  19) = (   5.0000023   4.8353255   3.2310952  )
        20           F   tau(  20) = (   5.0000024   4.8353262   1.0289018  )
        21           F   tau(  21) = (   4.9999982  17.0947609   3.2310962  )
        22           F   tau(  22) = (   5.0000058  17.0947602   1.0289048  )

     number of k points=    26  Marzari-Vanderbilt smearing, width (Ry)=  0.0100
                       cart. coord. in units 2pi/alat
        k(    1) = (   0.0000000   0.0000000   0.0000000), wk =   0.0400000
        k(    2) = (   0.0000000   0.0000000   0.0046948), wk =   0.0800000
        k(    3) = (   0.0000000   0.0000000   0.0093897), wk =   0.0800000
        k(    4) = (   0.0000000   0.0000000   0.0140845), wk =   0.0800000
        k(    5) = (   0.0000000   0.0000000   0.0187793), wk =   0.0800000
        k(    6) = (   0.0000000   0.0000000   0.0234742), wk =   0.0800000
        k(    7) = (   0.0000000   0.0000000   0.0281690), wk =   0.0800000
        k(    8) = (   0.0000000   0.0000000   0.0328638), wk =   0.0800000
        k(    9) = (   0.0000000   0.0000000   0.0375587), wk =   0.0800000
        k(   10) = (   0.0000000   0.0000000   0.0422535), wk =   0.0800000
        k(   11) = (   0.0000000   0.0000000   0.0469484), wk =   0.0800000
        k(   12) = (   0.0000000   0.0000000   0.0516432), wk =   0.0800000
        k(   13) = (   0.0000000   0.0000000   0.0563380), wk =   0.0800000
        k(   14) = (   0.0000000   0.0000000   0.0610329), wk =   0.0800000
        k(   15) = (   0.0000000   0.0000000   0.0657277), wk =   0.0800000
        k(   16) = (   0.0000000   0.0000000   0.0704225), wk =   0.0800000
        k(   17) = (   0.0000000   0.0000000   0.0751174), wk =   0.0800000
        k(   18) = (   0.0000000   0.0000000   0.0798122), wk =   0.0800000
        k(   19) = (   0.0000000   0.0000000   0.0845070), wk =   0.0800000
        k(   20) = (   0.0000000   0.0000000   0.0892019), wk =   0.0800000
        k(   21) = (   0.0000000   0.0000000   0.0938967), wk =   0.0800000
        k(   22) = (   0.0000000   0.0000000   0.0985915), wk =   0.0800000
        k(   23) = (   0.0000000   0.0000000   0.1032864), wk =   0.0800000
        k(   24) = (   0.0000000   0.0000000   0.1079812), wk =   0.0800000
        k(   25) = (   0.0000000   0.0000000   0.1126761), wk =   0.0800000
        k(   26) = (   0.0000000   0.0000000  -0.1173709), wk =   0.0400000

     Dense  grid:  1119371 G-vectors     FFT dimensions: ( 135, 300,  60)

     Smooth grid:   215439 G-vectors     FFT dimensions: (  80, 180,  36)

     Estimated max dynamical RAM per process >     378.73 MB

     Estimated total dynamical RAM >       5.92 GB

     Check: negative/imaginary core charge=   -0.000006    0.000000

     The potential is recalculated from file :
     /home/zfwang/scratch/GNRDATASET/AGNR/F9/F9.save/charge-density.dat


     negative rho (up, down):  1.843E-03 0.000E+00
     Starting wfcs are   88 randomized atomic wfcs +  412 random wfcs

     Band Structure Calculation
     Davidson diagonalization with overlap

     ethr =  1.00E-08,  avg # of iterations = 16.0

     total cpu time spent up to now is     2035.4 secs

     End of band structure calculation

          k = 0.0000 0.0000 0.0000 ( 26841 PWs)   bands (ev):

   -29.9300 -29.9292 -28.3492 -28.3483 -21.7527 -21.3191 -20.3853 -19.0392
   -17.5268 -16.5343 -16.4016 -16.2159 -15.9023 -15.4313 -15.3013 -15.2466
   -14.2499 -13.1835 -13.1031 -12.9252 -12.4397 -12.2575 -11.7897 -11.1293
   -10.8937 -10.8676 -10.6644 -10.6433  -9.6645  -9.6346  -9.5807  -9.5535
    -8.7407  -8.5680  -8.3564  -8.3555  -7.8915  -7.6292  -7.6122  -6.7127
    -6.2745  -6.2302  -5.8012  -5.7656  -5.6690  -4.6468  -4.4385  -3.7966
    -3.0962  -2.6853  -1.8353  -1.1375  -1.0759  -0.7277   0.8392   0.8523
     1.1241   1.5018   2.2001   2.3843   2.5127   2.7518   2.8537   3.0063
     3.0326   3.2151   3.6449   3.7294   3.8688   3.9489   4.0161   4.1740
     4.3410   4.7650   5.0181   5.2881   5.4321   5.4628   5.5782   5.9453
     6.0848   6.0881   6.1568   6.1985   6.3012   6.4107   7.1957   7.2370
     7.3513   7.4227   7.7550   7.8032   7.8235   7.8451   8.0874   8.3049
     8.3201   8.3814   8.4695   8.5191   8.6598   8.6654   8.7554   8.8579
     8.9095   8.9812   9.0368   9.0835   9.1099   9.1933   9.2934   9.2988
     9.3058   9.4813   9.5598   9.5808   9.8981   9.9324  10.0240  10.0243
    10.2500  10.3005  10.3915  10.4045  10.4258  10.4743  10.5532  10.5557
    10.5981  10.6577  10.6644  10.7149  10.7590  10.8395  10.8756  10.9240
    10.9300  11.0834  11.2778  11.3206  11.3647  11.3725  11.4857  11.5143
    11.5900  11.6174  11.6973  11.7722  11.8337  11.8487  11.9246  12.0577
    12.0795  12.1733  12.2090  12.3128  12.3413  12.4423  12.4891  12.4907
    12.5525  12.6999  12.7792  12.8220  12.9124  13.1286  13.2087  13.4626
    13.5211  13.5622  13.5837  13.6349  13.6398  13.6683  13.8614  13.8749
    13.9227  13.9819  14.0286  14.2194  14.3285  14.4524  14.5176  14.5237
    14.6571  14.7455  14.7552  14.9620  15.0410  15.0959  15.4434  15.4626
    15.5690  15.6249  15.6255  15.6283  15.6917  15.6964  15.8861  15.9173
    15.9364  15.9440  15.9974  16.1423  16.2003  16.2194  16.2517  16.2759
    16.4058  16.4193  16.4705  16.6343  16.7228  16.7393  16.7949  16.8356
    16.8542  16.9515  16.9956  17.0292  17.0641  17.1136  17.1642  17.1963
    17.2117  17.2689  17.2874  17.3245  17.3492  17.3624  17.3832  17.4853
    17.5820  17.6571  17.7234  17.8085  17.9412  18.1637  18.2365  18.3609
    18.3624  18.4021  18.4240  18.4293  18.5815  18.6269  18.6752  18.7978
    18.9079  18.9384  18.9921  19.0073  19.0496  19.0717  19.0967  19.1792
    19.3549  19.5551  19.6363  19.6998  19.7118  19.8133  19.8580  20.2204
    20.2274  20.3130  20.3130  20.4345  20.4468  20.4650  20.4932  20.5647
    20.5940  20.6025  20.7185  20.7271  20.8282  20.8528  20.9019  20.9258
    20.9596  21.1154  21.1413  21.1661  21.2703  21.3087  21.4866  21.5024
    21.5353  21.6137  21.7375  21.8837  21.8892  21.9216  22.0099  22.0785
    22.1478  22.1627  22.2111  22.2699  22.3909  22.3970  22.4747  22.5380
    22.6244  22.7894  22.8093  22.8220  22.8880  22.9009  22.9185  22.9382
    23.0324  23.1293  23.1318  23.2847  23.2927  23.3212  23.4144  23.6471
    23.7962  23.8395  23.9413  24.0447  24.1087  24.1271  24.2194  24.2253
    24.2905  24.2926  24.3059  24.3823  24.3827  24.4115  24.4136  24.6757
    24.7529  24.8137  24.8146  24.9822  25.0261  25.0608  25.1465  25.1930
    25.3613  25.4372  25.5957  25.6325  25.7044  25.7118  25.7524  25.8281
    25.8611  25.9185  25.9796  26.0031  26.0523  26.1127  26.3207  26.3533
    26.4098  26.4122  26.5224  26.6121  26.6397  26.6582  26.7211  26.7573
    26.8583  26.8980  26.9423  26.9711  27.1335  27.1867  27.2587  27.2762
    27.3176  27.3998  27.6141  27.6819  27.7923  27.8197  28.0085  28.1908
    28.2326  28.2895  28.2965  28.3531  28.4008  28.4431  28.4498  28.4506
    28.4601  28.5022  28.5406  28.5982  28.7104  28.7230  28.7530  28.9141
    28.9403  28.9794  29.0157  29.1269  29.1781  29.2012  29.2265  29.2398
    29.3638  29.4173  29.4402  29.4653  29.7431  29.9472  29.9570  30.2206
    30.2340  30.3428  30.3667  30.3886  30.4576  30.6142  30.6297  30.7473
    30.7755  30.8971  31.0540  31.0692  31.1167  31.1882  31.2818  31.3268
    31.4052  31.4401  31.4795  31.4912  31.5755  31.7786  31.8166  31.8917
    31.9244  31.9436  31.9515  32.0966  32.1673  32.2155  32.2315  32.2579
    32.2991  32.4349  32.4670  32.4822  32.5197  32.7196  32.7426  32.9977
    33.1463  33.1694  33.1949  33.2313  33.3254  33.3322  33.3856  33.6327
    33.6471  33.6511  33.6706  33.7127  33.7224  33.8173  33.8589  33.9152
    33.9167  34.0890  34.1100  34.1164  34.1567  34.1878  34.2555  34.2574
    34.2750  34.3174  34.3269  34.3486  34.3802  34.4269  34.4738  34.5050
    34.5158  34.5732  34.6182  34.6428  34.6957  34.8662  34.9059  34.9121
    34.9640  35.0763  35.0858  35.0914

          k = 0.0000 0.0000 0.0047 ( 26857 PWs)   bands (ev):

   -29.9287 -29.9280 -28.3511 -28.3501 -21.7504 -21.3168 -20.3831 -19.0371
   -17.5255 -16.5826 -16.4403 -16.2073 -15.8803 -15.4770 -15.2713 -15.1763
   -14.2635 -13.1722 -13.1082 -12.9248 -12.4315 -12.2476 -11.7966 -11.1275
   -10.8867 -10.8694 -10.6626 -10.6415  -9.6583  -9.6502  -9.5693  -9.5509
    -8.7384  -8.5618  -8.3586  -8.3577  -7.9046  -7.6270  -7.6058  -6.7199
    -6.2795  -6.2282  -5.8191  -5.7576  -5.6695  -4.6460  -4.4546  -3.8157
    -3.1017  -2.7236  -1.7961  -1.1177  -1.0699  -0.7080   0.8424   0.8482
     1.1271   1.5049   2.2031   2.3873   2.5159   2.7544   2.8568   3.0088
     3.0262   3.2183   3.6481   3.7324   3.8720   3.9521   4.0192   4.1768
     4.3440   4.7669   5.0199   5.2796   5.4370   5.4665   5.5732   5.9485
     6.0643   6.0926   6.1689   6.2006   6.3088   6.4126   7.1769   7.2291
     7.3554   7.4266   7.7326   7.8063   7.8210   7.8555   8.0906   8.3076
     8.3176   8.3840   8.4738   8.5212   8.6517   8.6534   8.6652   8.7449
     8.8612   9.0317   9.0822   9.0897   9.1132   9.1705   9.2453   9.2921
     9.3995   9.4333   9.5529   9.7261   9.7379   9.8032  10.0630  10.1478
    10.2552  10.2615  10.2896  10.2992  10.4283  10.5239  10.5322  10.5905
    10.6148  10.6466  10.7501  10.7807  10.8206  10.8576  10.8607  10.9216
    10.9885  11.0443  11.2506  11.2784  11.2903  11.3234  11.3671  11.4665
    11.4769  11.7045  11.7126  11.7915  11.8295  11.9537  11.9978  12.0346
    12.0430  12.1219  12.2088  12.2661  12.3690  12.5141  12.5186  12.5611
    12.5764  12.6702  12.8030  12.9497  12.9981  13.1959  13.2249  13.3509
    13.4522  13.5186  13.5442  13.6402  13.6406  13.6669  13.8687  13.9376
    13.9462  13.9541  14.1300  14.2163  14.2325  14.3224  14.4324  14.6962
    14.7281  14.7939  14.8501  14.9951  15.0491  15.1597  15.3948  15.4373
    15.4891  15.5109  15.6005  15.6273  15.7522  15.7559  15.7577  15.9038
    15.9401  15.9448  15.9747  16.1217  16.1566  16.2320  16.2657  16.3260
    16.4453  16.4600  16.4755  16.5960  16.6391  16.7264  16.7375  16.8306
    16.8852  16.9318  16.9778  17.0014  17.1068  17.1348  17.1830  17.1831
    17.1890  17.2392  17.2482  17.3632  17.4002  17.4029  17.4792  17.5687
    17.5886  17.7144  17.7931  17.9143  17.9631  18.1542  18.2131  18.3037
    18.3204  18.3327  18.3632  18.4320  18.4552  18.5330  18.7512  18.7881
    18.9152  18.9566  18.9622  19.0744  19.0974  19.1257  19.1551  19.2317
    19.3598  19.6104  19.6306  19.7207  19.7878  19.8589  19.8873  20.1787
    20.1915  20.1956  20.2868  20.3128  20.4426  20.5000  20.5074  20.5599
    20.5707  20.6409  20.6609  20.8295  20.8527  20.8774  20.9424  20.9585
    20.9868  21.0521  21.1404  21.2428  21.2963  21.3149  21.4678  21.4861
    21.5937  21.6124  21.7461  21.8632  21.8849  21.9297  22.0033  22.0234
    22.1021  22.1465  22.1747  22.2139  22.3913  22.4110  22.4859  22.6112
    22.7189  22.7546  22.7952  22.8442  22.8965  22.9077  22.9529  22.9680
    22.9708  23.0549  23.2893  23.2952  23.3122  23.3279  23.4178  23.4833
    23.7678  23.9254  23.9258  23.9450  24.0803  24.1695  24.1971  24.2007
    24.2654  24.2774  24.3217  24.3493  24.3883  24.4334  24.4711  24.7021
    24.7325  24.7817  24.9687  24.9854  25.0067  25.0219  25.1651  25.2421
    25.3640  25.4662  25.4914  25.6390  25.6746  25.7044  25.7724  25.8490
    25.8595  25.8698  25.9783  26.0116  26.0873  26.2534  26.2961  26.3374
    26.3679  26.4358  26.4405  26.6263  26.6267  26.6277  26.7296  26.8372
    26.8887  26.9053  26.9566  27.0055  27.0378  27.1336  27.2120  27.3244
    27.4622  27.5176  27.6482  27.6733  27.7955  27.8221  27.9983  28.1710
    28.1727  28.2834  28.2967  28.3260  28.3298  28.3408  28.3611  28.3832
    28.4425  28.4702  28.5125  28.5924  28.6776  28.6881  28.8450  28.9132
    28.9904  29.0078  29.0486  29.0520  29.1403  29.2809  29.2824  29.3624
    29.4199  29.4657  29.4786  29.5606  29.6599  29.8183  30.1235  30.1894
    30.2747  30.3582  30.3717  30.4292  30.4924  30.5936  30.6112  30.6467
    30.8063  31.0129  31.0264  31.0557  31.1273  31.1804  31.1994  31.3072
    31.3361  31.3893  31.4464  31.4862  31.7034  31.7270  31.7624  31.8316
    31.9267  32.0368  32.0649  32.1008  32.1094  32.1295  32.2945  32.3292
    32.3672  32.4128  32.4332  32.5037  32.6473  32.7232  32.7454  32.8559
    33.1475  33.1909  33.2004  33.2498  33.2607  33.2765  33.3657  33.4093
    33.4652  33.6575  33.6858  33.7200  33.7728  33.8054  33.8095  33.8315
    33.9343  33.9867  34.0234  34.1307  34.1399  34.1535  34.1821  34.2416
    34.2452  34.2607  34.3255  34.3281  34.3707  34.4089  34.5232  34.5848
    34.5852  34.6144  34.6406  34.7517  34.8429  34.8571  34.8653  34.9071
    34.9431  34.9650  34.9810  35.1176

          k = 0.0000 0.0000 0.0094 ( 26869 PWs)   bands (ev):

   -29.9250 -29.9242 -28.3564 -28.3555 -21.7434 -21.3099 -20.3764 -19.0307
   -17.5219 -16.7011 -16.5358 -16.1944 -15.8716 -15.5009 -15.1895 -15.0477
   -14.3018 -13.1401 -13.1295 -12.9155 -12.4074 -12.2198 -11.8166 -11.1234
   -10.8734 -10.8665 -10.6570 -10.6361  -9.6831  -9.6400  -9.5485  -9.5432
    -8.7314  -8.5436  -8.3654  -8.3644  -7.9398  -7.6203  -7.5901  -6.7410
    -6.2945  -6.2221  -5.8564  -5.7491  -5.6709  -4.6438  -4.5014  -3.8713
    -3.1181  -2.8225  -1.6946  -1.0746  -1.0371  -0.6497   0.8357   0.8519
     1.1363   1.5141   2.2122   2.3964   2.5255   2.7623   2.8660   3.0074
     3.0162   3.2279   3.6576   3.7413   3.8816   3.9620   4.0285   4.1851
     4.3532   4.7726   5.0252   5.2556   5.4506   5.4775   5.5588   5.9581
     6.0218   6.1033   6.1917   6.2067   6.3288   6.4169   7.1268   7.2056
     7.3675   7.4383   7.6684   7.8158   7.8178   7.8728   8.1001   8.2966
     8.3154   8.3918   8.3941   8.4865   8.5271   8.6252   8.6274   8.6953
     8.8698   8.9542   9.0174   9.0733   9.0756   9.1230   9.2555   9.3317
     9.4100   9.5193   9.5205   9.6114   9.6370   9.9022   9.9125  10.0821
    10.2488  10.2500  10.2594  10.3498  10.4382  10.5342  10.5455  10.5814
    10.6157  10.7585  10.7809  10.7956  10.8379  10.8739  10.8855  10.9050
    10.9893  11.0871  11.1189  11.1919  11.2042  11.2725  11.2734  11.3941
    11.4318  11.6472  11.7013  11.7248  11.8607  11.9598  11.9652  12.0210
    12.0573  12.1750  12.3114  12.3767  12.3800  12.5181  12.6622  12.6661
    12.6740  12.7107  12.9674  13.0652  13.1552  13.2019  13.2641  13.3037
    13.3484  13.4035  13.5087  13.6652  13.6658  13.6873  13.8386  13.8391
    14.0386  14.0614  14.0675  14.0705  14.3063  14.3509  14.4129  14.7421
    14.8054  14.9789  15.0238  15.0711  15.0903  15.2479  15.2746  15.3087
    15.4236  15.4628  15.4771  15.6492  15.6610  15.6842  15.7791  15.8634
    15.9342  15.9361  15.9591  16.0187  16.1759  16.2242  16.2542  16.3183
    16.3465  16.5121  16.5882  16.6169  16.6555  16.6617  16.7460  16.7491
    16.7994  16.8038  16.8466  16.9552  17.0802  17.0853  17.2137  17.2432
    17.3156  17.3777  17.4072  17.4297  17.4509  17.5441  17.6138  17.6356
    17.7262  17.7387  17.9805  18.0207  18.0597  18.0720  18.1284  18.2071
    18.2268  18.2548  18.3101  18.3194  18.3592  18.4386  18.6609  18.7960
    18.9161  19.0052  19.0535  19.0689  19.1991  19.2104  19.3051  19.4060
    19.4991  19.5896  19.6797  19.7612  19.8646  19.9000  20.0106  20.0224
    20.1194  20.1205  20.2246  20.3071  20.3463  20.4619  20.5515  20.5600
    20.5668  20.5731  20.7044  20.8567  20.8943  20.9008  20.9135  20.9974
    21.0970  21.1121  21.1861  21.3265  21.3460  21.3981  21.4293  21.4893
    21.6022  21.6879  21.7766  21.7898  21.8181  21.8685  21.9335  21.9502
    22.0940  22.0954  22.2021  22.2573  22.3221  22.4548  22.4635  22.6785
    22.6933  22.8051  22.8511  22.8588  22.8725  22.9081  22.9546  23.0125
    23.0260  23.1476  23.2171  23.3416  23.3442  23.3770  23.3862  23.4211
    23.6417  23.8774  23.9082  24.0017  24.0560  24.0840  24.1296  24.1562
    24.2212  24.2285  24.2417  24.3475  24.4815  24.5345  24.5847  24.5908
    24.8061  24.8422  24.9599  25.0074  25.0084  25.1019  25.1781  25.3891
    25.3929  25.4053  25.4305  25.6151  25.6242  25.6988  25.7021  25.8388
    25.8872  25.9149  26.0569  26.0753  26.1474  26.1588  26.2661  26.3494
    26.3709  26.3816  26.4444  26.5661  26.6673  26.7069  26.7230  26.7961
    26.8061  26.9475  27.0920  27.1201  27.1333  27.1674  27.2628  27.3306
    27.5253  27.5502  27.7180  27.8049  27.8283  27.8547  27.9936  28.0271
    28.0413  28.0855  28.1397  28.1730  28.2709  28.3065  28.3426  28.3455
    28.4286  28.4673  28.4857  28.5442  28.5640  28.5797  28.7841  28.7906
    28.9451  29.0879  29.1605  29.2565  29.2732  29.4110  29.4335  29.4660
    29.5034  29.5180  29.5636  29.5707  29.7898  29.8122  30.1150  30.1442
    30.3199  30.3514  30.3963  30.5077  30.5501  30.5938  30.6293  30.6871
    30.8753  30.9593  30.9911  31.0239  31.0441  31.1325  31.1857  31.2145
    31.2336  31.3602  31.4496  31.5680  31.5799  31.7462  31.8253  31.8611
    31.8668  31.8845  32.0993  32.1046  32.2261  32.2351  32.2988  32.3675
    32.3696  32.4552  32.5136  32.5695  32.6566  32.6645  32.7317  32.7528
    33.0546  33.0934  33.1249  33.2052  33.2175  33.2653  33.3241  33.3587
    33.4121  33.4736  33.5043  33.6709  33.6879  33.7436  33.7576  33.7599
    33.7875  33.8255  33.8422  33.9580  34.0514  34.1251  34.1859  34.2174
    34.2278  34.2455  34.2625  34.3250  34.3528  34.4138  34.4236  34.5311
    34.5504  34.5858  34.6506  34.7883  34.8390  34.9197  34.9317  34.9469
    34.9506  35.0145  35.0309  35.1041

          k = 0.0000 0.0000 0.0141 ( 26881 PWs)   bands (ev):

   -29.9188 -29.9180 -28.3654 -28.3645 -21.7316 -21.2984 -20.3652 -19.0201
   -17.5165 -16.8522 -16.6629 -16.1866 -15.9429 -15.4306 -15.0728 -14.9030
   -14.3584 -13.1748 -13.0918 -12.8851 -12.3689 -12.1784 -11.8474 -11.1204
   -10.8764 -10.8341 -10.6477 -10.6271  -9.7244  -9.6102  -9.5304  -9.5259
    -8.7196  -8.5151  -8.3764  -8.3755  -7.9903  -7.6091  -7.5724  -6.7754
    -6.3193  -6.2119  -5.9053  -5.7478  -5.6739  -4.6433  -4.5732  -3.9584
    -3.1450  -2.9557  -1.5570  -1.0467  -0.9444  -0.5558   0.8154   0.8677
     1.1516   1.5293   2.2274   2.4115   2.5415   2.7753   2.8809   2.9769
     3.0285   3.2439   3.6734   3.7561   3.8976   3.9783   4.0441   4.1989
     4.3684   4.7817   5.0339   5.2182   5.4709   5.4958   5.5368   5.9702
     5.9740   6.1208   6.2157   6.2191   6.3557   6.4199   7.0600   7.1670
     7.3874   7.4576   7.5701   7.7916   7.8315   7.8785   8.1159   8.1322
     8.3147   8.3215   8.4039   8.4357   8.5061   8.5349   8.5879   8.6940
     8.8183   8.8849   9.0300   9.0344   9.0505   9.1377   9.1924   9.2180
     9.2483   9.3419   9.5183   9.6164   9.6952   9.7404   9.8884  10.1774
    10.2615  10.2921  10.3119  10.3302  10.4551  10.5139  10.5477  10.5998
    10.6000  10.6581  10.7233  10.7477  10.8033  10.8204  10.8765  10.9155
    10.9553  10.9908  11.1206  11.1579  11.2022  11.2447  11.2874  11.4781
    11.4803  11.5281  11.5879  11.6592  11.7724  11.9066  11.9755  11.9866
    12.0961  12.3795  12.3957  12.4752  12.5091  12.6528  12.7038  12.7221
    12.7727  12.8032  13.0959  13.1072  13.1296  13.1771  13.2418  13.3480
    13.4918  13.4970  13.5838  13.6533  13.6629  13.6701  13.7863  13.8229
    13.9665  14.0110  14.1664  14.1678  14.3021  14.3479  14.5801  14.7551
    14.9294  15.0239  15.0296  15.0606  15.1143  15.1593  15.2618  15.3079
    15.3183  15.4772  15.5060  15.5841  15.6567  15.7199  15.7836  15.8130
    15.8152  15.9020  15.9548  16.0035  16.1955  16.1968  16.2541  16.2840
    16.3521  16.4602  16.4787  16.5163  16.6313  16.6349  16.6441  16.6587
    16.7157  16.8835  16.9051  16.9947  17.0121  17.0716  17.3340  17.3375
    17.4079  17.4110  17.4920  17.6289  17.6780  17.6851  17.7031  17.7609
    17.8070  17.8559  17.8701  17.9360  17.9730  17.9905  18.0480  18.1258
    18.2626  18.2893  18.3058  18.3575  18.4386  18.4899  18.5978  18.6185
    19.0498  19.0727  19.0893  19.2189  19.2713  19.2974  19.3959  19.5049
    19.5828  19.6541  19.7001  19.7792  19.8525  19.8629  19.8954  20.0143
    20.1501  20.2288  20.2792  20.3426  20.3683  20.3859  20.4610  20.5862
    20.5938  20.6334  20.7060  20.8247  20.8394  20.9345  20.9477  21.0094
    21.1188  21.1931  21.2912  21.3478  21.4089  21.4900  21.5025  21.5616
    21.5748  21.6427  21.6518  21.7598  21.8390  21.8394  21.8459  21.9688
    22.1063  22.1154  22.2279  22.2558  22.3475  22.5004  22.5274  22.6266
    22.6420  22.7704  22.7892  22.8594  22.8848  22.8864  23.0427  23.0465
    23.1027  23.1159  23.1831  23.3557  23.3656  23.4091  23.4120  23.4388
    23.6421  23.7829  23.9296  23.9714  24.0101  24.0136  24.0418  24.1634
    24.1877  24.2409  24.2529  24.3681  24.4684  24.4851  24.5242  24.6729
    24.8312  24.9457  24.9802  25.0143  25.0654  25.1355  25.1701  25.3057
    25.4409  25.4528  25.5390  25.5803  25.6081  25.6926  25.8124  25.8152
    25.8501  25.9031  26.0864  26.1029  26.1887  26.2037  26.2097  26.2365
    26.3497  26.3647  26.3913  26.5680  26.7233  26.7241  26.8060  26.8650
    27.0009  27.0143  27.1129  27.2051  27.2692  27.3079  27.3081  27.3390
    27.4990  27.5396  27.7933  27.7937  27.8219  27.8679  27.8979  27.9269
    27.9655  27.9744  27.9949  28.0040  28.2230  28.2540  28.3122  28.3561
    28.3824  28.4424  28.4529  28.4705  28.5067  28.6039  28.6127  28.8152
    28.8348  29.1205  29.1851  29.2719  29.5319  29.5467  29.5830  29.6035
    29.6252  29.6302  29.6902  29.7123  29.8374  29.9296  30.0386  30.0746
    30.3350  30.3440  30.4364  30.4512  30.6100  30.7201  30.7770  30.7892
    30.8023  30.8432  30.9113  30.9185  31.0405  31.1341  31.1664  31.2142
    31.2421  31.3463  31.3847  31.4299  31.6143  31.6871  31.8057  31.8189
    31.8560  31.9644  31.9988  32.0760  32.0867  32.1484  32.2342  32.3907
    32.4475  32.4847  32.5664  32.6086  32.7406  32.7476  32.7502  32.8155
    32.8199  32.9126  32.9419  33.0904  33.1698  33.2223  33.2841  33.3244
    33.3906  33.4187  33.4547  33.5347  33.5992  33.6023  33.6095  33.6742
    33.6769  33.6836  33.7085  33.8167  33.8442  33.8907  34.1861  34.1960
    34.2195  34.2504  34.2535  34.2707  34.2980  34.3966  34.3991  34.4246
    34.4441  34.4948  34.5322  34.5913  34.6763  34.6951  34.7171  34.7408
    34.8394  34.8764  34.8783  34.9638

          k = 0.0000 0.0000 0.0188 ( 26881 PWs)   bands (ev):

   -29.9101 -29.9094 -28.3778 -28.3769 -21.7152 -21.2823 -20.3495 -19.0053
   -17.5112 -17.0153 -16.8078 -16.1845 -16.0621 -15.3115 -14.9372 -14.7473
   -14.4248 -13.2417 -13.0322 -12.8315 -12.3193 -12.1274 -11.8852 -11.1241
   -10.8728 -10.7912 -10.6348 -10.6146  -9.7719  -9.5702  -9.5125  -9.5020
    -8.7033  -8.4785  -8.3916  -8.3907  -8.0506  -7.5934  -7.5582  -6.8219
    -6.3536  -6.1978  -5.9650  -5.7541  -5.6792  -4.6914  -4.6190  -4.0708
    -3.1819  -3.1059  -1.4007  -1.0173  -0.8150  -0.4306   0.7876   0.8899
     1.1731   1.5507   2.2486   2.4327   2.5640   2.7936   2.8973   2.9396
     3.0456   3.2663   3.6956   3.7768   3.9199   4.0010   4.0657   4.2183
     4.3894   4.7939   5.0456   5.1690   5.4971   5.5091   5.5212   5.9144
     5.9963   6.1447   6.2252   6.2525   6.3854   6.4169   6.9925   7.1139
     7.4151   7.4456   7.4840   7.6493   7.8535   7.8814   8.0212   8.1379
     8.1669   8.2791   8.3639   8.4176   8.5256   8.5300   8.5511   8.6971
     8.7025   8.8936   8.9397   8.9616   8.9823   9.0719   9.0806   9.1745
     9.2083   9.2483   9.3464   9.4635   9.5306   9.7821  10.0868  10.1657
    10.2295  10.2795  10.3047  10.3900  10.4644  10.4993  10.5078  10.5158
    10.5382  10.5762  10.6043  10.6587  10.7543  10.7859  10.8430  10.8864
    10.9250  10.9930  11.1186  11.2371  11.2451  11.2803  11.2953  11.3514
    11.3654  11.5882  11.6460  11.6521  11.7636  11.8122  11.9952  12.1251
    12.1682  12.3933  12.4546  12.4813  12.6320  12.7004  12.7172  12.7203
    12.8308  12.9745  13.0423  13.1670  13.1937  13.2649  13.3593  13.4024
    13.5232  13.6352  13.6416  13.6615  13.6865  13.7054  13.9002  13.9160
    13.9461  14.1432  14.1448  14.2589  14.3519  14.3541  14.6545  14.7704
    14.8708  14.8771  14.9277  15.0193  15.0588  15.1236  15.3041  15.3336
    15.3910  15.4364  15.4470  15.5092  15.7376  15.7987  15.8034  15.8116
    15.8550  15.9303  16.0368  16.0555  16.0946  16.1668  16.2475  16.2507
    16.3031  16.3123  16.3827  16.5163  16.5353  16.5454  16.6091  16.6296
    16.7330  16.7923  16.8960  17.0382  17.1107  17.2820  17.3676  17.3748
    17.4372  17.4908  17.5964  17.6566  17.7053  17.7096  17.7541  17.7606
    17.7611  17.8506  17.9565  17.9852  18.0020  18.0437  18.0579  18.0708
    18.1940  18.3592  18.4332  18.4530  18.5020  18.5100  18.6839  18.8218
    19.0467  19.1992  19.2115  19.2623  19.3549  19.3690  19.3885  19.4140
    19.5326  19.6702  19.7166  19.7377  19.9331  19.9468  19.9554  19.9766
    20.1366  20.2692  20.2922  20.3614  20.4338  20.4450  20.5674  20.6004
    20.6764  20.6935  20.6990  20.8128  20.8340  20.9761  20.9793  21.0540
    21.1275  21.2013  21.3002  21.3981  21.4253  21.4384  21.4797  21.5200
    21.5412  21.6552  21.7168  21.7460  21.8476  21.9109  21.9202  21.9900
    22.0232  22.1873  22.2406  22.3299  22.4046  22.4698  22.5989  22.6054
    22.6797  22.7005  22.7625  22.8450  22.8599  22.8808  22.9488  23.0502
    23.0503  23.0662  23.1362  23.3637  23.3968  23.4501  23.5100  23.5149
    23.6292  23.7799  23.9019  23.9096  23.9324  23.9472  24.1619  24.1742
    24.1859  24.2860  24.3070  24.3910  24.4082  24.4094  24.4764  24.7713
    24.8057  24.8769  24.9435  24.9839  25.1158  25.2086  25.3225  25.3602
    25.3851  25.4328  25.4840  25.4851  25.6218  25.7914  25.8866  25.9047
    25.9650  25.9790  26.0101  26.0216  26.0371  26.1551  26.2636  26.3036
    26.3874  26.4222  26.4382  26.6432  26.8101  26.8264  26.8356  27.0314
    27.0526  27.0560  27.0685  27.3151  27.3515  27.3578  27.3579  27.4472
    27.5376  27.5716  27.5946  27.6016  27.7355  27.8037  27.8314  27.8452
    27.8740  27.9439  27.9694  28.0112  28.2025  28.2028  28.2800  28.3292
    28.3606  28.4207  28.4614  28.5646  28.5660  28.5763  28.6427  28.6814
    28.8681  28.9735  29.1642  29.3793  29.5710  29.6149  29.6721  29.7482
    29.7724  29.7909  29.8408  29.9031  29.9141  29.9257  30.0938  30.1245
    30.2475  30.3492  30.4370  30.4372  30.6638  30.7125  30.7274  30.7561
    30.8135  30.8346  30.8504  31.0044  31.0462  31.0927  31.2248  31.2491
    31.2760  31.2887  31.3446  31.4268  31.4291  31.4824  31.5958  31.7337
    31.8708  31.8931  32.0422  32.0828  32.1057  32.1063  32.2552  32.2567
    32.3451  32.3824  32.5097  32.6493  32.6670  32.7396  32.7438  32.7869
    32.8338  32.8538  32.8850  32.9321  33.1310  33.1963  33.2074  33.2397
    33.2479  33.2479  33.2576  33.3361  33.4923  33.4952  33.5791  33.6176
    33.6576  33.6691  33.7428  33.7743  33.8017  33.8462  33.8696  33.9141
    34.0255  34.0440  34.0602  34.2188  34.2358  34.2362  34.3063  34.3218
    34.3298  34.3467  34.4100  34.4121  34.4648  34.5122  34.5159  34.5742
    34.6414  34.6652  34.7126  34.8278

          k = 0.0000 0.0000 0.0235 ( 26881 PWs)   bands (ev):

   -29.8991 -29.8983 -28.3936 -28.3927 -21.6941 -21.2617 -20.3294 -18.9863
   -17.5114 -17.1765 -16.9626 -16.1982 -16.1877 -15.1823 -14.7999 -14.5808
   -14.4873 -13.3230 -12.9654 -12.7585 -12.2640 -12.0698 -11.9237 -11.1397
   -10.8578 -10.7396 -10.6183 -10.5987  -9.8242  -9.5214  -9.4894  -9.4762
    -8.6822  -8.4362  -8.4110  -8.4101  -8.1173  -7.5733  -7.5508  -6.8792
    -6.3971  -6.1797  -6.0355  -5.7674  -5.6879  -4.8072  -4.6156  -4.2024
    -3.2642  -3.2281  -1.2345  -0.9819  -0.6603  -0.2784   0.7533   0.9184
     1.2006   1.5781   2.2756   2.4597   2.5928   2.8171   2.8715   2.9399
     3.0673   3.2951   3.7241   3.8034   3.9487   4.0302   4.0933   4.2430
     4.4159   4.8087   5.0594   5.1088   5.4786   5.5289   5.5537   5.8574
     6.0250   6.1747   6.2283   6.2934   6.4074   6.4158   6.9362   7.0469
     7.3020   7.4152   7.4500   7.5174   7.8815   7.8870   7.9144   7.9700
     8.1660   8.2228   8.3870   8.4216   8.4647   8.5505   8.5557   8.6042
     8.6960   8.7588   8.8032   8.8365   8.8616   8.9445   9.0555   9.0796
     9.1947   9.2226   9.2681   9.3938   9.4242   9.7785   9.9895  10.0046
    10.1765  10.2291  10.3039  10.3165  10.3429  10.4408  10.4463  10.4994
    10.5138  10.5371  10.5584  10.6838  10.7392  10.8247  10.9279  10.9315
    10.9656  10.9936  11.0052  11.0792  11.1827  11.2749  11.3039  11.4047
    11.4966  11.5148  11.6581  11.6705  11.7944  12.0164  12.0261  12.1217
    12.2410  12.3855  12.4431  12.4803  12.4816  12.5497  12.7306  12.9300
    13.0064  13.0458  13.0698  13.1736  13.3435  13.4299  13.4403  13.5003
    13.5661  13.5984  13.6105  13.8036  13.8705  13.8863  13.9429  13.9572
    14.0655  14.1969  14.3322  14.3526  14.3902  14.4156  14.5466  14.7236
    14.7342  14.7620  14.8388  14.9507  14.9883  15.1339  15.2108  15.2893
    15.3891  15.4486  15.4935  15.5795  15.7378  15.8097  15.8551  15.8828
    15.9028  16.0405  16.0433  16.0551  16.1305  16.1413  16.1467  16.1985
    16.2818  16.3688  16.4097  16.4692  16.4893  16.4995  16.5832  16.6556
    16.7499  16.7871  16.8590  17.0609  17.2061  17.2799  17.3437  17.3491
    17.3576  17.5335  17.5617  17.6158  17.6277  17.7165  17.7365  17.7473
    17.8165  17.9236  17.9826  18.0814  18.1248  18.1331  18.1658  18.1880
    18.2772  18.4662  18.5218  18.5366  18.5681  18.6507  18.9981  19.0297
    19.0428  19.1139  19.2954  19.3084  19.3497  19.3608  19.4127  19.4830
    19.5320  19.7085  19.7215  19.7281  19.8919  19.9281  19.9679  19.9712
    20.2652  20.3457  20.3907  20.3986  20.4594  20.4804  20.5359  20.5656
    20.7338  20.7374  20.9045  20.9309  20.9357  21.0059  21.0575  21.0977
    21.1414  21.1882  21.2067  21.3544  21.3913  21.4644  21.4735  21.4815
    21.5808  21.6303  21.7301  21.7470  21.8523  21.9168  21.9841  22.0400
    22.1492  22.1493  22.2930  22.3453  22.4287  22.4897  22.5299  22.6794
    22.6894  22.7360  22.7607  22.7933  22.8536  22.8892  22.9372  23.0187
    23.0265  23.0515  23.0974  23.3054  23.3794  23.4270  23.4467  23.5190
    23.7483  23.7856  23.8489  23.8782  23.8831  23.9898  24.1588  24.1713
    24.2741  24.3460  24.3520  24.4051  24.4568  24.4589  24.4992  24.6885
    24.8285  24.8287  24.9087  25.0359  25.1436  25.1982  25.2333  25.3141
    25.3799  25.3865  25.4045  25.6367  25.6406  25.7124  25.8137  25.9682
    25.9775  26.0117  26.0961  26.1196  26.2171  26.2420  26.3303  26.3847
    26.4691  26.4753  26.5160  26.7352  26.8190  26.8533  26.8616  26.9775
    27.0531  27.1248  27.1373  27.2502  27.3026  27.3999  27.4141  27.4537
    27.5230  27.5397  27.5675  27.5962  27.7236  27.7266  27.7433  27.8713
    27.8927  27.8968  27.9204  28.0317  28.0702  28.1995  28.3339  28.3568
    28.3932  28.4694  28.5042  28.5816  28.6447  28.6706  28.6904  28.6910
    28.7755  28.9308  29.2145  29.3271  29.3958  29.7215  29.7320  29.7720
    29.7929  29.8964  29.8989  30.0195  30.0619  30.1441  30.1448  30.1961
    30.2715  30.3015  30.3868  30.4232  30.6162  30.6288  30.7335  30.7381
    30.7639  30.7763  30.8037  30.8380  31.0254  31.0303  31.2477  31.2757
    31.2835  31.3300  31.3310  31.3489  31.4486  31.5430  31.5687  31.5788
    31.6763  31.8145  31.9057  32.0370  32.0820  32.1074  32.1565  32.2824
    32.3143  32.3406  32.3453  32.4427  32.4470  32.6090  32.6355  32.6940
    32.7685  32.8619  32.8682  32.9722  32.9744  32.9799  33.0738  33.0927
    33.2120  33.2206  33.2672  33.2961  33.3468  33.3628  33.3992  33.4082
    33.5265  33.5700  33.5870  33.6496  33.7052  33.7460  33.7650  33.8037
    33.8374  33.8388  33.9398  33.9895  33.9922  34.0797  34.1392  34.1939
    34.2288  34.2625  34.2793  34.3445  34.3587  34.3907  34.4719  34.4869
    34.5155  34.5562  34.6166  34.6549

          k = 0.0000 0.0000 0.0282 ( 26896 PWs)   bands (ev):

   -29.8856 -29.8848 -28.4128 -28.4118 -21.6684 -21.2365 -20.3049 -18.9633
   -17.5377 -17.3117 -17.1227 -16.3403 -16.1965 -15.0573 -14.7072 -14.5002
   -14.4033 -13.4127 -12.8949 -12.6698 -12.2141 -12.0073 -11.9510 -11.1690
   -10.8295 -10.6810 -10.5983 -10.5793  -9.8798  -9.4655  -9.4612  -9.4480
    -8.6566  -8.4345  -8.4335  -8.3907  -8.1881  -7.5522  -7.5487  -6.9460
    -6.4491  -6.1578  -6.1166  -5.7866  -5.7005  -4.9431  -4.6066  -4.3477
    -3.4259  -3.2826  -1.0631  -0.9403  -0.4864  -0.1038   0.7133   0.9532
     1.2342   1.6114   2.3084   2.4926   2.6281   2.8102   2.8457   2.9721
     3.0937   3.3303   3.7588   3.8359   3.9838   4.0657   4.1267   4.2731
     4.4478   4.8255   5.0385   5.0739   5.4479   5.5664   5.5929   5.8015
     6.0598   6.2098   6.2123   6.3429   6.4017   6.4457   6.8880   6.9666
     7.1465   7.1736   7.4918   7.5573   7.6606   7.8160   7.9153   7.9550
     8.1594   8.1999   8.3600   8.4158   8.4277   8.5021   8.5286   8.5599
     8.6024   8.6103   8.6303   8.6783   8.8060   8.8235   8.9789   8.9804
     9.2165   9.2321   9.2495   9.3189   9.4903   9.6668   9.7889   9.8869
     9.9719  10.0101  10.1325  10.2225  10.2388  10.2847  10.3603  10.5508
    10.5699  10.5931  10.6848  10.7046  10.8388  10.8519  10.8711  10.8947
    10.9071  10.9340  11.0789  11.0976  11.2315  11.2952  11.2985  11.3426
    11.5291  11.6686  11.6851  11.6969  11.8163  12.0077  12.0484  12.1126
    12.1833  12.3359  12.3396  12.4582  12.5479  12.6295  12.8012  12.8033
    13.0870  13.1264  13.3050  13.3426  13.3735  13.4125  13.5568  13.5760
    13.5901  13.7306  13.7994  13.9133  13.9244  13.9610  13.9863  14.0925
    14.1229  14.2142  14.3858  14.4542  14.4627  14.5211  14.6022  14.6344
    14.6345  14.7376  14.8450  14.8587  14.8759  14.9888  15.1761  15.2415
    15.4096  15.5407  15.5580  15.6743  15.7015  15.7675  15.8183  15.8316
    16.0017  16.0163  16.0196  16.0807  16.1039  16.1688  16.1820  16.2424
    16.3597  16.3636  16.4124  16.4680  16.5499  16.6121  16.6296  16.6735
    16.7375  16.8822  16.9518  17.0281  17.1342  17.1613  17.1644  17.2726
    17.2875  17.4613  17.5467  17.6068  17.6084  17.7482  17.7705  17.8076
    17.9381  17.9704  18.0630  18.0708  18.1587  18.2820  18.2939  18.3383
    18.4258  18.5535  18.6186  18.7381  18.7699  18.8696  18.8740  18.9592
    19.2033  19.2820  19.2930  19.3714  19.3731  19.4516  19.5070  19.5801
    19.6861  19.6901  19.7438  19.7701  19.8187  19.8656  19.9454  19.9473
    20.3321  20.3964  20.4375  20.4622  20.4944  20.4967  20.5952  20.6213
    20.7372  20.8057  20.9818  20.9878  21.0247  21.0862  21.1188  21.1443
    21.1823  21.1933  21.3296  21.3509  21.3908  21.4032  21.4516  21.5480
    21.6580  21.6810  21.7368  21.7493  21.8309  21.8634  21.9259  22.0250
    22.1064  22.2748  22.2861  22.2980  22.4765  22.5508  22.5673  22.6386
    22.6455  22.6696  22.7081  22.8822  22.9302  22.9321  22.9977  23.0351
    23.0422  23.1135  23.1481  23.2782  23.2813  23.4288  23.4630  23.5083
    23.5576  23.6723  23.7570  23.7889  24.0335  24.1102  24.1126  24.1717
    24.3203  24.3692  24.3753  24.4162  24.5496  24.5931  24.6071  24.7815
    24.8211  24.8400  24.9062  24.9493  25.0190  25.2435  25.2594  25.2632
    25.3012  25.3236  25.4146  25.5406  25.6352  25.6439  25.9625  26.0096
    26.1002  26.1153  26.1239  26.2674  26.3085  26.3541  26.4690  26.4714
    26.5083  26.5844  26.5857  26.7898  26.7940  26.8303  26.8703  26.9922
    27.0410  27.0676  27.1385  27.1678  27.1691  27.2642  27.3181  27.5121
    27.5406  27.5978  27.6173  27.6645  27.6789  27.7394  27.8393  27.8423
    27.9234  27.9454  27.9874  28.0910  28.1034  28.1153  28.3680  28.4274
    28.4377  28.4757  28.5678  28.5774  28.7100  28.7148  28.7518  28.8294
    28.8429  28.9629  29.0728  29.2606  29.3263  29.5929  29.7143  29.7850
    29.8134  29.9189  29.9570  30.0204  30.0417  30.1244  30.1481  30.1963
    30.3116  30.3382  30.4467  30.4655  30.5278  30.5496  30.5610  30.5847
    30.7046  30.7064  30.8599  30.9329  31.0292  31.0860  31.0869  31.1644
    31.1957  31.2208  31.3696  31.4115  31.4333  31.5166  31.6142  31.6293
    31.7125  31.7662  31.7796  31.8679  31.9236  31.9366  32.0885  32.1370
    32.1583  32.2635  32.3408  32.3574  32.3967  32.4475  32.5799  32.5995
    32.6939  32.6983  32.7539  32.7546  32.7550  32.8306  32.8689  32.8861
    32.8886  32.9585  33.0491  33.1322  33.2147  33.2795  33.3417  33.3510
    33.4237  33.4473  33.5098  33.5421  33.6029  33.6264  33.6911  33.7158
    33.7362  33.7821  33.7994  33.8188  33.9091  33.9524  34.0227  34.0859
    34.1225  34.1624  34.2367  34.2853  34.3432  34.3544  34.3862  34.4999
    34.5027  34.5094  34.5234  34.5709

          k = 0.0000 0.0000 0.0329 ( 26918 PWs)   bands (ev):

   -29.8697 -29.8689 -28.4350 -28.4341 -21.6379 -21.2067 -20.2759 -18.9362
   -17.6349 -17.3747 -17.2853 -16.4838 -16.2119 -14.9419 -14.7232 -14.3988
   -14.2160 -13.5057 -12.8242 -12.5686 -12.1881 -11.9463 -11.9407 -11.2102
   -10.7898 -10.6176 -10.5749 -10.5566  -9.9367  -9.4279  -9.4169  -9.4046
    -8.6267  -8.4617  -8.4604  -8.3445  -8.2614  -7.5637  -7.5197  -7.0209
    -6.5092  -6.2087  -6.1321  -5.8108  -5.7180  -5.0917  -4.5960  -4.5026
    -3.5882  -3.3446  -0.8931  -0.8894  -0.2977   0.0893   0.6691   0.9944
     1.2738   1.6507   2.3469   2.5313   2.6697   2.7379   2.8794   3.0127
     3.1246   3.3717   3.7997   3.8740   4.0252   4.1076   4.1653   4.3085
     4.4843   4.8440   4.9593   5.0864   5.4206   5.6097   5.6389   5.7485
     6.1005   6.1689   6.2488   6.4011   6.4135   6.4734   6.7875   6.8739
     6.9873   7.0018   7.4127   7.5394   7.6033   7.6517   7.9540   7.9758
     8.0873   8.2377   8.2522   8.3032   8.3409   8.3859   8.3905   8.4428
     8.4947   8.5691   8.5901   8.6361   8.6498   8.7801   8.9080   9.0172
     9.1775   9.2327   9.2840   9.3024   9.4530   9.5517   9.6001   9.7362
     9.7808   9.8215   9.9680  10.0520  10.0825  10.1370  10.4015  10.4935
    10.5944  10.6097  10.7040  10.7256  10.7956  10.8055  10.8381  10.8910
    10.9287  11.0486  11.1274  11.2002  11.2635  11.2996  11.3488  11.4540
    11.5593  11.6417  11.6974  11.7843  11.8031  11.9258  11.9732  11.9980
    12.0855  12.2347  12.4911  12.5061  12.5361  12.6890  12.8746  12.9565
    13.0582  13.2030  13.3238  13.3608  13.4909  13.5879  13.6002  13.6089
    13.6784  13.8993  13.9022  13.9558  13.9739  14.0223  14.0777  14.1753
    14.1763  14.1924  14.2610  14.4234  14.4548  14.6013  14.6441  14.7310
    14.7563  14.7589  14.8764  14.8782  14.9180  14.9260  15.1552  15.1938
    15.4610  15.5827  15.5894  15.6020  15.6390  15.7690  15.8028  15.8329
    16.0026  16.0089  16.0906  16.1356  16.1605  16.1921  16.2074  16.2503
    16.3477  16.3757  16.3792  16.5172  16.6496  16.6702  16.6880  16.7457
    16.8181  16.9604  17.0113  17.0272  17.0341  17.0618  17.1678  17.1810
    17.2786  17.3661  17.5676  17.5871  17.6263  17.8162  17.8208  17.8225
    17.9310  17.9446  18.1494  18.1728  18.2651  18.3855  18.4351  18.4450
    18.5375  18.6108  18.6348  18.7913  18.8212  18.9796  19.0960  19.1326
    19.2559  19.2659  19.2819  19.5025  19.5243  19.5585  19.6362  19.6826
    19.6901  19.7400  19.7729  19.8400  19.8646  19.9041  19.9833  20.0084
    20.2173  20.3543  20.4276  20.4860  20.5936  20.6433  20.6458  20.6908
    20.7185  20.8597  21.0276  21.0517  21.0534  21.0706  21.1528  21.1815
    21.2620  21.2638  21.3188  21.3624  21.4388  21.5075  21.5766  21.6116
    21.6554  21.7545  21.7552  21.7696  21.8297  21.8502  21.8859  22.0560
    22.1135  22.1586  22.2356  22.3127  22.4246  22.4640  22.4738  22.5720
    22.6860  22.8252  22.8278  22.8395  22.9473  22.9802  23.0055  23.1330
    23.1575  23.2037  23.2605  23.3261  23.3287  23.3882  23.3927  23.4849
    23.5001  23.6298  23.6996  23.7046  23.9515  24.0238  24.0282  24.2541
    24.2819  24.3875  24.4534  24.5476  24.5733  24.6944  24.7324  24.7558
    24.8022  24.9049  24.9337  25.0162  25.0365  25.1568  25.2331  25.2746
    25.2835  25.4086  25.4428  25.4979  25.6366  25.6487  25.9723  26.0408
    26.1441  26.2201  26.2545  26.2632  26.3988  26.4047  26.4148  26.5299
    26.5698  26.6947  26.7036  26.7175  26.8753  26.8867  26.9044  26.9054
    27.0172  27.0489  27.1182  27.1324  27.1471  27.1555  27.3647  27.5472
    27.5796  27.5839  27.6622  27.6927  27.7149  27.7696  27.7883  27.9463
    27.9981  28.0042  28.0287  28.1109  28.1769  28.3422  28.4095  28.4157
    28.5139  28.5222  28.5255  28.6128  28.7738  28.8011  28.8452  28.9323
    28.9394  28.9649  28.9880  29.1584  29.3299  29.3383  29.5796  29.6392
    29.6728  29.7977  29.8893  29.9529  30.0181  30.0670  30.2057  30.2172
    30.2347  30.3149  30.3244  30.3599  30.4431  30.5506  30.6315  30.6331
    30.7498  30.7514  30.7750  30.8695  30.8894  30.9799  31.1187  31.1457
    31.1747  31.2016  31.2953  31.3454  31.3478  31.4447  31.5467  31.6199
    31.6388  31.7024  31.7627  31.8079  31.8345  31.9520  32.0402  32.0757
    32.1211  32.1397  32.1514  32.1816  32.2309  32.2829  32.3277  32.3600
    32.3873  32.4582  32.5321  32.5367  32.5985  32.6068  32.6440  32.7031
    32.7751  32.8816  32.9385  32.9821  33.0377  33.1145  33.2335  33.3246
    33.3431  33.3805  33.4127  33.4363  33.5006  33.5127  33.5351  33.6438
    33.7367  33.7486  33.7511  33.8315  33.8546  33.8851  34.0095  34.0257
    34.1125  34.1225  34.1241  34.2413  34.2662  34.3113  34.3183  34.3933
    34.3993  34.4097  34.4228  34.4841

          k = 0.0000 0.0000 0.0376 ( 26914 PWs)   bands (ev):

   -29.8516 -29.8508 -28.4602 -28.4593 -21.6028 -21.1724 -20.2425 -18.9052
   -17.7856 -17.4484 -17.3827 -16.6254 -16.2353 -14.8378 -14.7784 -14.2518
   -14.0237 -13.5949 -12.7595 -12.4579 -12.1904 -11.8999 -11.8702 -11.2606
   -10.7410 -10.5526 -10.5482 -10.5307  -9.9918  -9.3895  -9.3829  -9.3411
    -8.5930  -8.4926  -8.4900  -8.3356  -8.2996  -7.5856  -7.4863  -7.1028
    -6.5765  -6.3119  -6.1028  -5.8389  -5.7409  -5.2494  -4.6636  -4.5853
    -3.7487  -3.4130  -0.8406  -0.7156  -0.0978   0.2967   0.6229   1.0418
     1.3194   1.6957   2.3907   2.5755   2.6573   2.7178   2.9182   3.0601
     3.1598   3.4195   3.8468   3.9179   4.0730   4.1557   4.2083   4.3488
     4.5248   4.8638   4.8727   5.0925   5.4019   5.6591   5.6914   5.6992
     6.1038   6.1504   6.2880   6.4425   6.4639   6.4973   6.5750   6.7695
     6.8374   6.9549   7.1753   7.4554   7.5906   7.6543   7.9250   7.9882
     8.0466   8.0618   8.1548   8.1585   8.1793   8.1947   8.2956   8.3556
     8.4262   8.5202   8.6253   8.6289   8.6423   8.7042   8.9072   9.0594
     9.0854   9.2209   9.2472   9.3234   9.3408   9.3790   9.4641   9.5420
     9.6500   9.6804   9.8170   9.9205   9.9245  10.0967  10.3000  10.4501
    10.5146  10.6439  10.6486  10.7419  10.7738  10.7809  10.9323  10.9535
    10.9564  11.0017  11.1732  11.2816  11.2902  11.3536  11.4341  11.4594
    11.5879  11.6821  11.7194  11.7427  11.7641  11.8086  11.8679  11.9722
    12.1309  12.1780  12.4469  12.5578  12.5690  12.9054  12.9678  12.9974
    13.0849  13.2440  13.2815  13.3377  13.4404  13.5996  13.6888  13.7776
    13.8699  13.9468  13.9478  13.9932  14.0554  14.0837  14.0934  14.1146
    14.1198  14.1918  14.3299  14.4679  14.5651  14.5854  14.6049  14.6452
    14.6528  14.9229  14.9853  15.0579  15.0754  15.1015  15.1988  15.2361
    15.4270  15.4405  15.6174  15.6277  15.7259  15.7616  15.7678  15.9038
    16.0005  16.0138  16.0664  16.1708  16.1999  16.2261  16.2788  16.2813
    16.3690  16.3753  16.4225  16.5858  16.6387  16.6629  16.6895  16.7343
    16.8022  16.9269  16.9457  16.9605  17.0409  17.2574  17.3109  17.3139
    17.3679  17.3981  17.5930  17.6136  17.6680  17.8206  17.8520  17.8692
    17.9045  17.9155  18.2301  18.2768  18.3304  18.3618  18.4508  18.4989
    18.5405  18.6416  18.6513  18.9444  18.9740  19.0344  19.2559  19.2983
    19.3842  19.3924  19.4191  19.4245  19.4779  19.5831  19.7571  19.7680
    19.7685  19.8485  19.8581  19.9422  20.0031  20.0282  20.0599  20.1728
    20.2555  20.3167  20.3974  20.5235  20.5310  20.7204  20.7356  20.7399
    20.7769  20.8378  21.0075  21.0951  21.1554  21.1660  21.2019  21.2023
    21.2857  21.2975  21.3234  21.3508  21.3800  21.5039  21.5888  21.6412
    21.7071  21.7353  21.8332  21.8702  21.8770  21.9623  21.9970  22.0198
    22.0703  22.2113  22.2657  22.3249  22.3454  22.3489  22.3503  22.6282
    22.7356  22.7985  22.8069  22.8858  22.9501  23.0456  23.0586  23.1086
    23.2318  23.2970  23.3098  23.3162  23.3472  23.4854  23.4926  23.5409
    23.5678  23.6206  23.6909  23.7134  23.8858  23.9206  23.9263  24.2236
    24.2406  24.3925  24.4415  24.5028  24.6098  24.6363  24.7436  24.8154
    24.9131  24.9178  25.0298  25.0591  25.2150  25.2352  25.2666  25.2892
    25.3405  25.4364  25.4810  25.6114  25.6735  25.7527  25.8991  26.0716
    26.1051  26.1642  26.1891  26.2268  26.3788  26.3984  26.4636  26.5298
    26.6167  26.6651  26.6760  26.7981  26.8005  26.8960  26.9839  27.0098
    27.0156  27.0260  27.1471  27.2186  27.2995  27.3613  27.4003  27.5782
    27.5858  27.6423  27.6550  27.7009  27.7292  27.7794  27.9107  28.0096
    28.0140  28.0205  28.0298  28.2741  28.3268  28.3307  28.4584  28.5086
    28.5411  28.6154  28.6277  28.6530  28.6878  28.7900  28.8424  28.8697
    28.9764  29.0056  29.0365  29.0546  29.1013  29.3487  29.3968  29.5304
    29.5758  29.6201  29.7354  29.7714  29.9205  30.0412  30.1811  30.1832
    30.2180  30.2806  30.2939  30.3619  30.3657  30.4554  30.4644  30.5010
    30.5633  30.5925  30.6915  30.8858  30.9352  31.0751  31.0774  31.1545
    31.1550  31.1635  31.1970  31.2406  31.2856  31.2988  31.5015  31.5440
    31.5509  31.5901  31.6025  31.6898  31.7387  31.7882  31.8602  31.8901
    31.9618  31.9656  31.9776  31.9988  32.1033  32.1115  32.2013  32.2373
    32.2964  32.3172  32.3392  32.3889  32.4347  32.4952  32.5278  32.5374
    32.7517  32.7590  32.8261  32.8443  32.9314  32.9912  33.2471  33.2653
    33.2920  33.3061  33.3347  33.4038  33.4125  33.4557  33.4672  33.5584
    33.5643  33.7058  33.7213  33.7352  33.8341  33.8452  33.8681  33.9336
    33.9715  34.0022  34.0699  34.0816  34.1200  34.1593  34.2346  34.2636
    34.2758  34.2886  34.3502  34.3993

          k = 0.0000 0.0000 0.0423 ( 26926 PWs)   bands (ev):

   -29.8312 -29.8304 -28.4883 -28.4874 -21.5630 -21.1335 -20.2048 -18.8705
   -17.9512 -17.6106 -17.3766 -16.7616 -16.2680 -14.8332 -14.7461 -14.0976
   -13.8525 -13.6523 -12.7112 -12.3404 -12.1950 -11.8277 -11.7961 -11.3176
   -10.6850 -10.5184 -10.5018 -10.4922 -10.0391  -9.3460  -9.3460  -9.2780
    -8.5620  -8.5268  -8.5156  -8.4088  -8.2579  -7.6179  -7.4485  -7.1905
    -6.6500  -6.4262  -6.0700  -5.8703  -5.7691  -5.4133  -4.8282  -4.5762
    -3.9052  -3.4871  -0.7833  -0.5438   0.1105   0.5041   0.5883   1.0955
     1.3709   1.7465   2.4398   2.5698   2.6251   2.7722   2.9619   3.1140
     3.1991   3.4735   3.8998   3.9672   4.1269   4.2101   4.2538   4.3937
     4.5682   4.7816   4.8850   5.0871   5.3974   5.6539   5.7144   5.7504
     6.0374   6.2005   6.3138   6.3335   6.4809   6.4854   6.5532   6.6542
     6.7220   6.9331   6.9577   7.2618   7.6334   7.7053   7.7634   7.8191
     7.9299   7.9708   7.9816   8.0233   8.0469   8.1003   8.2465   8.3238
     8.3437   8.5526   8.6093   8.6157   8.6554   8.6714   8.9410   8.9767
     8.9829   9.0913   9.1776   9.1860   9.3229   9.3647   9.3735   9.3912
     9.4506   9.6015   9.6909   9.7765   9.8197  10.0941  10.2103  10.3217
    10.5047  10.6417  10.6964  10.7272  10.7362  10.8163  10.9596  10.9728
    10.9787  11.0002  11.1606  11.2454  11.2792  11.3519  11.3585  11.5450
    11.5966  11.6589  11.6600  11.6909  11.7289  11.8703  11.9731  12.0228
    12.1353  12.1845  12.4404  12.6135  12.6364  12.8687  12.9300  13.0692
    13.1328  13.1537  13.2913  13.3292  13.5500  13.5842  13.6890  13.7597
    13.8663  13.9000  14.0296  14.0816  14.0951  14.1302  14.1462  14.1972
    14.2128  14.2595  14.2829  14.5177  14.5467  14.5652  14.6065  14.6359
    14.8748  14.9661  15.0114  15.0175  15.2189  15.2227  15.3191  15.3329
    15.5501  15.6046  15.6521  15.6607  15.6785  15.7539  15.7567  15.9647
    16.0404  16.0469  16.1369  16.1793  16.1884  16.2203  16.2569  16.3523
    16.3535  16.4548  16.4876  16.6133  16.6162  16.6225  16.6441  16.7634
    16.8015  16.8738  16.9827  16.9856  17.0495  17.3501  17.4203  17.4275
    17.5520  17.5641  17.6181  17.6962  17.7580  17.8574  17.8996  17.9330
    17.9582  17.9926  18.1475  18.2334  18.3121  18.4237  18.4604  18.5193
    18.5741  18.6574  18.6780  19.0259  19.0619  19.2646  19.2810  19.2828
    19.3836  19.3876  19.4652  19.6281  19.6340  19.7692  19.7710  19.8440
    19.8644  19.8719  19.9258  20.0913  20.1020  20.1746  20.1764  20.3625
    20.3842  20.3884  20.4314  20.5779  20.5860  20.6530  20.7809  20.8073
    20.8610  20.9156  20.9699  21.1413  21.1529  21.1760  21.2280  21.2313
    21.2773  21.2801  21.3339  21.3914  21.4027  21.4332  21.5897  21.6062
    21.7017  21.7904  21.8003  21.9453  21.9582  21.9957  21.9981  22.0262
    22.0306  22.2295  22.3051  22.4224  22.4368  22.4448  22.5011  22.6808
    22.7030  22.7815  22.7934  22.8031  22.8757  22.9857  23.0965  23.1957
    23.2378  23.2619  23.3492  23.3689  23.4017  23.5270  23.5951  23.5991
    23.6685  23.7412  23.7693  23.7725  23.7753  23.8122  24.0971  24.1995
    24.2235  24.2389  24.5019  24.5709  24.5833  24.6300  24.6431  24.6869
    24.9333  25.0508  25.0688  25.2138  25.2350  25.2528  25.3636  25.4455
    25.4887  25.5172  25.5992  25.6788  25.7782  25.8279  25.8956  25.9883
    26.0519  26.1025  26.1331  26.1732  26.2702  26.3628  26.3995  26.5284
    26.6395  26.6509  26.6749  26.7598  26.7853  26.8600  26.9946  27.0967
    27.1136  27.2410  27.2455  27.3996  27.4225  27.4639  27.5337  27.6041
    27.6210  27.6472  27.7516  27.8049  27.8375  27.8724  27.9342  28.0111
    28.0344  28.0554  28.0606  28.2619  28.2858  28.3509  28.3590  28.4908
    28.5234  28.6312  28.6564  28.6943  28.7259  28.7602  28.7930  28.8053
    28.8261  28.8957  29.1092  29.1444  29.1875  29.2315  29.2493  29.4072
    29.4693  29.6781  29.6984  29.7049  29.7444  29.8211  29.9224  30.0050
    30.0720  30.2379  30.2624  30.2902  30.2969  30.3903  30.4166  30.4487
    30.4602  30.5090  30.6887  30.7037  30.7839  30.8459  30.9678  31.0012
    31.0080  31.0806  31.0915  31.1026  31.1827  31.2169  31.2358  31.4152
    31.4730  31.5005  31.5203  31.5575  31.6432  31.6784  31.6799  31.7910
    31.7945  31.7993  31.8085  31.8365  31.8774  32.0249  32.1052  32.1209
    32.1748  32.2499  32.2708  32.3521  32.4052  32.5438  32.5487  32.5610
    32.6292  32.6915  32.8320  32.8924  32.9294  33.0288  33.0348  33.0877
    33.1287  33.1599  33.2068  33.2146  33.3111  33.4834  33.5066  33.5069
    33.5219  33.5305  33.5351  33.5685  33.6487  33.6549  33.7194  33.7392
    33.8806  33.8896  34.0211  34.0333  34.0457  34.0488  34.1076  34.1430
    34.2390  34.3871  34.3881  34.3923

          k = 0.0000 0.0000 0.0469 ( 26924 PWs)   bands (ev):

   -29.8086 -29.8079 -28.5189 -28.5180 -21.5186 -21.0901 -20.1627 -18.8325
   -18.1197 -17.7709 -17.3734 -16.8858 -16.3114 -14.8786 -14.6688 -13.9450
   -13.8306 -13.5466 -12.6921 -12.2191 -12.1743 -11.7443 -11.7190 -11.3782
   -10.6231 -10.4855 -10.4699 -10.4487 -10.0667  -9.3062  -9.2974  -9.2193
    -8.5735  -8.5641  -8.4971  -8.4786  -8.2212  -7.6602  -7.4063  -7.2830
    -6.7288  -6.5515  -6.0342  -5.9044  -5.8025  -5.5813  -4.9943  -4.5721
    -4.0538  -3.5658  -0.7217  -0.3767   0.3251   0.5188   0.7590   1.1555
     1.4283   1.8028   2.4767   2.4939   2.6797   2.8330   3.0106   3.1743
     3.2426   3.5335   3.9586   4.0219   4.1871   4.2707   4.2964   4.4428
     4.6129   4.6921   4.9082   5.0671   5.4106   5.6116   5.7759   5.8156
     5.9708   6.0873   6.2674   6.2780   6.4713   6.5287   6.5350   6.6190
     6.6556   6.8022   6.8604   7.1199   7.5324   7.5748   7.6970   7.7142
     7.7323   7.7458   7.8405   7.8845   8.0370   8.1424   8.1713   8.2358
     8.4001   8.4613   8.5363   8.6430   8.6889   8.7241   8.7646   8.8461
     8.9189   8.9500   8.9971   9.1766   9.1882   9.2431   9.3413   9.4031
     9.4474   9.5583   9.5892   9.5964   9.7295  10.0158  10.1485  10.3030
    10.5645  10.5807  10.6498  10.7609  10.7839  10.7926  10.9166  10.9447
    11.0027  11.0346  11.1220  11.1328  11.2113  11.2403  11.3262  11.5454
    11.5530  11.6621  11.6916  11.7037  11.7192  12.0350  12.0829  12.1155
    12.1316  12.2477  12.4783  12.6728  12.7012  12.7712  12.8738  12.9137
    12.9849  13.1303  13.2672  13.3497  13.5668  13.6301  13.6948  13.7376
    13.8437  13.9290  13.9611  14.0999  14.1339  14.1358  14.2099  14.2428
    14.3597  14.3749  14.4937  14.4976  14.5125  14.5789  14.7107  14.7281
    14.8448  14.9804  15.0045  15.0706  15.2256  15.2836  15.4381  15.5201
    15.5452  15.6645  15.7341  15.7396  15.7680  15.8815  15.9664  16.0020
    16.0521  16.0787  16.0835  16.1578  16.2160  16.2480  16.3033  16.3110
    16.4199  16.5224  16.5281  16.6295  16.6417  16.6449  16.6651  16.8028
    16.8423  16.8919  17.0209  17.0445  17.2242  17.3922  17.4160  17.4869
    17.5329  17.6355  17.6900  17.7807  17.8654  17.9601  18.0432  18.0712
    18.0813  18.0830  18.1641  18.2438  18.3971  18.4105  18.4332  18.5392
    18.5477  18.7192  18.7466  19.0088  19.0907  19.1586  19.2907  19.3025
    19.4346  19.5547  19.6167  19.7066  19.7220  19.7373  19.8582  19.8794
    19.9924  20.0339  20.1023  20.1472  20.2587  20.2628  20.2786  20.4412
    20.4873  20.5075  20.6429  20.6440  20.7365  20.7727  20.7827  20.8406
    20.9034  20.9391  20.9911  21.0915  21.1160  21.2101  21.2102  21.2507
    21.3337  21.3390  21.3689  21.3886  21.3890  21.4587  21.4683  21.5823
    21.6840  21.7946  21.8578  21.8882  21.9393  22.0300  22.0311  22.0829
    22.0941  22.2184  22.2390  22.4974  22.6331  22.6510  22.6843  22.7142
    22.7526  22.7624  22.7631  22.8132  22.8325  22.9756  23.1117  23.2324
    23.2710  23.2785  23.3813  23.4151  23.4208  23.4415  23.5075  23.6010
    23.6645  23.7698  23.8166  23.8856  23.9664  23.9787  24.1412  24.1742
    24.2977  24.4014  24.5345  24.5522  24.5635  24.6229  24.6459  24.7302
    24.8350  25.0544  25.0795  25.2671  25.2886  25.3340  25.4338  25.4688
    25.5098  25.5315  25.7234  25.7851  25.8275  25.9016  25.9080  26.0180
    26.0203  26.0976  26.1107  26.1408  26.2932  26.3733  26.3766  26.4615
    26.5640  26.7172  26.7187  26.7463  26.8354  26.8593  26.9668  27.1224
    27.2513  27.3287  27.4219  27.4424  27.4519  27.5215  27.5789  27.6614
    27.6886  27.8458  27.8592  27.8768  27.8793  27.8915  27.9633  28.0005
    28.0421  28.0812  28.0980  28.1026  28.1247  28.3014  28.3782  28.4807
    28.5485  28.5886  28.5935  28.6086  28.7295  28.7354  28.7562  28.7963
    28.8140  28.8818  28.9199  29.1496  29.1845  29.2202  29.3292  29.3421
    29.4333  29.5409  29.5600  29.5998  29.6087  29.6778  29.7424  29.9545
    29.9919  30.1078  30.1400  30.1821  30.1884  30.2838  30.2956  30.3347
    30.3891  30.4644  30.4736  30.4914  30.5973  30.6473  30.6868  30.8284
    30.8286  30.9351  30.9578  30.9755  31.0529  31.0881  31.1029  31.1843
    31.2162  31.2584  31.4103  31.5334  31.5624  31.5829  31.5990  31.6066
    31.6790  31.6812  31.7113  31.8574  31.9033  32.0325  32.0506  32.0890
    32.1376  32.1944  32.2628  32.2668  32.2984  32.5178  32.5763  32.6023
    32.6907  32.7461  32.8000  32.8171  32.8504  32.8901  32.9068  32.9613
    32.9871  33.0465  33.0836  33.1123  33.1566  33.1879  33.3002  33.3606
    33.3641  33.4862  33.5050  33.5518  33.5814  33.6019  33.6440  33.6601
    33.8423  33.8607  33.9201  34.0211  34.0547  34.0722  34.1217  34.2381
    34.2694  34.3134  34.3190  34.3321

          k = 0.0000 0.0000 0.0516 ( 26930 PWs)   bands (ev):

   -29.7840 -29.7832 -28.5520 -28.5511 -21.4696 -21.0422 -20.1164 -18.7918
   -18.2875 -17.9281 -17.3883 -16.9857 -16.3658 -14.9113 -14.6104 -13.8867
   -13.7978 -13.3438 -12.7064 -12.1172 -12.0972 -11.6559 -11.6424 -11.4369
   -10.5556 -10.4499 -10.4391 -10.4353 -10.0581  -9.2638  -9.2438  -9.1705
    -8.6108  -8.6044  -8.5413  -8.4510  -8.1910  -7.7111  -7.3794  -7.3597
    -6.8119  -6.6875  -5.9957  -5.9403  -5.8408  -5.7516  -5.1601  -4.5806
    -4.1866  -3.6484  -0.6561  -0.2196   0.4829   0.5439   0.9968   1.2216
     1.4915   1.8644   2.3793   2.5526   2.7389   2.9001   3.0641   3.2409
     3.2899   3.5996   4.0229   4.0818   4.2532   4.3208   4.3374   4.4950
     4.6206   4.6560   4.9346   5.0347   5.4402   5.5701   5.8304   5.8435
     5.8871   5.9383   6.1673   6.3313   6.3938   6.4251   6.5648   6.5911
     6.7003   6.7197   6.7836   7.0511   7.3066   7.3792   7.5164   7.5171
     7.5288   7.6984   7.7698   7.8756   7.9464   8.0867   8.2069   8.2315
     8.3255   8.4086   8.4756   8.5368   8.6782   8.6915   8.7071   8.7228
     8.7733   8.7942   8.9349   9.0400   9.0725   9.2548   9.3741   9.3858
     9.4282   9.5085   9.5240   9.5560   9.6244   9.9679  10.0079  10.4155
    10.5065  10.5697  10.6252  10.6335  10.8253  10.8415  10.8519  10.9421
    10.9611  11.0362  11.0636  11.0718  11.1399  11.1925  11.1988  11.5176
    11.6261  11.6430  11.6716  11.7576  11.8986  12.0047  12.0182  12.2529
    12.3029  12.3700  12.5197  12.6274  12.7282  12.7332  12.7525  12.8357
    12.8584  13.0449  13.2026  13.2415  13.4823  13.4895  13.5843  13.7931
    13.9975  14.0336  14.0339  14.1211  14.1601  14.1606  14.2570  14.2735
    14.3533  14.4781  14.4895  14.5003  14.6717  14.6774  14.7630  14.8252
    14.9141  14.9256  15.0276  15.1140  15.2802  15.2947  15.3472  15.5500
    15.6195  15.7843  15.7949  15.8848  15.8867  15.9678  15.9903  16.0544
    16.0935  16.1150  16.1312  16.2441  16.2886  16.2926  16.3815  16.3885
    16.5372  16.5615  16.5657  16.6313  16.6714  16.6890  16.7506  16.8446
    16.9829  17.0830  17.1033  17.1240  17.3227  17.3778  17.4614  17.4975
    17.5436  17.6364  17.7393  17.7652  17.7746  18.0437  18.1187  18.1683
    18.2349  18.2390  18.3954  18.4049  18.4080  18.4594  18.4897  18.6200
    18.6588  18.7691  18.7734  19.0042  19.0385  19.1294  19.2304  19.3381
    19.3884  19.6024  19.6511  19.7100  19.7499  19.8730  19.9504  20.0994
    20.1100  20.1135  20.1407  20.2153  20.2472  20.3382  20.5053  20.5428
    20.6002  20.7105  20.7450  20.7561  20.7900  20.8167  20.8796  20.8908
    20.9011  21.0139  21.0443  21.1065  21.1089  21.1909  21.2201  21.2838
    21.2958  21.3556  21.3684  21.4350  21.4456  21.4947  21.5676  21.6116
    21.6923  21.7751  21.8417  21.9159  21.9756  21.9868  22.1051  22.1874
    22.1876  22.1948  22.2363  22.2990  22.5947  22.7304  22.7306  22.7534
    22.7887  22.7993  22.9264  22.9301  22.9824  23.0671  23.1194  23.2209
    23.3012  23.3024  23.3659  23.4190  23.4542  23.4658  23.4751  23.6699
    23.7322  23.7813  23.8811  23.8959  24.0328  24.1953  24.2010  24.2277
    24.4394  24.4654  24.5504  24.5651  24.6950  24.7171  24.7179  24.7459
    24.8891  25.0440  25.1142  25.2685  25.2989  25.3370  25.3564  25.3905
    25.5029  25.5088  25.5284  25.8756  25.8981  25.9480  25.9735  25.9979
    26.0132  26.1815  26.1964  26.2606  26.3552  26.4164  26.4409  26.5146
    26.6171  26.7444  26.7679  26.7692  26.8696  26.9489  26.9962  27.1634
    27.1805  27.2531  27.3437  27.3509  27.4584  27.5386  27.5475  27.5846
    27.7329  27.7830  27.8042  27.8461  27.9178  27.9727  28.0938  28.0991
    28.1050  28.1250  28.1856  28.2048  28.2220  28.2605  28.3351  28.4333
    28.4481  28.5034  28.5710  28.6270  28.6457  28.7161  28.7249  28.7277
    28.7731  28.8697  28.9090  28.9723  29.0175  29.1814  29.3005  29.3355
    29.3396  29.4544  29.4834  29.4861  29.5470  29.6053  29.6263  29.6550
    29.7572  29.9115  29.9428  29.9947  30.0489  30.0727  30.1729  30.2497
    30.2946  30.3346  30.3820  30.3900  30.5178  30.6072  30.6104  30.6733
    30.6875  30.7008  30.7837  30.8789  30.9149  30.9636  31.0118  31.0184
    31.0683  31.2575  31.2752  31.3269  31.3607  31.3681  31.5391  31.5399
    31.6208  31.6553  31.6650  31.6934  31.8356  31.9134  32.0850  32.0987
    32.1488  32.1842  32.2395  32.2626  32.3152  32.3320  32.4033  32.4873
    32.5949  32.6169  32.6823  32.7263  32.7283  32.7948  32.8795  32.9232
    32.9403  32.9749  33.0789  33.1569  33.1753  33.2156  33.2214  33.2998
    33.3089  33.3119  33.4133  33.4991  33.6053  33.6075  33.6369  33.7015
    33.7160  33.8138  33.8611  33.9552  34.0011  34.0022  34.0676  34.1419
    34.1613  34.2219  34.2355  34.3089

          k = 0.0000 0.0000 0.0563 ( 26926 PWs)   bands (ev):

   -29.7574 -29.7566 -28.5872 -28.5863 -21.4159 -20.9898 -20.0658 -18.7496
   -18.4532 -18.0803 -17.4390 -17.0444 -16.4312 -14.9304 -14.5782 -13.9309
   -13.6596 -13.1260 -12.7439 -12.0296 -11.9793 -11.5885 -11.5647 -11.4677
   -10.4829 -10.4681 -10.4117 -10.3982 -10.0096  -9.2192  -9.1852  -9.1391
    -8.6532  -8.6469  -8.5912  -8.3977  -8.1690  -7.7691  -7.4785  -7.3088
    -6.8985  -6.8338  -5.9781  -5.9557  -5.9229  -5.8835  -5.3235  -4.6177
    -4.2876  -3.7342  -0.5869  -0.0835   0.4645   0.7651   1.2433   1.2939
     1.5604   1.9312   2.2792   2.6156   2.8023   2.9736   3.1227   3.3140
     3.3410   3.6710   4.0920   4.1465   4.2955   4.3251   4.4104   4.5485
     4.5998   4.6937   4.9660   4.9954   5.4791   5.5251   5.6090   5.8922
     5.9171   5.9647   6.0380   6.2503   6.2684   6.3964   6.5080   6.6077
     6.6571   6.7646   6.8508   6.9700   7.0750   7.1821   7.3051   7.3325
     7.3794   7.5445   7.6447   7.9407   7.9474   7.9544   8.1768   8.2648
     8.2707   8.2848   8.3194   8.4883   8.5019   8.5387   8.5404   8.7264
     8.7599   8.7824   8.8602   8.9036   9.1110   9.1745   9.3188   9.4257
     9.4302   9.4517   9.5038   9.5747   9.5898   9.8967   9.9522  10.4345
    10.4392  10.4895  10.5073  10.6489  10.6980  10.8364  10.8940  10.9015
    10.9124  10.9964  11.0322  11.0557  11.1084  11.2119  11.2138  11.5189
    11.6113  11.6163  11.7249  11.8268  11.9338  11.9523  12.0877  12.3244
    12.3832  12.4633  12.4802  12.5451  12.6346  12.7549  12.7764  12.7872
    12.8136  12.9096  13.0876  13.1684  13.3652  13.4288  13.4735  13.6358
    14.0274  14.0710  14.1309  14.1922  14.2096  14.2692  14.2804  14.3384
    14.4546  14.4755  14.5352  14.5704  14.6309  14.6638  14.7893  14.8391
    14.9665  15.0361  15.2125  15.2258  15.2328  15.2344  15.4058  15.4544
    15.7302  15.7855  15.8019  15.8668  15.9229  16.0222  16.0788  16.0836
    16.1159  16.2234  16.3277  16.3467  16.3720  16.3920  16.5004  16.5415
    16.5836  16.6686  16.6708  16.6901  16.7408  16.7666  16.8836  17.0052
    17.1427  17.1514  17.2158  17.2471  17.3550  17.4283  17.5392  17.5723
    17.5856  17.6542  17.6953  17.7350  17.7358  18.0335  18.2157  18.2219
    18.2330  18.4001  18.4210  18.4644  18.4977  18.5837  18.7372  18.8114
    18.8329  18.8705  18.9444  19.0023  19.0434  19.1506  19.2034  19.2102
    19.4427  19.4848  19.6109  19.8284  19.8354  19.8448  20.0470  20.0916
    20.1432  20.1981  20.2236  20.2659  20.3686  20.4471  20.5181  20.5957
    20.7109  20.7148  20.7608  20.8430  20.8977  20.9232  20.9292  20.9828
    21.0062  21.0360  21.0429  21.1329  21.1826  21.1898  21.2456  21.2781
    21.3369  21.4104  21.4690  21.5186  21.5441  21.6002  21.6614  21.7555
    21.7579  21.8880  21.8975  21.9122  21.9502  22.0692  22.0810  22.1370
    22.2102  22.2275  22.2373  22.3641  22.5029  22.6294  22.7468  22.7521
    22.7720  22.8037  22.9736  23.0104  23.1184  23.1966  23.2018  23.2030
    23.2043  23.4096  23.4356  23.4397  23.4710  23.5588  23.6435  23.8056
    23.8329  23.9248  23.9515  23.9549  24.0229  24.2689  24.3159  24.3241
    24.3413  24.5665  24.5706  24.6489  24.6631  24.8922  24.9396  24.9759
    24.9896  24.9951  25.1097  25.2673  25.2750  25.2912  25.3334  25.3730
    25.3737  25.4101  25.5243  25.8299  25.8456  25.8958  25.9309  25.9950
    26.1254  26.1435  26.2801  26.4183  26.5172  26.5193  26.5991  26.6260
    26.6737  26.7620  26.7774  26.7838  26.8555  26.9188  26.9976  27.0662
    27.1607  27.2448  27.2575  27.3762  27.3768  27.4462  27.5255  27.5909
    27.6117  27.6150  27.7892  27.8384  27.9866  28.0015  28.0036  28.0070
    28.0685  28.0885  28.2109  28.2188  28.2830  28.3211  28.3640  28.4775
    28.5076  28.5255  28.5406  28.5837  28.6105  28.6196  28.7568  28.7759
    28.8361  28.8844  28.9148  28.9516  28.9892  29.0115  29.0582  29.1110
    29.1699  29.2129  29.2562  29.3223  29.3351  29.3562  29.5220  29.5235
    29.6435  29.6817  29.6993  29.8503  29.8528  30.0079  30.0839  30.1897
    30.2434  30.2539  30.2600  30.3348  30.4845  30.5057  30.5453  30.5455
    30.6912  30.7160  30.8314  30.8378  30.8606  30.8728  30.9095  30.9533
    31.0345  31.0643  31.1297  31.1875  31.2239  31.2623  31.2991  31.4533
    31.4745  31.5913  31.6064  31.7289  31.7437  31.7622  31.8389  31.8450
    31.9618  31.9705  32.1526  32.2629  32.2871  32.2895  32.4237  32.4419
    32.5279  32.5455  32.6314  32.6823  32.7716  32.7965  32.8307  32.8738
    32.9242  33.0411  33.0434  33.0745  33.1027  33.1597  33.1744  33.2239
    33.3007  33.3165  33.3702  33.3965  33.4757  33.6047  33.6484  33.7428
    33.7803  33.7813  33.8163  33.8260  33.8679  33.8684  33.9496  34.0294
    34.0404  34.0625  34.0713  34.0841

          k = 0.0000 0.0000 0.0610 ( 26936 PWs)   bands (ev):

   -29.7289 -29.7281 -28.6243 -28.6234 -21.3576 -20.9330 -20.0111 -18.7094
   -18.6160 -18.2241 -17.5288 -17.0591 -16.5066 -14.9359 -14.5793 -13.9453
   -13.5355 -12.9036 -12.7891 -11.9230 -11.8763 -11.6016 -11.4712 -11.4167
   -10.5228 -10.4048 -10.3713 -10.3590  -9.9347  -9.1728  -9.1332  -9.1220
    -8.6983  -8.6912  -8.6229  -8.3391  -8.1564  -7.8320  -7.5791  -7.2537
    -6.9897  -6.9874  -6.0941  -6.0173  -5.9295  -5.9171  -5.4808  -4.6989
    -4.3412  -3.8223  -0.5144   0.0109   0.4867   0.9864   1.3721   1.4958
     1.6348   2.0028   2.1785   2.6824   2.8691   3.0534   3.1863   3.3933
     3.3957   3.7468   4.1644   4.2156   4.2160   4.4021   4.4894   4.5993
     4.6366   4.7210   4.9556   5.0037   5.3756   5.4704   5.5458   5.8618
     5.9214   5.9969   6.0483   6.0989   6.1080   6.2934   6.4917   6.6762
     6.7235   6.7707   6.8271   6.8463   6.9332   6.9881   7.0918   7.1907
     7.3213   7.3674   7.4669   7.7734   8.0233   8.0238   8.0286   8.0788
     8.0947   8.2579   8.2887   8.3400   8.3681   8.3883   8.5137   8.6163
     8.6571   8.8561   8.9084   8.9347   8.9369   9.2045   9.3261   9.3595
     9.3847   9.4432   9.4853   9.6465   9.6472   9.7932   9.9594  10.2333
    10.4002  10.4017  10.4805  10.5091  10.6254  10.7819  10.8210  10.9587
    10.9648  10.9649  11.0391  11.1218  11.1335  11.2437  11.2927  11.5171
    11.5255  11.5691  11.8285  11.8290  11.8911  11.9028  12.1771  12.3018
    12.3269  12.3847  12.4919  12.5500  12.6539  12.7289  12.7333  12.7791
    12.8041  12.8783  13.0301  13.0649  13.2618  13.2784  13.5242  13.5362
    13.9259  14.0127  14.1621  14.2415  14.2438  14.2677  14.3385  14.3433
    14.4185  14.5985  14.6118  14.6446  14.6680  14.6811  14.8319  14.8906
    14.9059  15.1096  15.1391  15.2541  15.2670  15.3499  15.5002  15.6361
    15.6795  15.8120  15.8313  15.8393  15.9380  15.9845  16.0683  16.1238
    16.2168  16.3148  16.4531  16.4758  16.4863  16.5779  16.5965  16.6293
    16.6671  16.6995  16.7473  16.8293  16.9390  16.9536  17.0435  17.0985
    17.2460  17.3159  17.3641  17.3810  17.4297  17.4527  17.5445  17.6066
    17.6246  17.6895  17.7995  17.8007  17.8453  18.0468  18.1943  18.2033
    18.2036  18.4256  18.4463  18.6001  18.6762  18.7013  18.8381  18.9000
    18.9213  19.0159  19.0248  19.1310  19.1853  19.2643  19.2647  19.3533
    19.3953  19.4074  19.6199  19.8186  19.9025  19.9196  20.0369  20.0468
    20.0615  20.1333  20.3355  20.3566  20.4341  20.4541  20.6220  20.6273
    20.6498  20.6681  20.7861  20.8107  20.8723  20.9130  20.9509  20.9657
    21.0595  21.1652  21.1683  21.2393  21.2849  21.3189  21.3319  21.4100
    21.4895  21.5110  21.5669  21.5856  21.6634  21.7020  21.7629  21.8329
    21.8716  21.8826  21.9564  22.0110  22.0613  22.0749  22.1794  22.2050
    22.2235  22.2790  22.3346  22.4170  22.4676  22.4738  22.6386  22.7775
    22.8022  22.8174  22.9378  23.0556  23.1146  23.2290  23.2549  23.2655
    23.2946  23.4032  23.4038  23.4255  23.5436  23.7473  23.8841  23.8877
    24.0422  24.0875  24.1027  24.1180  24.1833  24.1877  24.3163  24.4099
    24.4413  24.5975  24.6041  24.6928  24.7288  24.8516  24.9364  24.9828
    25.0818  25.1592  25.1912  25.1994  25.2501  25.3092  25.3547  25.3867
    25.4557  25.5119  25.5884  25.6924  25.7693  25.8031  25.8456  26.1000
    26.1122  26.1429  26.1934  26.3115  26.4658  26.5239  26.5889  26.6258
    26.7675  26.7928  26.8338  26.8463  26.9564  26.9755  27.0278  27.0770
    27.1739  27.2775  27.3160  27.3231  27.3389  27.3782  27.4371  27.5943
    27.6069  27.6284  27.6449  27.6517  27.7228  27.8287  27.9303  28.0394
    28.0629  28.1020  28.1398  28.1767  28.2279  28.3071  28.3292  28.4454
    28.4620  28.4954  28.5562  28.6070  28.6349  28.6447  28.6790  28.7110
    28.7337  28.8247  28.8416  28.8814  28.8866  28.9142  28.9769  29.0253
    29.0319  29.0516  29.1452  29.1467  29.1649  29.1909  29.3032  29.3849
    29.4832  29.5403  29.6893  29.7253  29.7876  29.8124  29.9643  30.0838
    30.1756  30.1828  30.3136  30.3514  30.3648  30.4131  30.5159  30.6024
    30.6401  30.7318  30.7483  30.7702  30.7805  30.8958  30.8958  30.9036
    30.9231  31.0785  31.0803  31.0916  31.1523  31.1851  31.1903  31.2491
    31.3597  31.4003  31.4306  31.5222  31.5852  31.7669  31.7805  31.7818
    31.8260  31.8477  32.0681  32.0953  32.1690  32.3449  32.3756  32.4364
    32.4742  32.5179  32.6079  32.6131  32.6173  32.6936  32.7811  32.7995
    32.8038  32.8628  32.8929  32.9450  33.0691  33.0873  33.1386  33.2469
    33.2626  33.2923  33.2953  33.3088  33.5043  33.5192  33.5463  33.6002
    33.6813  33.6834  33.7362  33.7955  33.8214  33.8497  33.9016  33.9437
    33.9544  34.0160  34.0563  34.1576

          k = 0.0000 0.0000 0.0657 ( 26920 PWs)   bands (ev):

   -29.6987 -29.6979 -28.6630 -28.6621 -21.2947 -20.8717 -19.9525 -18.7754
   -18.6816 -18.3487 -17.6428 -17.0450 -16.5905 -14.9289 -14.6136 -13.9268
   -13.4349 -12.8248 -12.6801 -11.8237 -11.8074 -11.6032 -11.3748 -11.3277
   -10.5907 -10.3288 -10.3212 -10.3177  -9.8464  -9.1568  -9.1252  -9.0548
    -8.7454  -8.7362  -8.6352  -8.2755  -8.1552  -7.8971  -7.6791  -7.1943
    -7.1541  -7.0778  -6.2642  -6.0577  -5.9779  -5.8906  -5.6209  -4.8146
    -4.3571  -3.9121  -0.4387   0.0469   0.5670   1.2038   1.4563   1.7145
     1.7528   2.0790   2.0812   2.7522   2.9384   3.1395   3.2555   3.4536
     3.4789   3.8221   4.1131   4.2366   4.2907   4.4827   4.5743   4.6387
     4.7045   4.7327   4.9203   5.0466   5.1782   5.4028   5.6018   5.8333
     5.8382   5.9402   5.9661   6.0827   6.1097   6.1380   6.5705   6.6221
     6.6415   6.6855   6.7664   6.7994   6.8062   6.8801   6.9940   7.1638
     7.1797   7.2749   7.2986   7.6110   7.8531   7.8781   7.9118   8.0339
     8.0686   8.1166   8.1446   8.1602   8.3005   8.4380   8.4381   8.5434
     8.6985   8.7141   8.9491   8.9507   9.0155   9.2357   9.2402   9.2828
     9.3013   9.5084   9.5470   9.6785   9.7190   9.7243   9.9773  10.0321
    10.2014  10.3744  10.4011  10.4232  10.4921  10.7480  10.8672  10.9954
    11.0022  11.0289  11.0831  11.1411  11.2014  11.2828  11.3782  11.4089
    11.4972  11.5429  11.7027  11.8283  11.8857  11.9832  12.0822  12.1515
    12.2517  12.4693  12.4762  12.4833  12.6334  12.6471  12.7260  12.8059
    12.8846  12.8897  12.9734  13.0241  13.1348  13.1757  13.5404  13.5700
    13.8376  13.9641  14.1164  14.1519  14.1757  14.3125  14.3162  14.3817
    14.4300  14.5614  14.6122  14.6452  14.6466  14.7233  14.8870  15.0008
    15.0545  15.0571  15.2434  15.2785  15.2948  15.3416  15.5596  15.6789
    15.7448  15.8174  15.8967  15.9917  16.0044  16.0056  16.0979  16.1553
    16.2619  16.3963  16.4190  16.4734  16.5162  16.6621  16.6709  16.8022
    16.8252  16.8984  16.9076  17.0297  17.0341  17.0919  17.1343  17.1714
    17.3612  17.4623  17.4835  17.4895  17.4928  17.6040  17.6406  17.6747
    17.6860  17.7328  17.9000  17.9688  18.0365  18.1377  18.1464  18.1916
    18.2637  18.4507  18.5280  18.6220  18.7754  18.7754  18.8263  18.9585
    18.9651  19.0370  19.1454  19.2590  19.2883  19.3171  19.3657  19.4563
    19.5472  19.7013  19.7083  19.8079  19.8726  19.9682  20.0026  20.0096
    20.0177  20.1208  20.4289  20.4351  20.4416  20.4851  20.5237  20.5410
    20.5839  20.6183  20.6351  20.8417  20.8617  20.9148  21.0076  21.0201
    21.1093  21.1969  21.2371  21.3151  21.3814  21.4026  21.5541  21.5626
    21.5866  21.6560  21.6863  21.7018  21.7689  21.8192  21.8544  21.8815
    21.9283  21.9580  22.0457  22.0961  22.1122  22.1317  22.2048  22.2994
    22.3425  22.3746  22.4153  22.4412  22.5351  22.5490  22.6561  22.7981
    22.8571  22.8646  22.9569  22.9775  23.2017  23.2275  23.2362  23.2544
    23.3040  23.3915  23.4232  23.4658  23.6151  23.8349  23.9677  24.0229
    24.1713  24.2423  24.2608  24.3146  24.3312  24.3376  24.4765  24.5077
    24.5365  24.6390  24.6664  24.7207  24.7851  24.7897  24.8097  24.9987
    25.0049  25.0295  25.1408  25.2666  25.3287  25.4110  25.4475  25.4818
    25.5433  25.6305  25.6508  25.6555  25.7243  25.7320  25.7460  25.9562
    26.0803  26.1419  26.2169  26.2281  26.2466  26.5162  26.5751  26.6202
    26.6645  26.7291  26.8869  26.9478  26.9699  27.0081  27.0324  27.0975
    27.1220  27.2091  27.3058  27.3434  27.3458  27.3636  27.4582  27.4802
    27.5332  27.5459  27.6633  27.6682  27.6837  27.7829  27.8508  27.9124
    27.9981  28.0411  28.0742  28.0946  28.1606  28.1959  28.2505  28.2888
    28.2895  28.3058  28.3679  28.3827  28.4419  28.5168  28.5289  28.5408
    28.6338  28.6717  28.7847  28.8133  28.8142  28.9414  28.9633  29.0042
    29.0593  29.0754  29.0848  29.1729  29.1992  29.2030  29.2297  29.3201
    29.4584  29.4614  29.6690  29.6956  29.8096  29.8280  29.8473  29.8960
    30.1167  30.1268  30.2260  30.2322  30.2650  30.3544  30.4090  30.4515
    30.5498  30.5904  30.6971  30.7216  30.7713  30.7730  30.7847  30.8904
    30.9526  30.9529  31.0887  31.1081  31.1430  31.1711  31.2303  31.2485
    31.2838  31.3272  31.4090  31.4112  31.4969  31.6303  31.7582  31.7770
    31.8862  31.9253  31.9755  31.9909  32.0097  32.0714  32.2271  32.2951
    32.3581  32.3794  32.4092  32.5388  32.5425  32.5600  32.6143  32.6661
    32.6792  32.6869  32.7157  32.7806  32.7939  32.8983  33.0062  33.1064
    33.1419  33.2852  33.3255  33.3674  33.4861  33.5126  33.5582  33.5733
    33.5948  33.6383  33.6754  33.6782  33.7399  33.8919  33.8957  33.9833
    34.0045  34.0115  34.1459  34.1530

          k = 0.0000 0.0000 0.0704 ( 26920 PWs)   bands (ev):

[...]
    11.2366  11.3888  11.5051  11.5756  11.7339  11.8457  11.9215  12.0306
    12.0613  12.2665  12.3345  12.4671  12.4926  12.5296  12.6912  12.6916
    12.7256  12.7545  12.8890  13.0202  13.1756  13.2651  13.3577  13.4056
    13.6377  13.7452  13.7756  13.8394  13.9648  14.0457  14.1052  14.1232
    14.2293  14.2479  14.5439  14.5864  14.6899  14.6956  14.7322  14.9030
    15.2505  15.2618  15.2796  15.2922  15.4386  15.5829  15.6023  15.6384
    15.9308  16.0439  16.0791  16.1792  16.1953  16.2515  16.2683  16.5327
    16.5350  16.5623  16.6570  16.7125  16.9133  17.0038  17.0620  17.1461
    17.2607  17.3382  17.4382  17.4441  17.4979  17.6226  17.6521  17.7535
    17.8486  18.0423  18.1768  18.2439  18.3554  18.3841  18.4007  18.4293
    18.5990  18.7118  18.7266  18.7325  18.7586  18.9833  18.9861  19.0409
    19.1932  19.2385  19.2651  19.3696  19.4951  19.5487  19.6220  19.6298
    19.6981  19.7890  19.8687  19.9531  19.9573  19.9780  20.0273  20.1271
    20.1604  20.2542  20.3149  20.3164  20.3830  20.4573  20.4608  20.5261
    20.5727  20.5947  20.6667  20.7219  20.7713  20.7855  20.8949  20.9369
    20.9830  21.0507  21.0524  21.1201  21.1767  21.1862  21.2362  21.3548
    21.4094  21.4516  21.5333  21.5379  21.5616  21.7520  21.8471  21.8635
    21.8860  21.9236  21.9484  21.9979  22.1372  22.1557  22.2260  22.2463
    22.3190  22.4260  22.4968  22.5629  22.6065  22.6611  22.6851  22.7237
    22.7714  22.8412  22.8827  22.9175  22.9907  23.0236  23.0511  23.1131
    23.2524  23.2686  23.2799  23.3578  23.3834  23.4229  23.5440  23.5878
    23.6273  23.7077  23.7542  23.7658  23.9036  23.9151  23.9601  24.0289
    24.0821  24.1355  24.1692  24.2029  24.2993  24.3195  24.3544  24.4418
    24.5399  24.5492  24.6717  24.7005  24.7890  24.8381  24.8941  24.9065
    24.9087  24.9924  25.0036  25.0952  25.1217  25.2030  25.2440  25.3527
    25.4071  25.4091  25.4985  25.5414  25.5689  25.6569  25.7438  25.8169
    25.8294  25.8864  25.8908  25.9004  25.9226  25.9467  26.0347  26.1141
    26.1968  26.2738  26.3433  26.3639  26.4014  26.4276  26.5253  26.5527
    26.6259  26.7317  26.8664  26.8931  26.9766  27.1209  27.1365  27.2216
    27.2736  27.3959  27.4034  27.4568  27.4929  27.5191  27.6916  27.7137
    27.7395  27.7739  27.7823  27.8707  27.9089  27.9366  27.9401  28.0624
    28.1205  28.1490  28.1630  28.2311  28.2722  28.3902  28.4397  28.4886
    28.5065  28.5593  28.5795  28.6403  28.7112  28.7439  28.8069  28.8624
    28.8823  28.9874  29.0357  29.0379  29.1223  29.1684  29.1950  29.2322
    29.2969  29.3131  29.3664  29.3682  29.3769  29.4683  29.5265  29.5290
    29.6010  29.6772  29.7122  29.7364  29.8240  29.8805  29.9966  30.0014
    30.1363  30.2348  30.2894  30.2935  30.2964  30.3808  30.4178  30.4805
    30.4861  30.5686  30.6463  30.6475  30.6902  30.7024  30.8437  30.8543
    30.8679  30.8908  30.9484  30.9679  31.0212  31.0539  31.0857  31.1402
    31.1461  31.1869  31.2220  31.3668  31.4850  31.4872  31.5475  31.6155
    31.6180  31.6759  31.7707  31.8147  31.8462  31.9978  32.0042  32.1280
    32.1536  32.2320  32.3093  32.4714  32.4875  32.5934  32.6859  32.7581
    32.7894  32.8489  32.9048  32.9086  32.9628  33.0109  33.1433  33.2249
    33.2359  33.2589  33.3270  33.3755  33.4402  33.4488  33.6426  33.7043
    33.7820  33.7900  33.8811  33.9390

          k = 0.0000 0.0000 0.1080 ( 26966 PWs)   bands (ev):

   -29.4064 -29.4057 -29.0082 -29.0072 -20.5271 -20.1402 -20.0665 -19.6432
   -19.2290 -18.7396 -17.9462 -17.4687 -16.7176 -15.2019 -14.5904 -13.7588
   -13.3328 -12.4399 -12.0571 -11.5067 -11.1774 -11.1272 -10.6752 -10.2931
   -10.1004  -9.9652  -9.9625  -9.9405  -9.4037  -9.2758  -9.1438  -9.1376
    -9.0655  -8.8365  -8.7068  -8.6845  -8.1819  -8.1424  -8.1074  -7.7386
    -7.6680  -7.4906  -7.0015  -6.4880  -6.3642  -6.3349  -5.9570  -5.3107
    -4.6542  -4.2606  -0.2152   0.2808   1.0827   1.9288   2.3888   2.5363
     2.8056   2.8290   3.2703   3.2779   3.3119   3.5959   3.7716   4.0719
     4.1375   4.1928   4.2283   4.2497   4.2544   4.5335   4.7225   4.7323
     4.8699   4.9127   4.9407   5.1565   5.2170   5.2357   5.2691   5.4231
     5.4392   5.5375   5.5415   5.6405   5.6447   5.7456   5.8026   5.8583
     5.9855   6.0549   6.1610   6.2591   6.2618   6.3780   6.4006   6.4245
     6.5324   6.6108   6.6532   6.9763   7.1066   7.1284   7.2159   7.5141
     7.6582   7.7403   7.8097   7.8364   7.9023   7.9886   8.2249   8.2813
     8.4395   8.5202   8.5796   8.8931   8.9213   9.1654   9.2227   9.4454
     9.5486   9.6098   9.6584   9.8158   9.8664   9.9890  10.0168  10.0696
    10.0901  10.1807  10.2376  10.3335  10.3573  10.5543  10.5785  10.6522
    10.6615  10.6795  10.7129  10.8718  10.9810  11.1217  11.1380  11.1600
    11.1640  11.2224  11.6160  11.6442  11.8633  11.9215  11.9709  11.9864
    12.1747  12.3824  12.4107  12.4205  12.4207  12.4586  12.5869  12.6358
    12.6797  12.7652  12.8742  13.0163  13.0190  13.1182  13.4747  13.5293
    13.6400  13.7039  13.7910  13.9038  13.9629  14.0356  14.0966  14.1524
    14.1854  14.2908  14.4617  14.6234  14.6471  14.6857  14.7988  14.7994
    15.1047  15.1329  15.3418  15.4114  15.4971  15.6619  15.6735  15.7441
    15.9183  15.9761  16.0607  16.1413  16.2206  16.2479  16.2657  16.3999
    16.4202  16.5850  16.7578  16.7827  16.8527  16.8952  16.9968  17.1098
    17.3213  17.4293  17.4635  17.4903  17.4969  17.6129  17.6231  17.7797
    17.7894  18.0485  18.0749  18.3444  18.3614  18.4188  18.4406  18.6817
    18.7006  18.7085  18.7145  18.8461  18.8896  18.9345  19.0744  19.1395
    19.2943  19.3077  19.4297  19.4498  19.5029  19.6123  19.6637  19.8301
    19.8865  19.8940  19.9237  20.0205  20.0612  20.0855  20.0955  20.1974
    20.2331  20.2557  20.2945  20.3334  20.3536  20.3897  20.4565  20.5139
    20.5230  20.6155  20.6262  20.7079  20.8556  20.9165  20.9917  21.0188
    21.0933  21.1392  21.1814  21.1939  21.2791  21.3038  21.3288  21.4406
    21.4423  21.4430  21.5899  21.6299  21.7038  21.7081  21.8197  21.8845
    21.9282  22.0069  22.0252  22.1243  22.1375  22.1922  22.2426  22.2621
    22.3004  22.3021  22.4346  22.4637  22.4990  22.5685  22.5801  22.7223
    22.7506  22.7860  22.8378  22.8556  22.9143  23.0717  23.1480  23.1882
    23.2483  23.2597  23.3207  23.3574  23.4074  23.4468  23.5377  23.5559
    23.5698  23.7391  23.7827  23.7866  23.8245  23.8439  23.8552  23.8982
    23.9001  23.9397  24.0376  24.0502  24.1672  24.3353  24.3527  24.3958
    24.4908  24.5737  24.5912  24.6294  24.7365  24.7527  24.7898  24.9636
    25.0550  25.0727  25.1119  25.1478  25.1949  25.2331  25.3497  25.4221
    25.4863  25.4884  25.4922  25.5052  25.5325  25.5822  25.6594  25.6799
    25.6811  25.7286  25.7816  25.9791  25.9823  26.0243  26.0330  26.0624
    26.1412  26.3424  26.3534  26.3625  26.4906  26.5242  26.6219  26.7036
    26.7137  26.7468  26.8643  26.9033  27.0137  27.0671  27.1020  27.2252
    27.2711  27.2842  27.2892  27.3923  27.3984  27.6221  27.6971  27.7061
    27.7437  27.7578  27.8720  27.9173  27.9515  27.9640  28.1118  28.1269
    28.1539  28.1548  28.2123  28.2427  28.2530  28.2711  28.3065  28.3312
    28.5155  28.5446  28.5720  28.5853  28.6081  28.6343  28.8287  28.8348
    28.8882  28.9118  28.9133  29.0622  29.0988  29.1018  29.1433  29.1970
    29.2473  29.4368  29.4513  29.4972  29.5432  29.5743  29.5833  29.5915
    29.6590  29.6813  29.7305  29.8349  29.9034  29.9355  30.0568  30.0773
    30.1013  30.1060  30.1706  30.1883  30.1998  30.2402  30.2635  30.2809
    30.3118  30.3656  30.4168  30.4807  30.5092  30.6228  30.7001  30.7196
    30.7262  30.7648  30.8540  30.8675  30.9216  31.1024  31.1314  31.1506
    31.2288  31.2700  31.2849  31.4123  31.4529  31.5076  31.5233  31.5322
    31.6551  31.7648  31.7858  31.7870  31.8372  31.8618  31.9172  32.0746
    32.1586  32.2926  32.3991  32.4523  32.4876  32.5166  32.6697  32.7129
    32.7852  32.7905  32.8181  33.0361  33.1007  33.1427  33.2286  33.2352
    33.2531  33.2838  33.4015  33.4235  33.4480  33.5388  33.5776  33.5925
    33.6858  33.6871  33.8637  33.8825

          k = 0.0000 0.0000 0.1127 ( 26964 PWs)   bands (ev):

   -29.3893 -29.3886 -29.0269 -29.0259 -20.4227 -20.1827 -20.0552 -19.7401
   -19.1526 -18.8285 -17.8820 -17.5409 -16.7022 -15.2259 -14.5661 -13.7905
   -13.2971 -12.4765 -11.9679 -11.5887 -11.1408 -11.1112 -10.5829 -10.2593
   -10.0103  -9.9487  -9.9464  -9.9418  -9.3884  -9.2914  -9.1610  -9.1549
    -9.1079  -8.8825  -8.7987  -8.6530  -8.1677  -8.1079  -8.0620  -7.8025
    -7.7579  -7.3854  -7.1206  -6.4139  -6.3749  -6.3475  -6.0436  -5.2772
    -4.6943  -4.2563  -0.2259   0.3269   1.0315   2.0355   2.4606   2.5883
     2.7046   2.8900   3.1821   3.2802   3.5001   3.6141   3.7304   4.0423
     4.0725   4.2835   4.3196   4.3653   4.3716   4.6343   4.6604   4.6792
     4.7385   4.8620   4.9789   4.9917   5.0604   5.2099   5.3751   5.3934
     5.4160   5.5616   5.5899   5.7024   5.7489   5.7858   5.8717   5.8947
     5.9623   6.0350   6.0759   6.0959   6.1970   6.2111   6.2549   6.4558
     6.5627   6.6141   6.6790   6.8503   6.9616   7.2723   7.3635   7.5600
     7.5811   7.6745   7.7967   7.9467   7.9555   8.1168   8.1258   8.1630
     8.2828   8.4547   8.4680   8.8280   9.0637   9.2988   9.3680   9.4487
     9.5622   9.6160   9.6971   9.7211   9.8427   9.9194  10.0118  10.1044
    10.1351  10.1653  10.2339  10.4090  10.4127  10.4577  10.5269  10.5613
    10.7257  10.7783  10.7820  10.7963  10.8616  11.0118  11.0494  11.0713
    11.1439  11.1928  11.7118  11.7241  11.9359  11.9707  11.9725  11.9939
    12.2265  12.3497  12.3845  12.4278  12.4788  12.5347  12.5582  12.5655
    12.6132  12.7424  12.7938  12.8651  13.0210  13.1487  13.4543  13.6093
    13.6755  13.7634  13.8249  13.8451  13.9501  14.0234  14.0454  14.1273
    14.2815  14.3489  14.4418  14.5398  14.6558  14.6862  14.7300  14.8766
    14.9707  15.0443  15.3506  15.5447  15.5727  15.6905  15.7600  15.8442
    15.8995  15.9484  15.9711  16.0540  16.2221  16.2452  16.2549  16.3573
    16.4037  16.6151  16.6933  16.7710  16.8569  16.8639  17.0295  17.0449
    17.3741  17.4162  17.5110  17.5359  17.5548  17.6011  17.6460  17.7148
    17.7943  17.9300  18.0220  18.2797  18.4579  18.4973  18.5100  18.6721
    18.6848  18.6909  18.7025  18.8908  19.0102  19.0230  19.2333  19.2570
    19.4477  19.4803  19.4866  19.5656  19.5777  19.6083  19.7446  19.8616
    19.9047  19.9263  19.9913  20.0332  20.0427  20.0963  20.1774  20.2016
    20.2174  20.2684  20.2929  20.2992  20.3360  20.3942  20.4760  20.4930
    20.5920  20.6048  20.6522  20.6804  20.7817  20.9056  20.9315  20.9505
    21.1814  21.1976  21.2749  21.3061  21.3218  21.4359  21.4736  21.5394
    21.5504  21.6176  21.6185  21.6596  21.7658  21.7792  21.8973  21.8979
    21.9816  22.0610  22.0773  22.1214  22.1658  22.1906  22.1993  22.2349
    22.3024  22.3686  22.4345  22.4793  22.5165  22.5532  22.5707  22.6640
    22.6722  22.6829  22.7753  22.7896  22.8539  22.9741  22.9841  23.1359
    23.1602  23.1723  23.1905  23.2042  23.2866  23.4591  23.5265  23.5557
    23.6199  23.7130  23.7207  23.7497  23.7787  23.7845  23.8193  23.9632
    23.9860  24.0771  24.1514  24.1939  24.2354  24.3637  24.3817  24.4651
    24.4995  24.5165  24.5179  24.6135  24.6371  24.6724  24.7683  24.9153
    24.9228  25.0713  25.1230  25.1354  25.1431  25.1643  25.2126  25.2134
    25.3231  25.3320  25.3476  25.3620  25.5487  25.5691  25.7132  25.7356
    25.7686  25.8322  25.9856  26.0115  26.0659  26.0890  26.2482  26.2992
    26.3095  26.3268  26.4262  26.4570  26.5953  26.6168  26.6317  26.6846
    26.7773  26.8358  26.8694  26.8872  26.9290  27.0536  27.0944  27.1001
    27.2127  27.2139  27.2766  27.2789  27.4021  27.4686  27.6101  27.6373
    27.6926  27.7539  27.8107  27.8791  27.9012  27.9402  27.9549  28.0940
    28.1192  28.1743  28.1781  28.2035  28.2630  28.3098  28.3751  28.4034
    28.4361  28.5422  28.6733  28.6986  28.7094  28.7274  28.7755  28.8801
    28.8874  28.9248  28.9887  29.0345  29.1582  29.1675  29.2063  29.2118
    29.2989  29.4464  29.5072  29.5535  29.5633  29.5645  29.6119  29.6630
    29.6766  29.7918  29.7955  29.8538  29.9003  29.9291  29.9442  29.9589
    29.9687  30.0422  30.0658  30.0687  30.0715  30.0781  30.1198  30.1850
    30.3109  30.3813  30.3870  30.4077  30.4616  30.4940  30.5677  30.6368
    30.6837  30.7250  30.7591  30.7807  30.8162  31.0028  31.0395  31.1393
    31.1601  31.2761  31.3413  31.4062  31.4191  31.4758  31.5622  31.5809
    31.6044  31.7882  31.8175  31.8661  31.9194  32.0411  32.1042  32.1919
    32.1969  32.3203  32.3719  32.4162  32.5192  32.5617  32.6072  32.6696
    32.7107  32.7284  32.7668  32.9300  32.9497  33.0347  33.0557  33.0763
    33.2423  33.2971  33.3699  33.3931  33.6238  33.6751  33.7380  33.7474
    33.7724  33.7880  33.8363  33.9254

          k = 0.0000 0.0000-0.1174 ( 26988 PWs)   bands (ev):

   -29.3832 -29.3824 -29.0336 -29.0326 -20.3430 -20.2663 -20.0114 -19.7878
   -19.1151 -18.8700 -17.8534 -17.5723 -16.6970 -15.2341 -14.5575 -13.8016
   -13.2844 -12.4895 -11.9274 -11.6269 -11.1291 -11.1057 -10.5421 -10.2659
    -9.9761  -9.9430  -9.9408  -9.9249  -9.3985  -9.3012  -9.1670  -9.1608
    -9.1091  -8.8978  -8.8361  -8.6406  -8.1778  -8.1081  -7.9551  -7.9143
    -7.7640  -7.3139  -7.1967  -6.3798  -6.3785  -6.3518  -6.0818  -5.2650
    -4.7088  -4.2549  -0.2295   0.3439   1.0128   2.0793   2.4879   2.6072
     2.6626   2.9208   3.1351   3.2825   3.5992   3.6236   3.7151   3.9767
     4.0264   4.3099   4.4184   4.4501   4.4652   4.5392   4.6321   4.7481
     4.7888   4.8239   4.8383   4.8408   5.2014   5.2115   5.2180   5.3951
     5.5421   5.5450   5.6028   5.6891   5.7613   5.8837   5.8928   5.9282
     5.9476   6.0473   6.0525   6.0579   6.1257   6.1415   6.1664   6.4504
     6.5625   6.6309   6.7738   6.7886   6.8546   7.4014   7.4469   7.5076
     7.5255   7.5769   7.9034   7.9558   8.0157   8.0885   8.1182   8.1482
     8.2329   8.3630   8.4458   8.8059   9.1739   9.3363   9.3892   9.4809
     9.5290   9.5549   9.6934   9.8355   9.8475   9.8562   9.9500   9.9883
    10.2676  10.2758  10.3131  10.3238  10.3358  10.4416  10.4547  10.6402
    10.6665  10.8292  10.8430  10.8477  10.8948  10.8973  10.9224  11.0132
    11.1518  11.2013  11.7405  11.7815  11.9154  11.9482  11.9895  12.0960
    12.1589  12.3622  12.3718  12.4277  12.5284  12.5361  12.5371  12.5819
    12.6718  12.6993  12.7127  12.7889  12.9960  13.2452  13.3598  13.6562
    13.7896  13.7981  13.8162  13.8188  13.8375  14.0154  14.0826  14.1002
    14.3440  14.3736  14.4452  14.4707  14.6769  14.6889  14.7025  14.9064
    14.9090  15.0097  15.3473  15.6163  15.6421  15.7086  15.7404  15.7985
    15.9174  16.0004  16.0058  16.0501  16.0758  16.1747  16.2531  16.4540
    16.4584  16.5804  16.6258  16.7045  16.9094  16.9143  16.9917  17.0343
    17.3951  17.4214  17.5137  17.5501  17.5675  17.6015  17.6735  17.7373
    17.8028  17.8136  18.0082  18.2550  18.5466  18.5536  18.5817  18.5956
    18.6018  18.6594  18.6837  18.8985  19.0065  19.1146  19.2988  19.4197
    19.5013  19.5300  19.5320  19.6222  19.7068  19.7101  19.7353  19.7591
    19.8135  19.9489  19.9741  19.9796  20.0217  20.0750  20.1217  20.2041
    20.2416  20.2473  20.2687  20.3298  20.3414  20.3670  20.5345  20.5438
    20.5586  20.6917  20.6961  20.7292  20.7504  20.8215  20.9059  21.0269
    21.0971  21.2194  21.2264  21.2729  21.4033  21.4557  21.5051  21.5472
    21.5598  21.7348  21.7438  21.8007  21.8100  21.8110  21.8292  21.8972
    22.0143  22.0288  22.0386  22.1019  22.2072  22.2965  22.2994  22.3002
    22.3371  22.3590  22.3778  22.4171  22.4816  22.5207  22.5208  22.6099
    22.6257  22.7346  22.8139  22.8431  22.8618  22.9002  22.9692  22.9871
    23.0200  23.1103  23.1871  23.2139  23.2251  23.3177  23.3868  23.4598
    23.5151  23.7465  23.7761  23.7966  23.7997  23.8616  23.8818  23.9659
    24.1199  24.1669  24.2311  24.2712  24.2954  24.3851  24.4243  24.4545
    24.4674  24.5911  24.6050  24.6149  24.6498  24.6916  24.7229  24.8193
    24.8496  24.8897  24.9562  24.9907  25.0056  25.0610  25.1219  25.2887
    25.3019  25.3181  25.3359  25.4207  25.5053  25.5502  25.5792  25.7321
    25.9672  26.0203  26.0849  26.1362  26.2244  26.2398  26.2720  26.2815
    26.2854  26.3017  26.4043  26.4488  26.5034  26.6783  26.7230  26.7794
    26.7963  26.8265  26.9091  26.9330  26.9473  26.9813  27.0562  27.0886
    27.1206  27.1230  27.1829  27.1844  27.4871  27.5890  27.5940  27.6405
    27.6567  27.6997  27.7061  27.7417  27.8759  27.9163  27.9356  27.9404
    28.1282  28.1336  28.1752  28.2394  28.3121  28.3720  28.4051  28.4203
    28.4521  28.5569  28.5616  28.5809  28.7846  28.7895  28.8124  28.8830
    29.0292  29.0668  29.1340  29.2038  29.2126  29.2435  29.2606  29.2920
    29.2976  29.3905  29.4222  29.4278  29.5462  29.5671  29.6138  29.6170
    29.6363  29.6554  29.7467  29.7827  29.8134  29.8725  29.8967  29.9030
    29.9491  29.9575  30.0104  30.0258  30.1678  30.1966  30.2091  30.2739
    30.3170  30.3353  30.3548  30.3975  30.4291  30.5202  30.5516  30.6578
    30.6621  30.6816  30.6816  30.7556  30.7782  30.8732  31.0160  31.1358
    31.1532  31.1825  31.2334  31.3744  31.3790  31.4924  31.5084  31.6237
    31.8090  31.8095  31.8453  31.9444  31.9755  32.1029  32.1246  32.2040
    32.2602  32.4288  32.4295  32.4829  32.4968  32.5973  32.6410  32.6445
    32.7013  32.7223  32.7484  32.7738  32.8005  32.8303  32.8419  32.9621
    33.2384  33.3619  33.4160  33.4722  33.5917  33.7082  33.7475  33.7582
    33.8475  33.8738  33.9736  34.0146

     the Fermi energy is    -2.6004 ev

     Writing output data file F9.save/

     init_run     :      4.83s CPU      4.98s WALL (       1 calls)
     electrons    :   2004.01s CPU   2029.79s WALL (       1 calls)

     Called by init_run:
     wfcinit      :      0.00s CPU      0.00s WALL (       1 calls)
     potinit      :      0.26s CPU      0.29s WALL (       1 calls)
     hinit0       :      4.04s CPU      4.12s WALL (       1 calls)

     Called by electrons:
     c_bands      :   2004.01s CPU   2029.77s WALL (       1 calls)
     v_of_rho     :      0.22s CPU      0.23s WALL (       1 calls)
     newd         :      0.14s CPU      0.17s WALL (       1 calls)

     Called by c_bands:
     init_us_2    :      0.01s CPU      0.07s WALL (      26 calls)
     cegterg      :   1970.99s CPU   1994.90s WALL (      26 calls)

     Called by sum_band:

     Called by *egterg:
     h_psi        :    185.12s CPU    189.01s WALL (     467 calls)
     s_psi        :     10.76s CPU     10.87s WALL (     467 calls)
     g_psi        :      1.68s CPU      1.69s WALL (     415 calls)
     cdiaghg      :   1448.85s CPU   1456.93s WALL (     441 calls)

     Called by h_psi:
     h_psi:pot    :    183.39s CPU    186.55s WALL (     467 calls)
     h_psi:calbec :     11.64s CPU     12.07s WALL (     467 calls)
     vloc_psi     :    161.10s CPU    163.73s WALL (     467 calls)
     add_vuspsi   :     10.65s CPU     10.75s WALL (     467 calls)

     General routines
     calbec       :     11.64s CPU     12.06s WALL (     467 calls)
     fft          :      0.21s CPU      0.22s WALL (      14 calls)
     ffts         :      0.00s CPU      0.00s WALL (       1 calls)
     fftw         :    145.64s CPU    148.00s WALL (  279944 calls)
     interpolate  :      0.01s CPU      0.01s WALL (       1 calls)
     davcio       :      0.00s CPU      0.62s WALL (      52 calls)

     Parallel routines
     fft_scatt_xy :     24.37s CPU     24.78s WALL (  279959 calls)
     fft_scatt_yz :     39.15s CPU     39.93s WALL (  279959 calls)

     PWSCF        : 33m34.99s CPU    35m19.32s WALL


   This run was terminated on:  23:34:43  19Apr2021            

=------------------------------------------------------------------------------=
   JOB DONE.
=------------------------------------------------------------------------------=
