
     Program PWSCF v.6.3 starts on 16Apr2021 at 18: 6:46 

     This program is part of the open-source Quantum ESPRESSO suite
     for quantum simulation of materials; please cite
         "P. Giannozzi et al., J. Phys.:Condens. Matter 21 395502 (2009);
         "P. Giannozzi et al., J. Phys.:Condens. Matter 29 465901 (2017);
          URL http://www.quantum-espresso.org", 
     in publications or presentations arising from this work. More details at
     http://www.quantum-espresso.org/quote

     Parallel version (MPI), running on    16 processors
     R & G space division:  proc/nbgrp/npool/nimage =      16
     Waiting for input...
     Reading input from standard input
     Message from routine read_cards :
     DEPRECATED: no units specified in CELL_PARAMETERS card

     Current dimensions of program PWSCF are:
     Max number of different atomic species (ntypx) = 10
     Max number of k-points (npk) =  40000
     Max angular momentum in pseudopotentials (lmaxx) =  3

     Atomic positions and unit cell read from directory:
     /home/zfwang/scratch/GNRDATASET/AGNR/AGNR_10_Defect_A/AGNR_10_Defect_A.save/


     Subspace diagonalization in iterative solution of the eigenvalue problem:
     a serial algorithm will be used


     Parallelization info
     --------------------
     sticks:   dense  smooth     PW     G-vecs:    dense   smooth      PW
     Min        1795     598    154               268889    51736    6769
     Max        1797     599    155               268893    51739    6771
     Sum       28723    9573   2475              4302255   827793  108323



     bravais-lattice index     =            0
     lattice parameter (alat)  =       1.8897  a.u.
     unit-cell volume          =   24226.2045 (a.u.)^3
     number of atoms/cell      =           96
     number of atomic types    =            2
     number of electrons       =       333.00
     number of Kohn-Sham states=          500
     kinetic-energy cutoff     =      40.0000  Ry
     charge density cutoff     =     480.0000  Ry
     Exchange-correlation      = PBE ( 1  4  3  4 0 0)

     celldm(1)=  18.897261  celldm(2)=   2.106780  celldm(3)=   1.704000
     celldm(4)=   0.000000  celldm(5)=   0.000000  celldm(6)=   0.000000

     crystal axes: (cart. coord. in units of alat)
               a(1) = (  10.000000   0.000000   0.000000 )  
               a(2) = (   0.000000  21.067800   0.000000 )  
               a(3) = (   0.000000   0.000000  17.040000 )  

     reciprocal axes: (cart. coord. in units 2 pi/alat)
               b(1) = (  0.100000  0.000000  0.000000 )  
               b(2) = (  0.000000  0.047466  0.000000 )  
               b(3) = (  0.000000  0.000000  0.058685 )  


     PseudoPot. # 1 for C  read from file:
     /home/zfwang/hp_home/MySoftware/qe-6.3/pseudo/C.pbe-n-rrkjus_psl.0.1.UPF
     MD5 check sum: fff530ed632a789b3b184014e67dd7f1
     Pseudo is Ultrasoft + core correction, Zval =  4.0
     Generated using "atomic" code by A. Dal Corso v.5.0.2 svn rev. 9415
     Using radial grid of 1073 points,  4 beta functions with: 
                l(1) =   0
                l(2) =   0
                l(3) =   1
                l(4) =   1
     Q(r) pseudized with 0 coefficients 


     PseudoPot. # 2 for H  read from file:
     /home/zfwang/hp_home/MySoftware/qe-6.3/pseudo/H.pbe-rrkjus_psl.0.1.UPF
     MD5 check sum: e164a6907b691c6980f16942be34de84
     Pseudo is Ultrasoft, Zval =  1.0
     Generated using "atomic" code by A. Dal Corso v.5.0.2 svn rev. 9415
     Using radial grid of  929 points,  2 beta functions with: 
                l(1) =   0
                l(2) =   0
     Q(r) pseudized with 0 coefficients 


     atomic species   valence    mass     pseudopotential
        C              4.00    12.01070     C ( 1.00)
        H              1.00     1.00794     H ( 1.00)

     No symmetry found



   Cartesian axes

     site n.     atom                  positions (alat units)
         1           C   tau(   1) = (   4.9999993   5.0086392   2.8408474  )
         2           C   tau(   2) = (   5.0000001   5.0214362   7.0892799  )
         3           C   tau(   3) = (   5.0000009   4.9956373  11.3409354  )
         4           C   tau(   4) = (   5.0000000   4.9890176  15.6130545  )
         5           C   tau(   5) = (   4.9999995   6.2192285   3.5669110  )
         6           C   tau(   6) = (   5.0000006   6.2279998   7.8190250  )
         7           C   tau(   7) = (   5.0000009   6.1987317  12.0785797  )
         8           C   tau(   8) = (   4.9999998   6.1967618  16.3458862  )
         9           C   tau(   9) = (   4.9999994   5.0004747   1.4748345  )
        10           C   tau(  10) = (   4.9999996   5.0208936   5.7247987  )
        11           C   tau(  11) = (   5.0000009   5.0048770   9.9747592  )
        12           C   tau(  12) = (   5.0000005   4.9878956  14.2459988  )
        13           C   tau(  13) = (   4.9999995   7.4477509   2.8627585  )
        14           C   tau(  14) = (   5.0000004   7.4628225   7.1186744  )
        15           C   tau(  15) = (   5.0000009   7.4314489  11.3755975  )
        16           C   tau(  16) = (   4.9999999   7.4252242  15.6395697  )
        17           C   tau(  17) = (   4.9999997   8.6871204   3.5726118  )
        18           C   tau(  18) = (   5.0000006   8.7031144   7.8276818  )
        19           C   tau(  19) = (   5.0000006   8.6646100  12.0875956  )
        20           C   tau(  20) = (   4.9999998   8.6626085  16.3510175  )
        21           C   tau(  21) = (   4.9999995   6.2039924   0.7377531  )
        22           C   tau(  22) = (   4.9999997   6.2282191   4.9963009  )
        23           C   tau(  23) = (   5.0000009   6.2166597   9.2486554  )
        24           C   tau(  24) = (   5.0000006   6.1944418  13.5110263  )
        25           C   tau(  25) = (   4.9999995   7.4366619   1.4391354  )
        26           C   tau(  26) = (   5.0000001   7.4601133   5.6978810  )
        27           C   tau(  27) = (   5.0000009   7.4427237   9.9527359  )
        28           C   tau(  28) = (   5.0000003   7.4230233  14.2153227  )
        29           C   tau(  29) = (   4.9999998   9.9168759   2.8602864  )
        30           C   tau(  30) = (   5.0000005   9.9456688   7.1198414  )
        31           C   tau(  31) = (   5.0000006   9.8971676  11.3758825  )
        32           C   tau(  32) = (   4.9999997   9.8916404  15.6373761  )
        33           C   tau(  33) = (   5.0000000  11.1512087   3.5624460  )
        34           C   tau(  34) = (   5.0000006  11.1827175   7.8243114  )
        35           C   tau(  35) = (   5.0000001  11.1170558  12.0867259  )
        36           C   tau(  36) = (   4.9999996  11.1196705  16.3439613  )
        37           C   tau(  37) = (   4.9999997   8.6702113   0.7264233  )
        38           C   tau(  38) = (   5.0000000   8.7000999   4.9892795  )
        39           C   tau(  39) = (   5.0000008   8.6857576   9.2421746  )
        40           C   tau(  40) = (   5.0000003   8.6600569  13.5027334  )
        41           C   tau(  41) = (   4.9999996   9.9037842   1.4370521  )
        42           C   tau(  42) = (   5.0000002   9.9352443   5.6967603  )
        43           C   tau(  43) = (   5.0000006   9.9121165   9.9519847  )
        44           C   tau(  44) = (   4.9999999   9.8882775  14.2150323  )
        45           C   tau(  45) = (   4.9999998  12.3738344   2.8403762  )
        46           C   tau(  46) = (   5.0000003  12.4461661   7.1206741  )
        47           C   tau(  47) = (   5.0000000  12.3517176  11.3788578  )
        48           C   tau(  48) = (   4.9999995  12.3481920  15.6312373  )
        49           C   tau(  49) = (   5.0000000  13.6153261   3.5379925  )
        50           C   tau(  50) = (   5.0000003  13.6879319   7.8267447  )
        51           C   tau(  51) = (   4.9999996  13.5608278  12.1138323  )
        52           C   tau(  52) = (   4.9999995  13.5888630  16.3258154  )
        53           C   tau(  53) = (   4.9999995  11.1279689   0.7242325  )
        54           C   tau(  54) = (   5.0000001  11.1723774   4.9905801  )
        55           C   tau(  55) = (   5.0000005  11.1496665   9.2449415  )
        56           C   tau(  56) = (   4.9999998  11.1164700  13.5068313  )
        57           C   tau(  57) = (   4.9999996  12.3630943   1.4253433  )
        58           C   tau(  58) = (   5.0000002  12.4096942   5.6911975  )
        59           C   tau(  59) = (   5.0000003  12.3717263   9.9603115  )
        60           C   tau(  60) = (   4.9999995  12.3432026  14.2239674  )
        61           C   tau(  61) = (   4.9999999  14.8274555   2.8086042  )
        62           C   tau(  62) = (   4.9999994  14.9725684   7.1000063  )
        63           C   tau(  63) = (   5.0000006  14.7860968  11.4169370  )
        64           C   tau(  64) = (   4.9999997  14.8210596  15.6212994  )
        65           C   tau(  65) = (   5.0000005  16.0409690   3.5035166  )
        66           C   tau(  66) = (   4.9999964  16.2684444   7.5729832  )
        67           C   tau(  67) = (   5.0000000  16.0232648  12.1103015  )
        68           C   tau(  68) = (   5.0000000  16.0343425  16.3424873  )
        69           C   tau(  69) = (   4.9999995  13.5927506   0.7018075  )
        70           C   tau(  70) = (   5.0000005  13.6416370   4.9631220  )
        71           C   tau(  71) = (   5.0000010  13.6234302   9.2605240  )
        72           C   tau(  72) = (   4.9999994  13.5774306  13.5217404  )
        73           C   tau(  73) = (   4.9999996  14.8238940   1.3875609  )
        74           C   tau(  74) = (   5.0000008  14.8843966   5.6353623  )
        75           C   tau(  75) = (   5.0000025  14.7727077  10.0402494  )
        76           C   tau(  76) = (   4.9999994  14.8192547  14.2026407  )
        77           C   tau(  77) = (   4.9999999  16.0349416   0.6627940  )
        78           C   tau(  78) = (   5.0000013  16.0601552   4.8614967  )
        79           C   tau(  79) = (   4.9999993  16.0363993  13.4678186  )
        80           H   tau(  80) = (   4.9999993   4.0552044   3.3619903  )
        81           H   tau(  81) = (   5.0000000   4.0659949   7.6062994  )
        82           H   tau(  82) = (   5.0000009   4.0360472  11.8516109  )
        83           H   tau(  83) = (   4.9999998   4.0328010  16.1296338  )
        84           H   tau(  84) = (   4.9999993   4.0416447   0.9632309  )
        85           H   tau(  85) = (   4.9999991   4.0651166   5.2082437  )
        86           H   tau(  86) = (   5.0000009   4.0515799   9.4530064  )
        87           H   tau(  87) = (   5.0000007   4.0312526  13.7297574  )
        88           H   tau(  88) = (   5.0000003  16.9904051   2.9780839  )
        89           H   tau(  89) = (   4.9999972  17.0896435   6.8733945  )
        90           H   tau(  90) = (   4.9999998  16.9519377  11.5380129  )
        91           H   tau(  91) = (   5.0000006  16.9873634  15.8218240  )
        92           H   tau(  92) = (   5.0000002  16.9900975   1.1786020  )
        93           H   tau(  93) = (   5.0000018  17.0423542   5.3132935  )
        94           H   tau(  94) = (   4.9999987  16.9904734  13.9865860  )
        95           H   tau(  95) = (   4.9999919  16.6563080   8.5716547  )
        96           H   tau(  96) = (   5.0000067  15.7385276   9.5991315  )

     number of k points=    26  Marzari-Vanderbilt smearing, width (Ry)=  0.0100
                       cart. coord. in units 2pi/alat
        k(    1) = (   0.0000000   0.0000000   0.0000000), wk =   0.0400000
        k(    2) = (   0.0000000   0.0000000   0.0011737), wk =   0.0800000
        k(    3) = (   0.0000000   0.0000000   0.0023474), wk =   0.0800000
        k(    4) = (   0.0000000   0.0000000   0.0035211), wk =   0.0800000
        k(    5) = (   0.0000000   0.0000000   0.0046948), wk =   0.0800000
        k(    6) = (   0.0000000   0.0000000   0.0058685), wk =   0.0800000
        k(    7) = (   0.0000000   0.0000000   0.0070423), wk =   0.0800000
        k(    8) = (   0.0000000   0.0000000   0.0082160), wk =   0.0800000
        k(    9) = (   0.0000000   0.0000000   0.0093897), wk =   0.0800000
        k(   10) = (   0.0000000   0.0000000   0.0105634), wk =   0.0800000
        k(   11) = (   0.0000000   0.0000000   0.0117371), wk =   0.0800000
        k(   12) = (   0.0000000   0.0000000   0.0129108), wk =   0.0800000
        k(   13) = (   0.0000000   0.0000000   0.0140845), wk =   0.0800000
        k(   14) = (   0.0000000   0.0000000   0.0152582), wk =   0.0800000
        k(   15) = (   0.0000000   0.0000000   0.0164319), wk =   0.0800000
        k(   16) = (   0.0000000   0.0000000   0.0176056), wk =   0.0800000
        k(   17) = (   0.0000000   0.0000000   0.0187793), wk =   0.0800000
        k(   18) = (   0.0000000   0.0000000   0.0199531), wk =   0.0800000
        k(   19) = (   0.0000000   0.0000000   0.0211268), wk =   0.0800000
        k(   20) = (   0.0000000   0.0000000   0.0223005), wk =   0.0800000
        k(   21) = (   0.0000000   0.0000000   0.0234742), wk =   0.0800000
        k(   22) = (   0.0000000   0.0000000   0.0246479), wk =   0.0800000
        k(   23) = (   0.0000000   0.0000000   0.0258216), wk =   0.0800000
        k(   24) = (   0.0000000   0.0000000   0.0269953), wk =   0.0800000
        k(   25) = (   0.0000000   0.0000000   0.0281690), wk =   0.0800000
        k(   26) = (   0.0000000   0.0000000  -0.0293427), wk =   0.0400000

     Dense  grid:  4302255 G-vectors     FFT dimensions: ( 135, 288, 225)

     Smooth grid:   827793 G-vectors     FFT dimensions: (  80, 162, 135)

     Estimated max dynamical RAM per process >     979.93 MB

     Estimated total dynamical RAM >      15.31 GB

     The potential is recalculated from file :
     /home/zfwang/scratch/GNRDATASET/AGNR/AGNR_10_Defect_A/AGNR_10_Defect_A.save/charge-density.dat


     negative rho (up, down):  1.308E-04 0.000E+00
     Starting wfcs are  333 randomized atomic wfcs +  167 random wfcs

     Band Structure Calculation
     Davidson diagonalization with overlap
     c_bands:  1 eigenvalues not converged
     c_bands:  2 eigenvalues not converged
     c_bands:  1 eigenvalues not converged
     c_bands:  1 eigenvalues not converged
     c_bands:  1 eigenvalues not converged
     c_bands:  1 eigenvalues not converged
     c_bands:  1 eigenvalues not converged
     c_bands:  1 eigenvalues not converged
     c_bands:  1 eigenvalues not converged

     ethr =  3.00E-09,  avg # of iterations =104.6

     total cpu time spent up to now is    10917.7 secs

     End of band structure calculation

          k = 0.0000 0.0000 0.0000 (103407 PWs)   bands (ev):

   -21.1044 -20.7473 -20.7265 -20.6117 -20.2928 -20.2078 -19.8888 -19.6397
   -19.6261 -19.5673 -19.4528 -19.1940 -19.0996 -18.8600 -18.5676 -18.5296
   -18.4760 -18.2100 -17.8412 -17.8284 -17.6551 -17.5007 -17.4948 -17.4760
   -17.2920 -17.2735 -17.0677 -16.7213 -16.6259 -16.4215 -16.3407 -16.2071
   -16.0583 -15.9970 -15.8643 -15.8337 -15.4838 -15.3099 -14.8883 -14.8135
   -14.6636 -14.4511 -14.3712 -14.3283 -14.1739 -14.0610 -14.0146 -13.9978
   -13.8673 -13.4977 -12.9155 -12.8827 -12.7765 -12.7379 -12.7146 -12.6080
   -12.3396 -12.3308 -12.2980 -12.1127 -12.0132 -11.9062 -11.8915 -11.3595
   -11.3143 -11.2963 -11.2152 -10.9098 -10.8109 -10.7139 -10.6840 -10.5699
   -10.3530 -10.2884 -10.1327 -10.0329  -9.8894  -9.7692  -9.6740  -9.6319
    -9.4965  -9.4639  -9.3853  -9.3069  -9.2223  -9.1865  -9.1769  -9.0572
    -8.9535  -8.8223  -8.7475  -8.7316  -8.6143  -8.5103  -8.4626  -8.4263
    -8.4186  -8.3601  -8.3241  -8.3022  -8.2597  -8.2414  -8.2242  -8.2023
    -8.1559  -8.1481  -8.0956  -8.0034  -7.9563  -7.8428  -7.8018  -7.7810
    -7.6861  -7.5947  -7.5461  -7.4779  -7.4475  -7.4392  -7.4029  -7.2829
    -7.0782  -7.0491  -6.9745  -6.9427  -6.9359  -6.8919  -6.8734  -6.7781
    -6.6718  -6.6309  -6.4858  -6.3278  -6.3042  -6.2381  -6.2304  -6.1590
    -6.0415  -5.9780  -5.9341  -5.8463  -5.7318  -5.7012  -5.5241  -5.4562
    -5.4398  -5.2943  -5.1847  -5.1403  -5.0598  -5.0562  -4.9420  -4.9332
    -4.9174  -4.7127  -4.3378  -4.2836  -4.2310  -4.0485  -3.8646  -3.8529
    -3.8355  -3.6895  -3.5592  -3.3118  -2.7461  -2.3597  -1.8658  -1.0553
    -0.8692  -0.3160  -0.0922  -0.0708  -0.0355   0.0848   0.1566   0.2299
     0.3717   0.6774   0.8235   1.0072   1.2030   1.3922   1.3993   1.4324
     1.5307   1.5636   1.5909   1.6352   1.6904   1.7110   1.9710   2.0011
     2.0054   2.0416   2.0493   2.0654   2.0683   2.1273   2.5801   2.5924
     2.6019   2.6475   2.7628   2.9694   2.9731   3.0041   3.0178   3.0688
     3.0866   3.0966   3.1198   3.1491   3.2273   3.3053   3.3170   3.3412
     3.3786   3.4898   3.4992   3.5074   3.5446   3.5883   3.5993   3.6408
     3.7353   3.7427   3.8297   3.8519   3.9362   4.0072   4.0126   4.0885
     4.1248   4.2451   4.2652   4.3162   4.3163   4.3820   4.4917   4.4971
     4.5441   4.5669   4.6007   4.6169   4.6290   4.6914   4.7370   4.7963
     4.8154   4.8245   4.8534   4.9276   4.9289   4.9809   4.9814   4.9982
     5.0154   5.0656   5.1047   5.1095   5.1852   5.2217   5.2306   5.2800
     5.2882   5.3189   5.3567   5.3723   5.3976   5.3978   5.4438   5.4691
     5.4839   5.4888   5.5768   5.6955   5.7805   5.7824   5.8829   5.9001
     5.9206   5.9671   5.9958   6.0235   6.0471   6.0596   6.0615   6.0706
     6.0760   6.0883   6.1182   6.1329   6.1875   6.2555   6.2843   6.2987
     6.3067   6.3153   6.3325   6.3327   6.3386   6.3830   6.4014   6.4624
     6.4996   6.5122   6.5316   6.5428   6.5755   6.5885   6.5940   6.6101
     6.6403   6.6777   6.6941   6.7258   6.7530   6.8022   6.8267   6.8547
     6.8606   6.8657   6.9384   6.9533   6.9753   7.0018   7.0242   7.0438
     7.0715   7.0793   7.0831   7.1004   7.1130   7.1413   7.2000   7.2254
     7.2995   7.3336   7.3444   7.3483   7.3574   7.3630   7.3662   7.3798
     7.3978   7.4209   7.4478   7.4490   7.5020   7.5638   7.5857   7.5863
     7.6671   7.6864   7.7040   7.7253   7.7446   7.7478   7.7934   7.8081
     7.8116   7.8232   7.8282   7.8393   7.8558   7.8583   7.8771   7.9097
     7.9707   7.9897   8.0393   8.0475   8.0560   8.0710   8.1051   8.1295
     8.2449   8.2902   8.3068   8.3551   8.3582   8.3983   8.4326   8.4696
     8.4869   8.5058   8.5390   8.5440   8.5601   8.5800   8.6036   8.6210
     8.6357   8.6469   8.6479   8.6581   8.6702   8.6939   8.6968   8.7275
     8.7952   8.8102   8.8244   8.8430   8.8517   8.8598   8.8630   8.9081
     8.9414   8.9800   9.0102   9.0381   9.0846   9.1050   9.1893   9.2188
     9.2353   9.2451   9.2533   9.2702   9.2995   9.3132   9.3170   9.3270
     9.3655   9.3721   9.3745   9.4030   9.4110   9.4293   9.4439   9.4563
     9.4837   9.5123   9.5411   9.5583   9.5711   9.5711   9.6125   9.6130
     9.6141   9.6179   9.6634   9.6661   9.7229   9.7345   9.7727   9.8282
     9.8349   9.8996   9.9177   9.9377   9.9562   9.9896   9.9991  10.0195
    10.0506  10.0546  10.0680  10.0763  10.0877  10.0986  10.1006  10.1013
    10.1137  10.1308  10.2029  10.2156  10.2304  10.2870  10.3579  10.4448
    10.5265  10.5739  10.5869  10.5893  10.6213  10.6524  10.6595  10.7166
    10.7207  10.7548  10.7572  10.7937  10.8063  10.8193  10.8284  10.8515
    10.8573  10.8627  10.8645  10.8689  10.8722  10.9135  10.9180  10.9279
    10.9370  10.9825  10.9950  10.9967

          k = 0.0000 0.0000 0.0012 (103433 PWs)   bands (ev):

   -21.1042 -20.7537 -20.7200 -20.6113 -20.2949 -20.2055 -19.8887 -19.6610
   -19.6055 -19.5679 -19.4512 -19.2002 -19.0931 -18.8598 -18.5707 -18.5316
   -18.4721 -18.2084 -17.8764 -17.7930 -17.6553 -17.5205 -17.4856 -17.4712
   -17.2968 -17.2630 -17.0672 -16.7305 -16.6163 -16.4235 -16.3389 -16.2067
   -16.0583 -16.0008 -15.8623 -15.8352 -15.4850 -15.3107 -14.8878 -14.8125
   -14.6654 -14.4484 -14.3746 -14.3243 -14.1725 -14.0666 -14.0103 -13.9952
   -13.8671 -13.4977 -12.9255 -12.8740 -12.7869 -12.7281 -12.7162 -12.6063
   -12.3942 -12.3128 -12.2679 -12.1148 -12.0068 -11.9050 -11.8883 -11.3623
   -11.3296 -11.2817 -11.2134 -10.9091 -10.8113 -10.7282 -10.6745 -10.5628
   -10.3601 -10.2858 -10.1347 -10.0280  -9.8933  -9.7682  -9.6727  -9.6302
    -9.5005  -9.4614  -9.3918  -9.3044  -9.2501  -9.1767  -9.1548  -9.0582
    -8.9502  -8.8219  -8.7575  -8.7216  -8.6139  -8.5114  -8.4743  -8.4390
    -8.4115  -8.3550  -8.3275  -8.3008  -8.2496  -8.2408  -8.2275  -8.2032
    -8.1569  -8.1444  -8.0939  -8.0034  -7.9575  -7.8411  -7.8009  -7.7809
    -7.6855  -7.5944  -7.5467  -7.4763  -7.4759  -7.4123  -7.4034  -7.2804
    -7.0839  -7.0468  -6.9725  -6.9485  -6.9420  -6.8934  -6.8606  -6.7779
    -6.6736  -6.6307  -6.4837  -6.3322  -6.3065  -6.2399  -6.2272  -6.1569
    -6.0528  -5.9663  -5.9314  -5.8464  -5.7389  -5.6951  -5.5229  -5.4919
    -5.4041  -5.2949  -5.1930  -5.1324  -5.0602  -5.0596  -4.9553  -4.9423
    -4.8920  -4.7113  -4.3407  -4.2937  -4.2214  -4.0451  -3.8657  -3.8532
    -3.8351  -3.6949  -3.5541  -3.3127  -2.7466  -2.3613  -1.8659  -1.0542
    -0.8682  -0.3149  -0.1012  -0.0680  -0.0285   0.0849   0.1559   0.2309
     0.3721   0.6703   0.8266   1.0104   1.2032   1.3731   1.4058   1.4429
     1.5309   1.5603   1.5638   1.6679   1.6789   1.7229   1.9350   1.9938
     2.0106   2.0456   2.0516   2.0809   2.0852   2.1285   2.5762   2.5911
     2.6004   2.6534   2.7626   2.9527   2.9723   3.0082   3.0260   3.0620
     3.0770   3.1012   3.1293   3.1535   3.2274   3.2923   3.3307   3.3415
     3.3787   3.4723   3.5062   3.5135   3.5377   3.5727   3.6292   3.6430
     3.7190   3.7594   3.8192   3.8627   3.9361   4.0074   4.0108   4.0712
     4.1443   4.2213   4.2672   4.3165   4.3374   4.3819   4.4871   4.4967
     4.5469   4.5623   4.5927   4.6019   4.6568   4.6897   4.7392   4.7947
     4.8009   4.8387   4.8542   4.9176   4.9253   4.9681   4.9735   5.0055
     5.0193   5.0749   5.1099   5.1156   5.1892   5.2045   5.2333   5.2752
     5.2856   5.3084   5.3480   5.3869   5.3963   5.4042   5.4619   5.4696
     5.4849   5.4899   5.5811   5.6952   5.7792   5.7827   5.8788   5.8993
     5.9210   5.9664   5.9892   6.0076   6.0256   6.0424   6.0639   6.0740
     6.0965   6.1124   6.1198   6.1444   6.1902   6.2499   6.2635   6.2830
     6.3116   6.3133   6.3376   6.3478   6.3574   6.3848   6.4000   6.4606
     6.4790   6.4845   6.5498   6.5685   6.5780   6.5802   6.5889   6.6121
     6.6438   6.6909   6.6931   6.7291   6.7538   6.7943   6.8318   6.8544
     6.8620   6.8659   6.9347   6.9501   6.9707   7.0085   7.0235   7.0337
     7.0631   7.0778   7.0898   7.1084   7.1172   7.1415   7.2008   7.2279
     7.2947   7.3248   7.3308   7.3345   7.3506   7.3625   7.3768   7.3983
     7.3989   7.4229   7.4467   7.4471   7.5099   7.5686   7.5774   7.5894
     7.6507   7.6953   7.7077   7.7178   7.7333   7.7585   7.7863   7.7954
     7.8129   7.8263   7.8382   7.8502   7.8587   7.8749   7.8777   7.9133
     7.9701   7.9845   8.0327   8.0394   8.0619   8.0705   8.1208   8.1317
     8.2421   8.2830   8.3093   8.3444   8.3609   8.3982   8.4324   8.4743
     8.4760   8.4966   8.5241   8.5557   8.5746   8.5767   8.6065   8.6121
     8.6308   8.6472   8.6506   8.6585   8.6907   8.6987   8.7008   8.7281
     8.7854   8.8006   8.8108   8.8189   8.8459   8.8758   8.8992   8.9135
     8.9458   8.9807   8.9828   9.0651   9.0848   9.1125   9.1832   9.2030
     9.2329   9.2416   9.2633   9.2716   9.2901   9.3043   9.3096   9.3284
     9.3654   9.3655   9.3780   9.4028   9.4044   9.4266   9.4510   9.4589
     9.4809   9.5215   9.5351   9.5584   9.5677   9.5792   9.6034   9.6159
     9.6191   9.6334   9.6598   9.6775   9.7224   9.7323   9.7755   9.8268
     9.8363   9.8848   9.9000   9.9571   9.9574   9.9868   9.9990  10.0198
    10.0479  10.0628  10.0717  10.0773  10.0862  10.0872  10.1022  10.1038
    10.1181  10.1294  10.2069  10.2238  10.2418  10.2864  10.3523  10.4384
    10.5270  10.5655  10.5844  10.5861  10.6117  10.6494  10.6721  10.7154
    10.7167  10.7517  10.7587  10.7915  10.8003  10.8099  10.8330  10.8359
    10.8587  10.8640  10.8675  10.8837  10.8840  10.9158  10.9162  10.9294
    10.9429  10.9833  10.9875  10.9988

          k = 0.0000 0.0000 0.0023 (103431 PWs)   bands (ev):

   -21.1038 -20.7653 -20.7084 -20.6102 -20.3004 -20.1990 -19.8885 -19.6878
   -19.5852 -19.5650 -19.4464 -19.2154 -19.0769 -18.8592 -18.5792 -18.5361
   -18.4624 -18.2035 -17.9170 -17.7518 -17.6561 -17.5453 -17.4950 -17.4533
   -17.3017 -17.2424 -17.0659 -16.7512 -16.5946 -16.4290 -16.3340 -16.2055
   -16.0584 -16.0113 -15.8605 -15.8365 -15.4887 -15.3130 -14.8870 -14.8090
   -14.6705 -14.4402 -14.3827 -14.3146 -14.1690 -14.0771 -14.0062 -13.9840
   -13.8666 -13.4978 -12.9439 -12.8605 -12.8043 -12.7261 -12.7056 -12.6015
   -12.4543 -12.3300 -12.2087 -12.1193 -11.9913 -11.9015 -11.8782 -11.3704
   -11.3513 -11.2624 -11.2083 -10.9071 -10.8138 -10.7518 -10.6628 -10.5432
   -10.3778 -10.2812 -10.1389 -10.0152  -9.9040  -9.7657  -9.6690  -9.6255
    -9.5107  -9.4562  -9.4064  -9.3214  -9.2609  -9.1762  -9.1125  -9.0605
    -8.9404  -8.8207  -8.7726  -8.7066  -8.6123  -8.5160  -8.4964  -8.4665
    -8.3980  -8.3696  -8.3116  -8.2966  -8.2445  -8.2360  -8.2270  -8.2028
    -8.1598  -8.1349  -8.0894  -8.0036  -7.9601  -7.8364  -7.7980  -7.7806
    -7.6834  -7.5941  -7.5480  -7.5081  -7.4718  -7.4114  -7.3778  -7.2733
    -7.0968  -7.0436  -6.9733  -6.9682  -6.9392  -6.8973  -6.8350  -6.7775
    -6.6785  -6.6300  -6.4780  -6.3434  -6.3134  -6.2451  -6.2198  -6.1510
    -6.0747  -5.9430  -5.9235  -5.8469  -5.7530  -5.6841  -5.5346  -5.5192
    -5.3615  -5.2970  -5.2093  -5.1177  -5.0704  -5.0613  -4.9769  -4.9433
    -4.8598  -4.7068  -4.3515  -4.3102  -4.2038  -4.0352  -3.8688  -3.8541
    -3.8340  -3.7089  -3.5409  -3.3152  -2.7479  -2.3661  -1.8661  -1.0509
    -0.8650  -0.3114  -0.1191  -0.0631  -0.0130   0.0855   0.1540   0.2337
     0.3734   0.6513   0.8335   1.0202   1.2038   1.3462   1.4072   1.4565
     1.5242   1.5314   1.5643   1.6613   1.7158   1.7417   1.8791   1.9792
     2.0132   2.0284   2.0655   2.1015   2.1330   2.1369   2.5655   2.5872
     2.5991   2.6671   2.7622   2.9235   2.9695   3.0074   3.0426   3.0461
     3.0600   3.1153   3.1464   3.1625   3.2276   3.2758   3.3423   3.3493
     3.3795   3.4521   3.4964   3.5030   3.5480   3.5738   3.6492   3.6674
     3.7001   3.7798   3.8024   3.8805   3.9359   4.0026   4.0080   4.0493
     4.1754   4.1802   4.2682   4.3174   4.3749   4.3818   4.4769   4.4952
     4.5403   4.5517   4.5800   4.6066   4.6846   4.6872   4.7469   4.7832
     4.7892   4.8496   4.8627   4.8929   4.9136   4.9517   4.9568   5.0011
     5.0374   5.0956   5.1220   5.1291   5.1758   5.2011   5.2237   5.2630
     5.2759   5.2890   5.3385   5.4006   5.4067   5.4250   5.4727   5.4854
     5.4880   5.5061   5.5927   5.6942   5.7754   5.7837   5.8682   5.8966
     5.9181   5.9479   5.9648   5.9957   6.0086   6.0393   6.0492   6.0763
     6.1185   6.1210   6.1560   6.1673   6.2001   6.2284   6.2346   6.2754
     6.2948   6.3144   6.3636   6.3655   6.3840   6.3888   6.4002   6.4385
     6.4426   6.4795   6.5515   6.5654   6.5784   6.5883   6.5963   6.6291
     6.6575   6.6886   6.7179   6.7373   6.7578   6.7812   6.8365   6.8544
     6.8628   6.8678   6.9192   6.9473   6.9691   6.9946   7.0212   7.0385
     7.0527   7.0736   7.0899   7.1205   7.1337   7.1420   7.2044   7.2270
     7.2842   7.2915   7.3118   7.3212   7.3482   7.3611   7.3923   7.3954
     7.4121   7.4301   7.4474   7.4510   7.5244   7.5564   7.5810   7.6014
     7.6169   7.6907   7.7062   7.7177   7.7338   7.7609   7.7767   7.7832
     7.8159   7.8311   7.8547   7.8637   7.8734   7.8833   7.9103   7.9243
     7.9661   7.9684   8.0212   8.0393   8.0653   8.0708   8.1380   8.1516
     8.2348   8.2682   8.3128   8.3188   8.3644   8.3971   8.4292   8.4550
     8.4781   8.4835   8.5056   8.5654   8.5737   8.5869   8.5971   8.6099
     8.6321   8.6465   8.6703   8.6753   8.6943   8.7013   8.7291   8.7343
     8.7592   8.7718   8.7914   8.8174   8.8439   8.8838   8.9100   8.9410
     8.9607   8.9746   8.9828   9.0835   9.0853   9.1436   9.1558   9.1951
     9.2209   9.2337   9.2425   9.2698   9.2858   9.2900   9.2924   9.3348
     9.3515   9.3654   9.3740   9.3887   9.3890   9.4378   9.4633   9.4664
     9.4981   9.5264   9.5295   9.5525   9.5601   9.5819   9.6122   9.6150
     9.6253   9.6507   9.6679   9.7026   9.7208   9.7337   9.7830   9.8223
     9.8229   9.8602   9.9012   9.9501   9.9594   9.9938   9.9986  10.0165
    10.0428  10.0556  10.0673  10.0783  10.0851  10.0943  10.1048  10.1147
    10.1324  10.1337  10.2169  10.2466  10.2660  10.2852  10.3365  10.4215
    10.5250  10.5424  10.5673  10.5835  10.6069  10.6367  10.6905  10.7093
    10.7108  10.7438  10.7617  10.7807  10.7845  10.8097  10.8116  10.8443
    10.8609  10.8651  10.8715  10.8964  10.9016  10.9202  10.9257  10.9356
    10.9544  10.9730  10.9938  11.0040

          k = 0.0000 0.0000 0.0035 (103427 PWs)   bands (ev):

   -21.1031 -20.7777 -20.6960 -20.6081 -20.3084 -20.1896 -19.8882 -19.7148
   -19.5843 -19.5448 -19.4391 -19.2344 -19.0562 -18.8582 -18.5918 -18.5415
   -18.4497 -18.1957 -17.9574 -17.7105 -17.6573 -17.5717 -17.5105 -17.4360
   -17.3030 -17.2175 -17.0637 -16.7755 -16.5686 -16.4363 -16.3273 -16.2036
   -16.0587 -16.0263 -15.8683 -15.8300 -15.4951 -15.3162 -14.8879 -14.8016
   -14.6779 -14.4275 -14.3921 -14.3023 -14.1657 -14.0853 -14.0052 -13.9667
   -13.8657 -13.4978 -12.9642 -12.8560 -12.8146 -12.7354 -12.6853 -12.5954
   -12.5141 -12.3567 -12.1493 -12.1226 -11.9727 -11.8959 -11.8601 -11.3845
   -11.3716 -11.2456 -11.1996 -10.9038 -10.8221 -10.7709 -10.6543 -10.5156
   -10.4012 -10.2789 -10.1427  -9.9987  -9.9190  -9.7628  -9.6634  -9.6188
    -9.5250  -9.4521  -9.4231  -9.3592  -9.2435  -9.1753  -9.0792  -9.0580
    -8.9245  -8.8184  -8.7880  -8.6914  -8.6096  -8.5307  -8.5198  -8.4904
    -8.4105  -8.3673  -8.3092  -8.2751  -8.2473  -8.2452  -8.2185  -8.1886
    -8.1638  -8.1219  -8.0830  -8.0047  -7.9620  -7.8300  -7.7935  -7.7800
    -7.6793  -7.5948  -7.5482  -7.5401  -7.4651  -7.4194  -7.3463  -7.2624
    -7.1125  -7.0426  -7.0009  -6.9650  -6.9328  -6.9026  -6.8063  -6.7772
    -6.6857  -6.6287  -6.4706  -6.3574  -6.3241  -6.2527  -6.2131  -6.1423
    -6.0961  -5.9181  -5.9110  -5.8475  -5.7681  -5.6734  -5.5775  -5.5131
    -5.3194  -5.3006  -5.2267  -5.1092  -5.0833  -5.0631  -4.9892  -4.9450
    -4.8289  -4.6984  -4.3730  -4.3216  -4.1869  -4.0194  -3.8738  -3.8555
    -3.8322  -3.7281  -3.5231  -3.3193  -2.7501  -2.3740  -1.8664  -1.0455
    -0.8596  -0.3058  -0.1396  -0.0567   0.0045   0.0870   0.1511   0.2379
     0.3756   0.6247   0.8402   1.0363   1.2047   1.3176   1.4028   1.4432
     1.5213   1.5322   1.5653   1.6435   1.7616   1.7625   1.8233   1.9628
     2.0098   2.0157   2.0836   2.1127   2.1436   2.1971   2.5510   2.5808
     2.5991   2.6843   2.7615   2.8920   2.9629   3.0047   3.0279   3.0421
     3.0554   3.1376   3.1619   3.1722   3.2278   3.2609   3.3436   3.3682
     3.3815   3.4345   3.4625   3.4989   3.5684   3.5863   3.6578   3.6824
     3.7071   3.7853   3.8005   3.8992   3.9355   3.9829   4.0089   4.0384
     4.1360   4.2071   4.2691   4.3191   4.3817   4.4106   4.4675   4.4904
     4.5108   4.5540   4.5775   4.6159   4.6769   4.7095   4.7597   4.7705
     4.7783   4.8508   4.8603   4.8807   4.8955   4.9381   4.9390   4.9946
     5.0576   5.1126   5.1334   5.1367   5.1535   5.2005   5.2301   5.2459
     5.2608   5.2729   5.3280   5.4119   5.4306   5.4456   5.4812   5.4892
     5.4961   5.5494   5.6088   5.6927   5.7700   5.7854   5.8534   5.8855
     5.8909   5.9271   5.9630   5.9667   6.0167   6.0309   6.0385   6.0801
     6.1240   6.1405   6.1779   6.1794   6.1999   6.2215   6.2230   6.2771
     6.2803   6.3169   6.3674   6.3779   6.3852   6.3964   6.4155   6.4163
     6.4356   6.4874   6.5198   6.5653   6.5744   6.5937   6.6162   6.6531
     6.6759   6.6879   6.7455   6.7477   6.7656   6.7748   6.8350   6.8547
     6.8613   6.8688   6.9006   6.9422   6.9629   6.9859   7.0165   7.0356
     7.0555   7.0683   7.0876   7.1311   7.1425   7.1537   7.2081   7.2169
     7.2489   7.2708   7.2989   7.3172   7.3372   7.3611   7.3911   7.4059
     7.4127   7.4343   7.4539   7.4672   7.5305   7.5353   7.5758   7.5993
     7.6201   7.6748   7.6815   7.7257   7.7404   7.7659   7.7684   7.8015
     7.8206   7.8374   7.8516   7.8588   7.9035   7.9147   7.9321   7.9428
     7.9548   7.9664   8.0195   8.0380   8.0679   8.0721   8.1473   8.1841
     8.2248   8.2520   8.2879   8.3154   8.3604   8.3904   8.4208   8.4395
     8.4674   8.4733   8.4962   8.5556   8.5673   8.5815   8.6055   8.6062
     8.6416   8.6641   8.6849   8.6950   8.6958   8.7035   8.7275   8.7430
     8.7511   8.7705   8.7809   8.8134   8.8351   8.8761   8.9230   8.9401
     8.9797   8.9863   9.0228   9.0861   9.0902   9.1211   9.1834   9.1921
     9.1944   9.2130   9.2245   9.2425   9.2659   9.2737   9.2992   9.3140
     9.3420   9.3614   9.3664   9.3886   9.3953   9.4382   9.4746   9.4775
     9.5108   9.5273   9.5349   9.5417   9.5521   9.5961   9.6112   9.6287
     9.6348   9.6425   9.6749   9.7184   9.7399   9.7605   9.7801   9.7935
     9.8177   9.8652   9.9028   9.9386   9.9626   9.9901   9.9974  10.0066
    10.0260  10.0410  10.0517  10.0601  10.0948  10.1120  10.1245  10.1370
    10.1489  10.1615  10.2299  10.2766  10.2844  10.2896  10.3177  10.3981
    10.5012  10.5270  10.5422  10.5783  10.6074  10.6215  10.6925  10.6984
    10.7001  10.7355  10.7658  10.7660  10.7823  10.7933  10.8121  10.8468
    10.8632  10.8688  10.8775  10.8996  10.9016  10.9305  10.9387  10.9544
    10.9583  10.9754  10.9938  11.0105

          k = 0.0000 0.0000 0.0047 (103427 PWs)   bands (ev):

   -21.1022 -20.7903 -20.6837 -20.6051 -20.3177 -20.1783 -19.8878 -19.7416
   -19.5908 -19.5190 -19.4298 -19.2545 -19.0335 -18.8567 -18.6070 -18.5474
   -18.4358 -18.1851 -17.9975 -17.6725 -17.6563 -17.5996 -17.5280 -17.4212
   -17.3007 -17.1907 -17.0606 -16.8000 -16.5429 -16.4432 -16.3198 -16.2011
   -16.0599 -16.0430 -15.8848 -15.8180 -15.5045 -15.3195 -14.8925 -14.7893
   -14.6860 -14.4156 -14.3966 -14.2891 -14.1660 -14.0862 -14.0050 -13.9476
   -13.8643 -13.4978 -12.9852 -12.8691 -12.8106 -12.7452 -12.6657 -12.5930
   -12.5694 -12.3881 -12.1299 -12.0849 -11.9552 -11.8880 -11.8339 -11.4046
   -11.3892 -11.2335 -11.1872 -10.8994 -10.8403 -10.7788 -10.6478 -10.4862
   -10.4254 -10.2804 -10.1446  -9.9833  -9.9343  -9.7595  -9.6574  -9.6118
    -9.5416  -9.4624  -9.4316  -9.3902  -9.2203  -9.1742  -9.0753  -9.0321
    -8.9037  -8.8144  -8.8034  -8.6768  -8.6053  -8.5571  -8.5457  -8.5039
    -8.4371  -8.3534  -8.3128  -8.2648  -8.2600  -8.2356  -8.2163  -8.1701
    -8.1632  -8.1069  -8.0755  -8.0066  -7.9613  -7.8230  -7.7874  -7.7792
    -7.6727  -7.5979  -7.5719  -7.5461  -7.4571  -7.4293  -7.3158  -7.2480
    -7.1291  -7.0444  -7.0289  -6.9651  -6.9258  -6.9050  -6.7774  -6.7767
    -6.6938  -6.6268  -6.4648  -6.3697  -6.3380  -6.2619  -6.2133  -6.1316
    -6.1105  -5.8962  -5.8947  -5.8475  -5.7815  -5.6642  -5.6203  -5.5045
    -5.3093  -5.2766  -5.2417  -5.1278  -5.0776  -5.0657  -4.9924  -4.9472
    -4.8018  -4.6847  -4.4011  -4.3288  -4.1724  -3.9988  -3.8808  -3.8573
    -3.8299  -3.7499  -3.5033  -3.3247  -2.7532  -2.3847  -1.8670  -1.0382
    -0.8521  -0.2980  -0.1608  -0.0482   0.0209   0.0905   0.1477   0.2431
     0.3786   0.5936   0.8443   1.0578   1.2061   1.2886   1.3771   1.4272
     1.5332   1.5428   1.5667   1.6259   1.7552   1.7820   1.8206   1.9460
     1.9914   2.0195   2.1023   2.1190   2.1605   2.2584   2.5351   2.5718
     2.6000   2.7029   2.7603   2.8604   2.9496   3.0014   3.0138   3.0243
     3.0639   3.1641   3.1645   3.1894   3.2272   3.2494   3.3453   3.3818
     3.3864   3.4203   3.4309   3.4952   3.5846   3.6081   3.6579   3.6759
     3.7469   3.7690   3.8216   3.9172   3.9347   3.9569   4.0103   4.0362
     4.0911   4.2372   4.2702   4.3218   4.3820   4.4261   4.4678   4.4744
     4.4977   4.5545   4.5768   4.6287   4.6678   4.7211   4.7488   4.7607
     4.7929   4.8232   4.8479   4.8767   4.9008   4.9242   4.9256   4.9899
     5.0765   5.1057   5.1092   5.1355   5.1700   5.2016   5.2266   5.2455
     5.2584   5.2651   5.3158   5.4229   5.4575   5.4609   5.4892   5.4927
     5.5182   5.5970   5.6270   5.6910   5.7635   5.7879   5.8266   5.8443
     5.8799   5.9213   5.9424   5.9621   6.0122   6.0257   6.0393   6.0851
     6.1250   6.1479   6.1650   6.1721   6.1914   6.2387   6.2417   6.2656
     6.2899   6.3210   6.3525   6.3592   6.3880   6.4015   6.4067   6.4457
     6.4614   6.4941   6.4983   6.5603   6.5721   6.5954   6.6332   6.6636
     6.6816   6.7096   6.7532   6.7633   6.7767   6.7931   6.8244   6.8521
     6.8601   6.8652   6.8910   6.9253   6.9658   6.9897   7.0087   7.0231
     7.0588   7.0637   7.0892   7.1347   7.1426   7.1715   7.1981   7.2050
     7.2233   7.2526   7.2871   7.3068   7.3342   7.3614   7.3884   7.3971
     7.4305   7.4396   7.4577   7.4866   7.5015   7.5358   7.5410   7.6177
     7.6333   7.6574   7.6621   7.7254   7.7409   7.7614   7.7958   7.8245
     7.8263   7.8428   7.8507   7.8607   7.9007   7.9200   7.9561   7.9666
     7.9729   7.9865   8.0239   8.0369   8.0710   8.0744   8.1551   8.2072
     8.2144   8.2392   8.2633   8.3155   8.3450   8.3757   8.4183   8.4216
     8.4445   8.4738   8.4952   8.5406   8.5477   8.5668   8.5981   8.6203
     8.6528   8.6750   8.6887   8.6932   8.7183   8.7229   8.7247   8.7310
     8.7499   8.7823   8.8009   8.8065   8.8297   8.8749   8.9244   8.9535
     8.9911   8.9992   9.0709   9.0822   9.0908   9.1008   9.1578   9.1673
     9.1825   9.1891   9.2212   9.2455   9.2504   9.2640   9.2853   9.2958
     9.3343   9.3478   9.3562   9.4097   9.4099   9.4329   9.4682   9.4834
     9.5089   9.5234   9.5433   9.5453   9.5634   9.6025   9.6232   9.6248
     9.6410   9.6554   9.6721   9.7160   9.7307   9.7666   9.8032   9.8148
     9.8157   9.8762   9.9047   9.9348   9.9654   9.9801   9.9867   9.9952
    10.0029  10.0335  10.0362  10.0383  10.0914  10.1392  10.1438  10.1662
    10.1698  10.2046  10.2435  10.2701  10.2866  10.3122  10.3340  10.3714
    10.4629  10.5061  10.5258  10.5698  10.5953  10.6187  10.6666  10.6804
    10.6920  10.7310  10.7521  10.7640  10.7779  10.7980  10.8198  10.8423
    10.8647  10.8719  10.8846  10.8963  10.9071  10.9293  10.9312  10.9515
    10.9735  10.9808  10.9970  11.0197

          k = 0.0000 0.0000 0.0059 (103441 PWs)   bands (ev):

   -21.1009 -20.8027 -20.6719 -20.6007 -20.3277 -20.1656 -19.8875 -19.7679
   -19.5991 -19.4935 -19.4187 -19.2742 -19.0102 -18.8546 -18.6236 -18.5538
   -18.4212 -18.1723 -18.0370 -17.6675 -17.6283 -17.6241 -17.5454 -17.4098
   -17.2946 -17.1643 -17.0562 -16.8225 -16.5220 -16.4459 -16.3121 -16.1983
   -16.0677 -16.0542 -15.9067 -15.8044 -15.5171 -15.3223 -14.9019 -14.7734
   -14.6925 -14.4203 -14.3806 -14.2764 -14.1707 -14.0784 -14.0048 -13.9283
   -13.8624 -13.4974 -13.0064 -12.8899 -12.8066 -12.7503 -12.6539 -12.6306
   -12.5800 -12.4201 -12.1324 -12.0244 -11.9402 -11.8778 -11.8010 -11.4271
   -11.4064 -11.2266 -11.1719 -10.8948 -10.8631 -10.7782 -10.6423 -10.4769
   -10.4294 -10.2855 -10.1447  -9.9802  -9.9397  -9.7553  -9.6543  -9.6086
    -9.5577  -9.4907  -9.4304  -9.4041  -9.1964  -9.1726  -9.0789  -9.0043
    -8.8814  -8.8187  -8.8070  -8.6636  -8.5989  -8.5860  -8.5746  -8.5162
    -8.4604  -8.3463  -8.3134  -8.2731  -8.2708  -8.2225  -8.2089  -8.1691
    -8.1428  -8.0907  -8.0672  -8.0078  -7.9576  -7.8160  -7.7798  -7.7783
    -7.6634  -7.6034  -7.6029  -7.5414  -7.4483  -7.4403  -7.2877  -7.2299
    -7.1459  -7.0563  -7.0492  -6.9681  -6.9270  -6.8967  -6.7786  -6.7473
    -6.7018  -6.6238  -6.4656  -6.3752  -6.3543  -6.2719  -6.2248  -6.1195
    -6.1136  -5.8839  -5.8755  -5.8449  -5.7892  -5.6629  -5.6567  -5.4937
    -5.3205  -5.2615  -5.2287  -5.1572  -5.0690  -5.0673  -4.9884  -4.9502
    -4.7804  -4.6646  -4.4316  -4.3349  -4.1601  -3.9752  -3.8896  -3.8593
    -3.8270  -3.7725  -3.4833  -3.3311  -2.7572  -2.3982  -1.8678  -1.0290
    -0.8425  -0.2886  -0.1818  -0.0375   0.0338   0.0975   0.1440   0.2489
     0.3826   0.5598   0.8453   1.0836   1.2079   1.2593   1.3326   1.4256
     1.5344   1.5684   1.5693   1.6088   1.6995   1.8028   1.8648   1.9295
     1.9733   2.0259   2.1179   2.1271   2.1804   2.3200   2.5188   2.5603
     2.6016   2.7224   2.7583   2.8298   2.9287   2.9981   3.0054   3.0072
     3.0695   3.1576   3.1884   3.2099   3.2263   3.2446   3.3469   3.3705
     3.3941   3.4031   3.4297   3.4937   3.5992   3.6340   3.6421   3.6875
     3.7512   3.7893   3.8429   3.9183   3.9331   3.9461   4.0119   4.0375
     4.0472   4.2633   4.2715   4.3260   4.3827   4.4174   4.4370   4.4943
     4.4949   4.5610   4.5764   4.6393   4.6622   4.7195   4.7367   4.7421
     4.7831   4.8183   4.8390   4.8702   4.9090   4.9124   4.9243   4.9872
     5.0696   5.0899   5.0902   5.1274   5.1840   5.2042   5.2271   5.2301
     5.2734   5.2921   5.3021   5.4325   5.4654   5.4859   5.4953   5.5054
     5.5496   5.6447   5.6453   5.6894   5.7556   5.7774   5.7915   5.8239
     5.8613   5.9154   5.9262   5.9622   5.9938   6.0315   6.0439   6.0912
     6.1132   6.1221   6.1486   6.1897   6.1902   6.2344   6.2442   6.2771
     6.2854   6.3227   6.3425   6.3578   6.3945   6.4032   6.4086   6.4589
     6.4870   6.5006   6.5109   6.5540   6.5756   6.5971   6.6335   6.6629
     6.7046   6.7217   6.7505   6.7764   6.8015   6.8027   6.8098   6.8559
     6.8600   6.8671   6.8865   6.9170   6.9722   6.9946   6.9983   7.0105
     7.0521   7.0610   7.0939   7.1226   7.1388   7.1637   7.1880   7.1981
     7.2313   7.2359   7.2768   7.2948   7.3287   7.3644   7.3696   7.4050
     7.4415   7.4521   7.4523   7.4695   7.5041   7.5041   7.5464   7.6018
     7.6341   7.6504   7.6752   7.7207   7.7471   7.7566   7.8189   7.8251
     7.8380   7.8524   7.8711   7.8730   7.8807   7.9344   7.9533   7.9910
     8.0024   8.0170   8.0410   8.0436   8.0751   8.0791   8.1517   8.1944
     8.2099   8.2318   8.2724   8.3044   8.3308   8.3596   8.4026   8.4179
     8.4221   8.4705   8.5065   8.5236   8.5271   8.5282   8.5916   8.6429
     8.6497   8.6672   8.6900   8.6908   8.7184   8.7347   8.7414   8.7506
     8.7542   8.7942   8.8028   8.8291   8.8411   8.8801   8.9285   8.9620
     8.9962   9.0179   9.0507   9.0790   9.0900   9.1158   9.1227   9.1422
     9.1501   9.1854   9.2125   9.2372   9.2459   9.2596   9.2850   9.2942
     9.3203   9.3352   9.3541   9.4010   9.4329   9.4336   9.4603   9.4913
     9.5022   9.5245   9.5397   9.5490   9.5906   9.5979   9.6216   9.6385
     9.6407   9.6579   9.6795   9.7090   9.7141   9.7827   9.8012   9.8249
     9.8573   9.9024   9.9066   9.9386   9.9536   9.9700   9.9700   9.9865
     9.9902  10.0178  10.0248  10.0283  10.0869  10.1591  10.1628  10.1833
    10.2106  10.2334  10.2457  10.2574  10.2968  10.3453  10.3474  10.3648
    10.4228  10.4770  10.5137  10.5573  10.5784  10.6173  10.6363  10.6537
    10.6816  10.7234  10.7430  10.7587  10.7665  10.8148  10.8266  10.8397
    10.8641  10.8701  10.8917  10.8921  10.9109  10.9138  10.9238  10.9422
    10.9847  10.9969  11.0089  11.0331

          k = 0.0000 0.0000 0.0070 (103457 PWs)   bands (ev):

   -21.0995 -20.8150 -20.6612 -20.5948 -20.3380 -20.1521 -19.8874 -19.7937
   -19.6084 -19.4702 -19.4058 -19.2922 -18.9870 -18.8517 -18.6408 -18.5606
   -18.4066 -18.1581 -18.0755 -17.6773 -17.6540 -17.5842 -17.5603 -17.4020
   -17.2850 -17.1416 -17.0490 -16.8415 -16.5123 -16.4382 -16.3047 -16.1956
   -16.0845 -16.0560 -15.9328 -15.7910 -15.5329 -15.3238 -14.9160 -14.7583
   -14.6926 -14.4309 -14.3553 -14.2661 -14.1766 -14.0644 -14.0039 -13.9099
   -13.8592 -13.4967 -13.0277 -12.9128 -12.8130 -12.7458 -12.6993 -12.6283
   -12.5803 -12.4473 -12.1342 -11.9637 -11.9269 -11.8650 -11.7635 -11.4501
   -11.4246 -11.2242 -11.1556 -10.8993 -10.8757 -10.7735 -10.6377 -10.5011
   -10.4004 -10.2928 -10.1444  -9.9946  -9.9306  -9.7496  -9.6595  -9.6155
    -9.5697  -9.5135  -9.4318  -9.4020  -9.1738  -9.1708  -9.0820  -8.9809
    -8.8637  -8.8336  -8.7946  -8.6522  -8.6131  -8.6033  -8.5900  -8.5347
    -8.4751  -8.3524  -8.3087  -8.2865  -8.2772  -8.2172  -8.2038  -8.1622
    -8.1243  -8.0736  -8.0576  -8.0055  -7.9515  -7.8092  -7.7772  -7.7704
    -7.6528  -7.6346  -7.6084  -7.5350  -7.4519  -7.4392  -7.2637  -7.2076
    -7.1621  -7.0824  -7.0574  -6.9735  -6.9320  -6.8823  -6.7811  -6.7191
    -6.7085  -6.6191  -6.4763  -6.3724  -6.3707  -6.2822  -6.2460  -6.1074
    -6.1064  -5.8855  -5.8542  -5.8413  -5.7853  -5.7050  -5.6508  -5.4809
    -5.3362  -5.2728  -5.1930  -5.1821  -5.0730  -5.0601  -4.9783  -4.9538
    -4.7651  -4.6386  -4.4622  -4.3407  -4.1495  -3.9512  -3.8998  -3.8617
    -3.8237  -3.7939  -3.4645  -3.3374  -2.7620  -2.4142  -1.8688  -1.0182
    -0.8307  -0.2783  -0.2015  -0.0247   0.0416   0.1090   0.1405   0.2550
     0.3874   0.5247   0.8434   1.1121   1.2101   1.2298   1.2840   1.4276
     1.5356   1.5703   1.5927   1.5948   1.6448   1.8237   1.9067   1.9134
     1.9555   2.0371   2.1233   2.1452   2.2017   2.3812   2.5024   2.5467
     2.6036   2.7421   2.7537   2.8026   2.9029   2.9892   2.9953   3.0026
     3.0725   3.1445   3.1976   3.2311   3.2318   3.2511   3.3392   3.3524
     3.3730   3.4170   3.4452   3.4965   3.6141   3.6248   3.6603   3.7020
     3.7363   3.8300   3.8640   3.8929   3.9289   3.9629   4.0053   4.0152
     4.0407   4.2731   4.2820   4.3316   4.3783   4.4030   4.4156   4.4936
     4.4992   4.5759   4.5830   4.6352   4.6719   4.7061   4.7076   4.7421
     4.7442   4.8106   4.8490   4.8806   4.8970   4.9005   4.9439   4.9864
     5.0320   5.0704   5.0830   5.1264   5.1816   5.1967   5.2146   5.2627
     5.2869   5.2941   5.3284   5.4399   5.4709   5.4932   5.5036   5.5380
     5.5833   5.6623   5.6877   5.6894   5.7213   5.7534   5.7969   5.8056
     5.8376   5.9093   5.9172   5.9630   5.9758   6.0324   6.0523   6.0858
     6.0925   6.0987   6.1434   6.1823   6.2063   6.2230   6.2297   6.2667
     6.3043   6.3155   6.3374   6.3712   6.3842   6.4073   6.4304   6.4710
     6.5034   6.5256   6.5325   6.5516   6.5839   6.5989   6.6242   6.6714
     6.7050   6.7323   6.7499   6.7802   6.7922   6.8109   6.8229   6.8599
     6.8623   6.8792   6.8965   6.9209   6.9764   6.9879   6.9965   7.0007
     7.0373   7.0603   7.0906   7.1076   7.1137   7.1494   7.1921   7.2047
     7.2251   7.2391   7.2666   7.2963   7.3226   7.3353   7.3790   7.4094
     7.4202   7.4489   7.4537   7.4638   7.4813   7.5128   7.5588   7.5855
     7.6029   7.6682   7.6988   7.7092   7.7481   7.7560   7.8080   7.8322
     7.8510   7.8635   7.8860   7.8925   7.9106   7.9411   7.9544   8.0016
     8.0124   8.0474   8.0556   8.0727   8.0862   8.0940   8.1341   8.1634
     8.2115   8.2288   8.2809   8.2970   8.3238   8.3474   8.3897   8.3947
     8.4228   8.4643   8.4810   8.5067   8.5094   8.5238   8.5767   8.6343
     8.6544   8.6664   8.6779   8.6918   8.7018   8.7532   8.7647   8.7735
     8.7787   8.8070   8.8212   8.8312   8.8733   8.8905   8.9354   8.9648
     8.9932   9.0265   9.0280   9.0427   9.0752   9.0919   9.0957   9.1289
     9.1810   9.1962   9.2083   9.2247   9.2355   9.2432   9.2677   9.2928
     9.3083   9.3525   9.3564   9.3731   9.4424   9.4448   9.4675   9.4945
     9.5044   9.5254   9.5340   9.5544   9.5812   9.6150   9.6201   9.6330
     9.6363   9.6519   9.6849   9.7125   9.7383   9.7947   9.7978   9.8394
     9.8721   9.9076   9.9218   9.9274   9.9533   9.9661   9.9670   9.9710
     9.9901  10.0124  10.0176  10.0249  10.0822  10.1737  10.1835  10.1843
    10.2080  10.2441  10.2599  10.2816  10.3163  10.3371  10.3836  10.3862
    10.3956  10.4490  10.4970  10.5410  10.5625  10.5984  10.6179  10.6246
    10.6671  10.7143  10.7356  10.7537  10.7597  10.8127  10.8210  10.8426
    10.8575  10.8702  10.8879  10.8968  10.9097  10.9109  10.9289  10.9408
    10.9898  10.9926  11.0110  11.0336

          k = 0.0000 0.0000 0.0082 (103435 PWs)   bands (ev):

   -21.0977 -20.8270 -20.6516 -20.5871 -20.3483 -20.1378 -19.8880 -19.8183
   -19.6181 -19.4517 -19.3904 -19.3066 -18.9646 -18.8477 -18.6582 -18.5677
   -18.3920 -18.1459 -18.1100 -17.7003 -17.6701 -17.5775 -17.5390 -17.3974
   -17.2721 -17.1270 -17.0366 -16.8554 -16.5149 -16.4194 -16.2978 -16.1944
   -16.1010 -16.0560 -15.9621 -15.7788 -15.5513 -15.3239 -14.9341 -14.7513
   -14.6794 -14.4422 -14.3263 -14.2605 -14.1790 -14.0480 -14.0011 -13.8943
   -13.8534 -13.4953 -13.0488 -12.9362 -12.8283 -12.7586 -12.7335 -12.6204
   -12.5863 -12.4632 -12.1350 -11.9169 -11.9013 -11.8495 -11.7232 -11.4729
   -11.4437 -11.2260 -11.1403 -10.9186 -10.8696 -10.7663 -10.6345 -10.5309
   -10.3670 -10.3000 -10.1448 -10.0144  -9.9191  -9.7435  -9.6802  -9.6333
    -9.5745  -9.5181  -9.4335  -9.3922  -9.1686  -9.1545  -9.0822  -8.9611
    -8.8549  -8.8483  -8.7805  -8.6430  -8.6417  -8.6227  -8.5782  -8.5576
    -8.4825  -8.3664  -8.3107  -8.2997  -8.2743  -8.2170  -8.2022  -8.1546
    -8.1087  -8.0559  -8.0460  -7.9977  -7.9435  -7.8020  -7.7762  -7.7590
    -7.6651  -7.6447  -7.6099  -7.5276  -7.4638  -7.4302  -7.2453  -7.1813
    -7.1772  -7.1054  -7.0693  -6.9810  -6.9360  -6.8674  -6.7851  -6.7129
    -6.6937  -6.6115  -6.4946  -6.3917  -6.3584  -6.2925  -6.2724  -6.0965
    -6.0926  -5.8968  -5.8414  -5.8322  -5.7698  -5.7456  -5.6457  -5.4665
    -5.3554  -5.2876  -5.2143  -5.1450  -5.0778  -5.0561  -4.9638  -4.9580
    -4.7548  -4.6093  -4.4910  -4.3465  -4.1402  -3.9315  -3.9100  -3.8650
    -3.8256  -3.8055  -3.4490  -3.3421  -2.7677  -2.4324  -1.8702  -1.0059
    -0.8168  -0.2705  -0.2167  -0.0097   0.0450   0.1238   0.1379   0.2612
     0.3931   0.4890   0.8389   1.1411   1.2003   1.2126   1.2356   1.4302
     1.5362   1.5714   1.5791   1.5794   1.6327   1.8441   1.8985   1.9381
     1.9405   2.0569   2.1268   2.1657   2.2239   2.4398   2.4862   2.5333
     2.6061   2.7413   2.7616   2.7841   2.8751   2.9723   2.9930   3.0013
     3.0731   3.1272   3.1932   3.2372   3.2525   3.2731   3.3067   3.3503
     3.3592   3.4272   3.4665   3.5052   3.6077   3.6292   3.6838   3.7169
     3.7245   3.8588   3.8789   3.8831   3.9182   3.9750   3.9828   4.0172
     4.0452   4.2748   4.2914   4.3364   4.3573   4.3874   4.4199   4.4907
     4.4935   4.5752   4.6075   4.6288   4.6703   4.6887   4.6901   4.7078
     4.7435   4.7960   4.8539   4.8846   4.8852   4.9061   4.9649   4.9878
     4.9943   5.0570   5.0591   5.1253   5.1708   5.1996   5.2103   5.2715
     5.3013   5.3197   5.3660   5.4454   5.4729   5.4975   5.5162   5.5749
     5.6165   5.6618   5.6767   5.6961   5.7237   5.7473   5.7877   5.8050
     5.8174   5.9038   5.9125   5.9584   5.9639   6.0288   6.0570   6.0621
     6.0639   6.1048   6.1299   6.1745   6.1978   6.2108   6.2353   6.2570
     6.2950   6.3247   6.3318   6.3766   6.3782   6.4209   6.4621   6.4902
     6.5089   6.5371   6.5594   6.5680   6.5938   6.5999   6.6263   6.6717
     6.6898   6.7322   6.7430   6.7821   6.8050   6.8180   6.8338   6.8612
     6.8640   6.8825   6.9132   6.9470   6.9765   6.9812   6.9900   6.9956
     7.0206   7.0602   7.0648   7.0812   7.1156   7.1481   7.1761   7.2087
     7.2281   7.2413   7.2637   7.3021   7.3102   7.3222   7.3793   7.3849
     7.4104   7.4424   7.4526   7.4633   7.4662   7.5172   7.5592   7.5711
     7.6039   7.6757   7.6874   7.7220   7.7428   7.7592   7.7977   7.8276
     7.8600   7.8829   7.9187   7.9200   7.9345   7.9490   7.9687   8.0077
     8.0140   8.0656   8.0758   8.0791   8.1081   8.1110   8.1195   8.1529
     8.2067   8.2264   8.2600   8.3122   8.3130   8.3468   8.3802   8.3854
     8.4107   8.4376   8.4645   8.4896   8.4927   8.5351   8.5574   8.6060
     8.6482   8.6619   8.6831   8.6949   8.6999   8.7633   8.7882   8.7989
     8.8081   8.8178   8.8250   8.8544   8.9014   8.9043   8.9422   8.9632
     8.9684   8.9831   9.0250   9.0314   9.0432   9.0745   9.0943   9.1334
     9.1758   9.1919   9.2075   9.2196   9.2318   9.2465   9.2664   9.2854
     9.2983   9.3137   9.3509   9.4210   9.4350   9.4453   9.4808   9.4942
     9.5092   9.5222   9.5373   9.5582   9.5784   9.5848   9.6205   9.6273
     9.6325   9.6764   9.7048   9.7110   9.7637   9.7874   9.8198   9.8511
     9.8784   9.8872   9.9092   9.9236   9.9492   9.9493   9.9687   9.9698
    10.0013  10.0162  10.0227  10.0435  10.0834  10.1420  10.1829  10.2046
    10.2237  10.2461  10.2670  10.2958  10.3352  10.3527  10.3801  10.4193
    10.4238  10.4265  10.4752  10.5229  10.5459  10.5683  10.5964  10.6073
    10.6495  10.7063  10.7288  10.7488  10.7562  10.7777  10.8211  10.8400
    10.8452  10.8802  10.8926  10.8942  10.9097  10.9122  10.9416  10.9436
    10.9684  10.9924  11.0113  11.0281

          k = 0.0000 0.0000 0.0094 (103429 PWs)   bands (ev):

   -21.0957 -20.8389 -20.6435 -20.5775 -20.3586 -20.1231 -19.8905 -19.8404
   -19.6282 -19.4414 -19.3717 -19.3150 -18.9442 -18.8422 -18.6750 -18.5751
   -18.3778 -18.1607 -18.1154 -17.7307 -17.6821 -17.5878 -17.4982 -17.3951
   -17.2569 -17.1235 -17.0179 -16.8624 -16.5239 -16.3956 -16.2915 -16.1967
   -16.1131 -16.0555 -15.9941 -15.7689 -15.5715 -15.3223 -14.9558 -14.7527
   -14.6532 -14.4534 -14.2966 -14.2601 -14.1746 -14.0339 -13.9935 -13.8835
   -13.8429 -13.4932 -13.0698 -12.9600 -12.8497 -12.8145 -12.7230 -12.6294
   -12.5886 -12.4650 -12.1344 -11.9048 -11.8453 -11.8284 -11.6814 -11.4950
   -11.4636 -11.2315 -11.1277 -10.9370 -10.8585 -10.7576 -10.6355 -10.5581
   -10.3423 -10.2993 -10.1470 -10.0343  -9.9099  -9.7430  -9.7164  -9.6476
    -9.5724  -9.5106  -9.4326  -9.3794  -9.1661  -9.1418  -9.0765  -8.9444
    -8.8627  -8.8541  -8.7739  -8.6741  -8.6356  -8.6270  -8.5771  -8.5640
    -8.4862  -8.3842  -8.3207  -8.3128  -8.2637  -8.2231  -8.1979  -8.1521
    -8.0971  -8.0376  -8.0322  -7.9847  -7.9340  -7.7939  -7.7755  -7.7453
    -7.6948  -7.6454  -7.6013  -7.5200  -7.4758  -7.4218  -7.2339  -7.1907
    -7.1548  -7.1203  -7.0848  -6.9898  -6.9384  -6.8545  -6.7901  -6.7145
    -6.6732  -6.5992  -6.5172  -6.4115  -6.3423  -6.3027  -6.3007  -6.0840
    -6.0783  -5.9128  -5.8435  -5.8176  -5.7773  -5.7498  -5.6405  -5.4509
    -5.3769  -5.3086  -5.2323  -5.1044  -5.0833  -5.0533  -4.9628  -4.9467
    -4.7484  -4.5821  -4.5133  -4.3520  -4.1317  -3.9320  -3.9088  -3.8714
    -3.8358  -3.7976  -3.4399  -3.3424  -2.7743  -2.4524  -1.8718  -0.9923
    -0.8008  -0.2730  -0.2194   0.0070   0.0458   0.1310   0.1451   0.2673
     0.3991   0.4539   0.8324   1.1578   1.1726   1.1983   1.2156   1.4309
     1.5293   1.5347   1.5639   1.5774   1.6592   1.8600   1.8888   1.9212
     1.9632   2.0879   2.1301   2.1870   2.2466   2.4702   2.4793   2.5364
     2.6090   2.7188   2.7770   2.7791   2.8484   2.9558   2.9912   3.0007
     3.0711   3.1073   3.1868   3.2406   3.2662   3.2793   3.2996   3.3379
     3.3590   3.4352   3.4899   3.5194   3.5910   3.6434   3.6936   3.7261
     3.7307   3.8395   3.8792   3.9152   3.9168   3.9615   4.0032   4.0203
     4.0511   4.2767   4.2896   4.3293   4.3438   4.3716   4.4375   4.4762
     4.4952   4.5744   4.6023   4.6263   4.6366   4.6736   4.6848   4.7149
     4.7336   4.7909   4.8509   4.8657   4.8768   4.9294   4.9571   4.9863
     4.9916   5.0332   5.0522   5.1087   5.1751   5.1900   5.2248   5.2556
     5.3411   5.3459   5.4042   5.4497   5.4728   5.5021   5.5325   5.6101
     5.6116   5.6459   5.6878   5.6993   5.7332   5.7444   5.7709   5.8031
     5.8272   5.8989   5.9111   5.9431   5.9643   6.0115   6.0380   6.0437
     6.0671   6.0924   6.1230   6.1734   6.1816   6.1913   6.2453   6.2501
     6.2960   6.3024   6.3253   6.3782   6.4060   6.4373   6.4778   6.5120
     6.5127   6.5396   6.5794   6.6008   6.6038   6.6050   6.6413   6.6490
     6.6828   6.7258   6.7461   6.7831   6.8122   6.8326   6.8419   6.8623
     6.8675   6.8875   6.9167   6.9606   6.9734   6.9773   6.9829   7.0007
     7.0202   7.0243   7.0635   7.0758   7.1163   7.1474   7.1608   7.1988
     7.2253   7.2516   7.2655   7.2710   7.3204   7.3381   7.3396   7.3829
     7.4126   7.4290   7.4441   7.4477   7.4685   7.5231   7.5398   7.5594
     7.6387   7.6568   7.6757   7.7339   7.7363   7.7616   7.7928   7.8309
     7.8695   7.9068   7.9265   7.9420   7.9579   7.9869   7.9891   8.0141
     8.0148   8.0690   8.0808   8.0831   8.0974   8.1030   8.1465   8.1910
     8.1965   8.2195   8.2457   8.3067   8.3094   8.3501   8.3721   8.3733
     8.3976   8.4205   8.4609   8.4718   8.4797   8.5215   8.5485   8.5835
     8.6345   8.6606   8.6872   8.6930   8.7195   8.7651   8.8111   8.8120
     8.8184   8.8362   8.8381   8.8815   8.9117   8.9165   8.9216   8.9455
     8.9505   8.9735   9.0027   9.0279   9.0459   9.0634   9.0971   9.1328
     9.1695   9.1765   9.1918   9.2183   9.2241   9.2259   9.2617   9.2888
     9.2921   9.3267   9.3494   9.4176   9.4327   9.4704   9.4878   9.4953
     9.5019   9.5167   9.5434   9.5564   9.5711   9.5865   9.6228   9.6261
     9.6273   9.6984   9.7097   9.7264   9.7790   9.7832   9.8390   9.8503
     9.8576   9.8845   9.9047   9.9200   9.9416   9.9451   9.9662   9.9662
     9.9919  10.0237  10.0285  10.0683  10.0970  10.1149  10.1824  10.2247
    10.2308  10.2425  10.2705  10.3038  10.3372  10.3698  10.4030  10.4334
    10.4381  10.4507  10.4572  10.5099  10.5218  10.5447  10.5719  10.5956
    10.6327  10.6985  10.7225  10.7257  10.7540  10.7574  10.8131  10.8230
    10.8452  10.8834  10.8898  10.8955  10.9071  10.9145  10.9301  10.9556
    10.9684  10.9925  11.0055  11.0170

          k = 0.0000 0.0000 0.0106 (103431 PWs)   bands (ev):

   -21.0934 -20.8504 -20.6367 -20.5662 -20.3686 -20.1079 -19.8984 -19.8568
   -19.6384 -19.4411 -19.3515 -19.3138 -18.9265 -18.8350 -18.6906 -18.5825
   -18.3643 -18.1951 -18.0994 -17.7627 -17.6950 -17.5958 -17.4586 -17.3928
   -17.2401 -17.1300 -16.9957 -16.8611 -16.5355 -16.3715 -16.2861 -16.2043
   -16.1184 -16.0545 -16.0280 -15.7625 -15.5918 -15.3192 -14.9804 -14.7576
   -14.6195 -14.4643 -14.2809 -14.2495 -14.1639 -14.0258 -13.9785 -13.8777
   -13.8277 -13.4901 -13.0905 -12.9842 -12.8857 -12.8582 -12.7194 -12.6505
   -12.5830 -12.4564 -12.1323 -11.8937 -11.8163 -11.7782 -11.6394 -11.5156
   -11.4839 -11.2408 -11.1192 -10.9502 -10.8452 -10.7477 -10.6462 -10.5757
   -10.3405 -10.2783 -10.1516 -10.0522  -9.9041  -9.7726  -9.7416  -9.6486
    -9.5669  -9.4979  -9.4286  -9.3647  -9.1632  -9.1372  -9.0637  -8.9314
    -8.8768  -8.8598  -8.7776  -8.7075  -8.6337  -8.6296  -8.5752  -8.5479
    -8.4882  -8.4042  -8.3329  -8.3255  -8.2533  -8.2302  -8.1944  -8.1516
    -8.0910  -8.0190  -8.0165  -7.9685  -7.9230  -7.7841  -7.7763  -7.7294
    -7.7225  -7.6525  -7.5853  -7.5125  -7.4878  -7.4147  -7.2326  -7.2021
    -7.1436  -7.1085  -7.1036  -6.9993  -6.9394  -6.8457  -6.7945  -6.7129
    -6.6592  -6.5812  -6.5419  -6.4310  -6.3358  -6.3183  -6.3124  -6.0713
    -6.0638  -5.9311  -5.8461  -5.8410  -5.7697  -5.7302  -5.6339  -5.4345
    -5.4004  -5.3359  -5.2425  -5.0895  -5.0726  -5.0433  -4.9683  -4.9282
    -4.7461  -4.5733  -4.5133  -4.3569  -4.1238  -3.9467  -3.9096  -3.8794
    -3.8398  -3.7794  -3.4396  -3.3357  -2.7817  -2.4741  -1.8737  -0.9777
    -0.7827  -0.2875  -0.2078   0.0244   0.0461   0.1289   0.1623   0.2730
     0.4009   0.4250   0.8242   1.1225   1.1444   1.2133   1.2189   1.4213
     1.4897   1.5281   1.5580   1.5803   1.6876   1.8575   1.8973   1.9054
     1.9768   2.1280   2.1336   2.2086   2.2698   2.4545   2.4728   2.5831
     2.6123   2.6920   2.7756   2.7857   2.8319   2.9398   2.9901   2.9998
     3.0666   3.0867   3.1810   3.2340   3.2439   3.2974   3.3231   3.3242
     3.3628   3.4441   3.5130   3.5373   3.5751   3.6533   3.6896   3.7408
     3.7416   3.8237   3.8480   3.9324   3.9589   3.9602   4.0234   4.0240
     4.0587   4.2711   4.2787   4.3184   4.3445   4.3559   4.4562   4.4586
     4.5005   4.5742   4.5778   4.5902   4.6115   4.6572   4.7064   4.7175
     4.7342   4.7932   4.8420   4.8459   4.8747   4.9208   4.9403   4.9857
     5.0042   5.0273   5.0550   5.0916   5.1654   5.2008   5.2397   5.2409
     5.3678   5.3815   5.4422   5.4546   5.4737   5.5079   5.5486   5.5603
     5.6449   5.6625   5.6990   5.7060   5.7205   5.7461   5.7586   5.8055
     5.8462   5.8934   5.9082   5.9383   5.9615   5.9853   6.0177   6.0385
     6.0597   6.0763   6.1310   6.1640   6.1650   6.1805   6.2374   6.2398
     6.2974   6.2977   6.3205   6.3784   6.4408   6.4463   6.4794   6.5203
     6.5353   6.5409   6.5771   6.5992   6.6242   6.6383   6.6383   6.6660
     6.6768   6.7296   6.7505   6.7865   6.8152   6.8215   6.8567   6.8646
     6.8789   6.8936   6.9130   6.9450   6.9535   6.9654   6.9821   7.0099
     7.0122   7.0498   7.0664   7.0742   7.1141   7.1456   7.1502   7.1878
     7.2173   7.2274   7.2616   7.2859   7.3025   7.3279   7.3618   7.3737
     7.4137   7.4152   7.4328   7.4348   7.4714   7.5097   7.5272   7.5693
     7.6213   7.6583   7.6876   7.7232   7.7311   7.7654   7.7971   7.8425
     7.8808   7.9215   7.9256   7.9566   7.9869   8.0055   8.0101   8.0253
     8.0347   8.0635   8.0678   8.0874   8.0958   8.1165   8.1736   8.1820
     8.2043   8.2378   8.2438   8.3015   8.3040   8.3220   8.3640   8.3676
     8.4061   8.4155   8.4493   8.4544   8.4742   8.4974   8.5343   8.5801
     8.6199   8.6681   8.6885   8.6929   8.7405   8.7608   8.7943   8.8107
     8.8354   8.8483   8.8678   8.8773   8.8945   8.9001   8.9232   8.9547
     8.9560   8.9709   9.0012   9.0238   9.0604   9.0645   9.1003   9.1226
     9.1557   9.1619   9.1776   9.2022   9.2041   9.2187   9.2482   9.2793
     9.3045   9.3477   9.3836   9.3944   9.4164   9.4559   9.4750   9.5042
     9.5219   9.5372   9.5389   9.5591   9.5739   9.5914   9.6259   9.6284
     9.6382   9.7023   9.7097   9.7540   9.7689   9.8011   9.8233   9.8318
     9.8420   9.8948   9.8988   9.9252   9.9385   9.9541   9.9649   9.9687
     9.9850  10.0217  10.0231  10.0642  10.0777  10.1508  10.1770  10.2201
    10.2469  10.2620  10.2744  10.3141  10.3300  10.3835  10.4123  10.4309
    10.4332  10.4705  10.4906  10.4911  10.5098  10.5284  10.5584  10.5860
    10.6222  10.6765  10.6991  10.7149  10.7502  10.7554  10.7864  10.8265
    10.8437  10.8686  10.8860  10.8891  10.8966  10.9177  10.9191  10.9695
    10.9806  10.9862  11.0004  11.0127

          k = 0.0000 0.0000 0.0117 (103457 PWs)   bands (ev):

   -21.0908 -20.8617 -20.6309 -20.5534 -20.3783 -20.0924 -19.9145 -19.8645
   -19.6487 -19.4492 -19.3338 -19.3005 -18.9127 -18.8263 -18.7036 -18.5899
   -18.3525 -18.2296 -18.0810 -17.7949 -17.7094 -17.6013 -17.4273 -17.3835
   -17.2224 -17.1436 -16.9735 -16.8507 -16.5482 -16.3494 -16.2821 -16.2160
   -16.1170 -16.0651 -16.0507 -15.7615 -15.6101 -15.3150 -15.0071 -14.7634
   -14.5815 -14.4747 -14.2881 -14.2181 -14.1489 -14.0223 -13.9587 -13.8745
   -13.8099 -13.4858 -13.1109 -13.0092 -12.9388 -12.8851 -12.7361 -12.6605
   -12.5758 -12.4423 -12.1287 -11.8826 -11.7948 -11.7199 -11.5996 -11.5324
   -11.5043 -11.2536 -11.1160 -10.9565 -10.8308 -10.7374 -10.6685 -10.5805
   -10.3498 -10.2517 -10.1578 -10.0660  -9.9035  -9.8218  -9.7586  -9.6373
    -9.5602  -9.4827  -9.4217  -9.3485  -9.1601  -9.1383  -9.0462  -8.9251
    -8.8906  -8.8693  -8.7867  -8.7390  -8.6526  -8.6243  -8.5498  -8.5304
    -8.4891  -8.4247  -8.3453  -8.3378  -8.2524  -8.2303  -8.1945  -8.1485
    -8.0902  -8.0005  -8.0000  -7.9515  -7.9104  -7.7824  -7.7719  -7.7444
    -7.7113  -7.6615  -7.5667  -7.5053  -7.4998  -7.4095  -7.2432  -7.2110
    -7.1384  -7.1246  -7.0777  -7.0092  -6.9398  -6.8431  -6.7970  -6.7081
    -6.6507  -6.5672  -6.5604  -6.4485  -6.3631  -6.3215  -6.3012  -6.0600
    -6.0492  -5.9498  -5.8798  -5.8490  -5.7454  -5.7141  -5.6242  -5.4257
    -5.4175  -5.3658  -5.2480  -5.0965  -5.0650  -5.0102  -4.9743  -4.9094
    -4.7486  -4.5850  -4.4885  -4.3603  -4.1166  -3.9644  -3.9249  -3.8828
    -3.8389  -3.7542  -3.4477  -3.3226  -2.7901  -2.4971  -1.8759  -0.9622
    -0.7627  -0.3068  -0.1893   0.0353   0.0540   0.1262   0.1791   0.2780
     0.3792   0.4227   0.8146   1.0745   1.1148   1.2227   1.2410   1.3877
     1.4773   1.5165   1.5575   1.5840   1.7162   1.8447   1.8878   1.9191
     1.9853   2.1375   2.1729   2.2306   2.2934   2.4393   2.4515   2.6160
     2.6397   2.6671   2.7680   2.7765   2.8392   2.9245   2.9895   2.9970
     3.0602   3.0674   3.1762   3.1986   3.2475   3.3066   3.3202   3.3438
     3.3682   3.4572   3.5335   3.5517   3.5654   3.6516   3.6919   3.7390
     3.7523   3.8222   3.8225   3.9467   3.9687   4.0013   4.0284   4.0426
     4.0688   4.2423   4.2806   4.3147   4.3406   4.3458   4.4388   4.4680
     4.5108   4.5276   4.5715   4.5762   4.5819   4.6411   4.7015   4.7247
     4.7543   4.7965   4.8316   4.8357   4.8749   4.8861   4.9367   4.9620
     5.0139   5.0485   5.0635   5.0882   5.1518   5.2086   5.2358   5.2550
     5.3791   5.4219   5.4612   5.4779   5.4781   5.5093   5.5167   5.5714
     5.6602   5.6612   5.7029   5.7150   5.7235   5.7400   5.7663   5.8127
     5.8538   5.8848   5.8940   5.9461   5.9503   5.9672   6.0120   6.0271
     6.0458   6.0783   6.1288   6.1483   6.1535   6.1816   6.2055   6.2332
     6.2942   6.3145   6.3208   6.3779   6.4322   6.4755   6.4940   6.5227
     6.5377   6.5530   6.5600   6.5993   6.6256   6.6534   6.6690   6.6880
     6.6978   6.7371   6.7562   6.7919   6.8068   6.8180   6.8541   6.8676
     6.8781   6.8924   6.9114   6.9274   6.9368   6.9648   6.9795   7.0112
     7.0214   7.0636   7.0704   7.0845   7.1226   7.1403   7.1429   7.1817
     7.1917   7.2097   7.2684   7.2688   7.3049   7.3323   7.3607   7.3861
     7.3966   7.4133   7.4175   7.4368   7.4751   7.4812   7.5300   7.5842
     7.5853   7.6529   7.7110   7.7117   7.7179   7.7744   7.8048   7.8558
     7.8868   7.9220   7.9361   7.9651   7.9741   8.0102   8.0341   8.0427
     8.0589   8.0760   8.0865   8.0934   8.1037   8.1208   8.1640   8.1883
     8.2159   8.2309   8.2671   8.2764   8.3123   8.3196   8.3579   8.3724
     8.3880   8.4209   8.4291   8.4384   8.4705   8.4851   8.5277   8.5794
     8.6097   8.6689   8.6895   8.7005   8.7423   8.7582   8.7600   8.7988
     8.8434   8.8499   8.8709   8.8709   8.8942   8.8987   8.9256   8.9583
     8.9725   8.9763   9.0216   9.0295   9.0615   9.0843   9.1046   9.1098
     9.1355   9.1529   9.1590   9.1741   9.1824   9.2075   9.2696   9.2764
     9.3206   9.3454   9.3680   9.3899   9.4180   9.4481   9.4505   9.5157
     9.5314   9.5422   9.5581   9.5778   9.5841   9.5893   9.6305   9.6324
     9.6624   9.6992   9.7111   9.7561   9.7761   9.7979   9.7981   9.8233
     9.8291   9.8927   9.8948   9.9228   9.9497   9.9521   9.9711   9.9826
     9.9858   9.9954  10.0230  10.0638  10.0702  10.1457  10.1821  10.2372
    10.2651  10.2817  10.2830  10.3185  10.3350  10.3862  10.4018  10.4081
    10.4486  10.4551  10.4918  10.5001  10.5176  10.5337  10.5670  10.5831
    10.6215  10.6402  10.6897  10.6999  10.7420  10.7553  10.7721  10.8239
    10.8380  10.8509  10.8699  10.8809  10.8922  10.9143  10.9169  10.9750
    10.9802  10.9831  11.0051  11.0133

          k = 0.0000 0.0000 0.0129 (103443 PWs)   bands (ev):

   -21.0881 -20.8727 -20.6259 -20.5397 -20.3874 -20.0767 -19.9357 -19.8666
   -19.6590 -19.4628 -19.3195 -19.2773 -18.9031 -18.8181 -18.7119 -18.5971
   -18.3451 -18.2597 -18.0626 -17.8263 -17.7247 -17.6049 -17.4169 -17.3545
   -17.2045 -17.1620 -16.9532 -16.8318 -16.5611 -16.3313 -16.2816 -16.2268
   -16.1159 -16.0960 -16.0479 -15.7683 -15.6237 -15.3100 -15.0353 -14.7693
   -14.5413 -14.4840 -14.3001 -14.1834 -14.1305 -14.0205 -13.9382 -13.8717
   -13.7908 -13.4803 -13.1307 -13.0376 -12.9915 -12.9099 -12.7715 -12.6575
   -12.5681 -12.4254 -12.1234 -11.8712 -11.7727 -11.6651 -11.5731 -11.5364
   -11.5198 -11.2695 -11.1179 -10.9560 -10.8169 -10.7288 -10.6937 -10.5775
   -10.3616 -10.2340 -10.1628 -10.0727  -9.9164  -9.8650  -9.7765  -9.6205
    -9.5520  -9.4659  -9.4122  -9.3311  -9.1566  -9.1423  -9.0272  -8.9314
    -8.9040  -8.8773  -8.8016  -8.7628  -8.6730  -8.6195  -8.5232  -8.5121
    -8.4871  -8.4410  -8.3566  -8.3496  -8.2616  -8.2261  -8.1949  -8.1413
    -8.0934  -7.9856  -7.9807  -7.9364  -7.8961  -7.8004  -7.7571  -7.7538
    -7.6921  -7.6698  -7.5474  -7.5116  -7.4983  -7.4064  -7.2620  -7.2180
    -7.1462  -7.1273  -7.0436  -7.0194  -6.9403  -6.8463  -6.7977  -6.7007
    -6.6454  -6.5917  -6.5429  -6.4597  -6.3929  -6.3298  -6.2810  -6.0515
    -6.0350  -5.9668  -5.9196  -5.8521  -5.7190  -5.7031  -5.6100  -5.4531
    -5.4001  -5.3956  -5.2509  -5.1041  -5.0657  -4.9810  -4.9697  -4.8909
    -4.7573  -4.5972  -4.4597  -4.3599  -4.1100  -3.9843  -3.9465  -3.8848
    -3.8369  -3.7243  -3.4618  -3.3056  -2.7993  -2.5212  -1.8783  -0.9460
    -0.7408  -0.3275  -0.1674   0.0352   0.0738   0.1237   0.1929   0.2815
     0.3526   0.4313   0.8036   1.0251   1.0859   1.2268   1.2633   1.3449
     1.4819   1.5029   1.5598   1.5881   1.7445   1.8306   1.8721   1.9415
     1.9915   2.1416   2.2192   2.2528   2.3174   2.4245   2.4269   2.6200
     2.6338   2.7067   2.7400   2.7788   2.8555   2.9107   2.9893   2.9899
     3.0524   3.0524   3.1632   3.1720   3.2514   3.2926   3.3393   3.3573
     3.3761   3.4758   3.5410   3.5485   3.5827   3.6400   3.7005   3.7164
     3.7578   3.8164   3.8359   3.9544   3.9865   4.0338   4.0414   4.0612
     4.0833   4.2112   4.2820   4.3120   4.3261   4.3478   4.4175   4.4721
     4.4743   4.5203   4.5425   4.5623   4.5820   4.6263   4.6900   4.7184
     4.7768   4.7947   4.8242   4.8375   4.8628   4.8745   4.9184   4.9423
     5.0161   5.0686   5.0762   5.1052   5.1412   5.1985   5.2501   5.2704
     5.3766   5.4489   5.4617   5.4706   5.5033   5.5065   5.5367   5.5909
     5.6439   5.6491   5.7047   5.7291   5.7359   5.7427   5.7852   5.8228
     5.8517   5.8699   5.8753   5.9202   5.9523   5.9578   6.0171   6.0355
     6.0409   6.0791   6.1096   6.1313   6.1620   6.1670   6.1829   6.2315
     6.2863   6.3245   6.3361   6.3764   6.4085   6.4858   6.5077   6.5212
     6.5348   6.5493   6.5863   6.6010   6.6241   6.6590   6.6903   6.7078
     6.7319   6.7490   6.7662   6.7942   6.7974   6.8209   6.8434   6.8672
     6.8688   6.8743   6.8899   6.9307   6.9483   6.9723   6.9796   7.0138
     7.0295   7.0585   7.0760   7.0860   7.1265   7.1310   7.1517   7.1665
     7.1850   7.2099   7.2384   7.2761   7.3218   7.3303   7.3569   7.3772
     7.3917   7.4014   7.4224   7.4450   7.4540   7.4838   7.5316   7.5482
     7.6034   7.6448   7.6972   7.6997   7.7242   7.7907   7.8149   7.8645
     7.8789   7.9276   7.9309   7.9667   7.9668   8.0113   8.0483   8.0531
     8.0855   8.0931   8.0982   8.1151   8.1321   8.1330   8.1488   8.1881
     8.2067   8.2433   8.2460   8.2951   8.3092   8.3443   8.3596   8.3669
     8.3775   8.4092   8.4137   8.4269   8.4442   8.5096   8.5268   8.5754
     8.6037   8.6553   8.6819   8.6905   8.7206   8.7496   8.7756   8.7837
     8.8265   8.8356   8.8621   8.8872   8.8890   8.9145   8.9270   8.9671
     8.9869   8.9923   9.0334   9.0467   9.0629   9.0927   9.0985   9.1128
     9.1152   9.1443   9.1444   9.1640   9.1662   9.2049   9.2599   9.3069
     9.3337   9.3351   9.3472   9.3685   9.3869   9.4225   9.5012   9.5240
     9.5270   9.5595   9.5687   9.5712   9.5898   9.6126   9.6350   9.6536
     9.6810   9.6946   9.7103   9.7398   9.7632   9.7845   9.7979   9.8073
     9.8385   9.8850   9.8936   9.9164   9.9257   9.9590   9.9653   9.9763
     9.9973  10.0111  10.0259  10.0675  10.0740  10.1173  10.1988  10.2490
    10.2729  10.2947  10.3012  10.3280  10.3409  10.3803  10.3810  10.4160
    10.4230  10.4553  10.4727  10.4998  10.5277  10.5681  10.5731  10.5870
    10.6089  10.6484  10.6738  10.6797  10.7373  10.7554  10.7691  10.7991
    10.8343  10.8459  10.8563  10.8729  10.8813  10.9109  10.9155  10.9649
    10.9713  10.9938  11.0074  11.0122

          k = 0.0000 0.0000 0.0141 (103441 PWs)   bands (ev):

   -21.0850 -20.8834 -20.6213 -20.5254 -20.3959 -20.0610 -19.9585 -19.8664
   -19.6693 -19.4794 -19.3056 -19.2497 -18.8973 -18.8137 -18.7125 -18.6038
   -18.3498 -18.2776 -18.0457 -17.8560 -17.7404 -17.6071 -17.4178 -17.3149
   -17.1901 -17.1799 -16.9351 -16.8059 -16.5740 -16.3201 -16.2874 -16.2302
   -16.1441 -16.0966 -16.0418 -15.7839 -15.6311 -15.3048 -15.0642 -14.7749
   -14.5067 -14.4849 -14.3129 -14.1511 -14.1072 -14.0188 -13.9205 -13.8671
   -13.7709 -13.4735 -13.1501 -13.0768 -13.0336 -12.9351 -12.8140 -12.6519
   -12.5593 -12.4074 -12.1163 -11.8593 -11.7499 -11.6278 -11.5609 -11.5479
   -11.4959 -11.2881 -11.1235 -10.9502 -10.8081 -10.7322 -10.7030 -10.5710
   -10.3743 -10.2324 -10.1654 -10.0680  -9.9570  -9.8878  -9.7903  -9.6040
    -9.5404  -9.4482  -9.4006  -9.3127  -9.1528  -9.1479  -9.0087  -8.9502
    -8.9170  -8.8848  -8.8225  -8.7752  -8.6898  -8.6150  -8.5167  -8.4935
    -8.4858  -8.4355  -8.3655  -8.3606  -8.2734  -8.2297  -8.1887  -8.1321
    -8.0987  -7.9725  -7.9611  -7.9241  -7.8804  -7.8260  -7.7550  -7.7402
    -7.6852  -7.6629  -7.5293  -7.5233  -7.4913  -7.4053  -7.2844  -7.2257
    -7.1648  -7.1124  -7.0299  -7.0083  -6.9418  -6.8524  -6.7988  -6.6935
    -6.6423  -6.6129  -6.5385  -6.4567  -6.4223  -6.3367  -6.2605  -6.0491
    -6.0234  -5.9790  -5.9569  -5.8554  -5.6972  -5.6924  -5.5915  -5.4823
    -5.4234  -5.3825  -5.2526  -5.1125  -5.0681  -4.9882  -4.9282  -4.8732
    -4.7723  -4.6035  -4.4367  -4.3514  -4.1044  -4.0062  -3.9692  -3.8871
    -3.8349  -3.6920  -3.4797  -3.2867  -2.8095  -2.5459  -1.8810  -0.9292
    -0.7171  -0.3485  -0.1431   0.0326   0.0962   0.1221   0.1997   0.2821
     0.3353   0.4420   0.7914   0.9757   1.0573   1.2313   1.2560   1.3264
     1.4888   1.4932   1.5633   1.5927   1.7723   1.8163   1.8567   1.9649
     1.9967   2.1461   2.2638   2.2753   2.3416   2.4026   2.4105   2.6072
     2.6245   2.7098   2.7658   2.7840   2.8690   2.9014   2.9772   2.9896
     3.0441   3.0442   3.1281   3.1681   3.2558   3.2784   3.3551   3.3656
     3.3887   3.4983   3.5268   3.5550   3.6045   3.6250   3.6817   3.7094
     3.7678   3.8227   3.8572   3.9610   4.0068   4.0409   4.0648   4.0914
     4.1034   4.1807   4.2818   4.3089   4.3129   4.3507   4.3944   4.4203
     4.4716   4.5092   4.5231   4.5469   4.5868   4.6162   4.6880   4.6943
     4.7851   4.7940   4.8178   4.8195   4.8707   4.8843   4.8926   4.9310
     5.0153   5.0853   5.0917   5.1159   5.1505   5.1853   5.2690   5.2857
     5.3603   5.4103   5.4744   5.4975   5.5180   5.5339   5.5696   5.6062
     5.6190   5.6363   5.7027   5.7253   5.7558   5.7599   5.7999   5.8357
     5.8436   5.8483   5.8593   5.8995   5.9466   5.9523   6.0138   6.0346
     6.0748   6.0751   6.0971   6.1108   6.1334   6.1725   6.1838   6.2313
     6.2773   6.3281   6.3584   6.3688   6.3880   6.4452   6.5254   6.5346
     6.5380   6.5580   6.6065   6.6143   6.6239   6.6676   6.6954   6.7147
     6.7414   6.7644   6.7884   6.7948   6.7969   6.8260   6.8308   6.8431
     6.8695   6.8757   6.8892   6.9276   6.9477   6.9813   6.9915   7.0231
     7.0239   7.0512   7.0832   7.0854   7.1106   7.1246   7.1529   7.1575
     7.1871   7.2146   7.2395   7.2843   7.3182   7.3406   7.3550   7.3599
     7.3849   7.3919   7.4256   7.4264   7.4663   7.4962   7.5162   7.5316
     7.6192   7.6412   7.6818   7.6881   7.7208   7.7960   7.8285   7.8558
     7.8759   7.9078   7.9301   7.9703   7.9795   8.0249   8.0520   8.0584
     8.0839   8.1020   8.1245   8.1297   8.1446   8.1505   8.1631   8.1775
     8.2127   8.2448   8.2630   8.2953   8.3232   8.3278   8.3548   8.3746
     8.3858   8.3911   8.4015   8.4243   8.4373   8.5241   8.5385   8.5666
     8.5906   8.6223   8.6499   8.6916   8.7183   8.7446   8.7748   8.7810
     8.8120   8.8249   8.8576   8.8774   8.9028   8.9136   8.9540   8.9723
     8.9983   9.0046   9.0288   9.0416   9.0707   9.0806   9.1024   9.1170
     9.1173   9.1420   9.1479   9.1536   9.1670   9.2140   9.2499   9.3071
     9.3115   9.3386   9.3427   9.3633   9.3785   9.3916   9.5147   9.5172
     9.5549   9.5683   9.5763   9.5817   9.6056   9.6203   9.6354   9.6729
     9.6786   9.6990   9.7037   9.7258   9.7418   9.7797   9.8032   9.8098
     9.8408   9.8729   9.8836   9.8910   9.9201   9.9530   9.9744   9.9763
     9.9932  10.0194  10.0366  10.0804  10.0867  10.1014  10.2138  10.2372
    10.2787  10.3070  10.3185  10.3350  10.3449  10.3553  10.3774  10.3966
    10.4279  10.4512  10.4677  10.4985  10.5299  10.5559  10.5998  10.6028
    10.6126  10.6486  10.6587  10.6842  10.7395  10.7530  10.7701  10.7776
    10.8162  10.8376  10.8605  10.8630  10.8726  10.9014  10.9206  10.9528
    10.9625  10.9945  11.0048  11.0181

          k = 0.0000 0.0000 0.0153 (103453 PWs)   bands (ev):

   -21.0818 -20.8938 -20.6170 -20.5110 -20.4034 -20.0456 -19.9812 -19.8651
   -19.6797 -19.4972 -19.2911 -19.2202 -18.8950 -18.8150 -18.7041 -18.6099
   -18.3716 -18.2782 -18.0326 -17.8818 -17.7557 -17.6084 -17.4220 -17.2732
   -17.2083 -17.1668 -16.9185 -16.7752 -16.5863 -16.3221 -16.2932 -16.2265
   -16.1807 -16.0885 -16.0318 -15.8074 -15.6331 -15.2999 -15.0932 -14.7804
   -14.5073 -14.4485 -14.3256 -14.1251 -14.0775 -14.0160 -13.9090 -13.8580
   -13.7503 -13.4653 -13.1690 -13.1282 -13.0630 -12.9612 -12.8586 -12.6479
   -12.5488 -12.3893 -12.1075 -11.8470 -11.7272 -11.6260 -11.5703 -11.5169
   -11.4571 -11.3085 -11.1307 -10.9413 -10.8155 -10.7368 -10.6945 -10.5626
   -10.3875 -10.2432 -10.1708 -10.0511 -10.0114  -9.9045  -9.7964  -9.5913
    -9.5234  -9.4305  -9.3868  -9.2936  -9.1545  -9.1487  -8.9954  -8.9716
    -8.9297  -8.9024  -8.8391  -8.7829  -8.6999  -8.6104  -8.5297  -8.4920
    -8.4749  -8.4099  -8.3705  -8.3662  -8.2862  -8.2393  -8.1773  -8.1249
    -8.1028  -7.9613  -7.9415  -7.9147  -7.8643  -7.8535  -7.7537  -7.7232
    -7.6906  -7.6390  -7.5348  -7.5143  -7.4838  -7.4051  -7.3084  -7.2396
    -7.1746  -7.0955  -7.0406  -6.9724  -6.9453  -6.8589  -6.8017  -6.6928
    -6.6407  -6.6248  -6.5482  -6.4507  -6.4397  -6.3414  -6.2401  -6.0560
    -6.0262  -5.9831  -5.9797  -5.8590  -5.6951  -5.6675  -5.5701  -5.5122
    -5.4486  -5.3650  -5.2534  -5.1216  -5.0714  -4.9959  -4.8866  -4.8574
    -4.7919  -4.6037  -4.4248  -4.3308  -4.1003  -4.0298  -3.9912  -3.8898
    -3.8332  -3.6586  -3.5001  -3.2671  -2.8206  -2.5710  -1.8837  -0.9120
    -0.6920  -0.3695  -0.1169   0.0296   0.1112   0.1279   0.1957   0.2811
     0.3323   0.4538   0.7780   0.9269   1.0290   1.2123   1.2362   1.3407
     1.4746   1.5092   1.5675   1.5977   1.7993   1.8022   1.8416   1.9888
     2.0017   2.1509   2.2978   2.2983   2.3650   2.3864   2.3982   2.5810
     2.6292   2.6790   2.7836   2.8310   2.8682   2.9036   2.9628   2.9902
     3.0360   3.0418   3.0936   3.1641   3.2605   3.2644   3.3660   3.3704
     3.4070   3.5096   3.5237   3.5512   3.6094   3.6211   3.6521   3.7192
     3.7854   3.8323   3.8805   3.9691   4.0250   4.0520   4.0749   4.1193
     4.1380   4.1532   4.2781   4.3026   4.3053   4.3545   4.3580   4.3788
     4.4670   4.4758   4.5211   4.5324   4.5812   4.6120   4.6636   4.7001
     4.7709   4.7720   4.8098   4.8303   4.8567   4.8752   4.9194   4.9271
     5.0154   5.0904   5.1095   5.1193   5.1626   5.1926   5.2843   5.3009
     5.3298   5.3866   5.4791   5.5156   5.5407   5.5657   5.5910   5.6001
     5.6129   5.6430   5.6957   5.7258   5.7617   5.7746   5.7988   5.8239
     5.8258   5.8432   5.8645   5.8978   5.9437   5.9512   6.0039   6.0323
     6.0698   6.0732   6.0945   6.0990   6.1373   6.1787   6.1869   6.2319
     6.2685   6.3249   6.3509   6.3777   6.3807   6.4082   6.5083   6.5432
     6.5518   6.5816   6.6148   6.6262   6.6429   6.6711   6.6913   6.7123
     6.7380   6.7690   6.7705   6.7960   6.8092   6.8384   6.8436   6.8496
     6.8711   6.8783   6.8938   6.9273   6.9412   6.9889   6.9972   6.9997
     7.0383   7.0478   7.0880   7.0920   7.1053   7.1191   7.1427   7.1561
     7.1854   7.2001   7.2739   7.2986   7.3165   7.3301   7.3411   7.3681
     7.3744   7.3953   7.3961   7.4249   7.4846   7.4910   7.5096   7.5355
     7.6233   7.6526   7.6644   7.6814   7.7132   7.7906   7.8247   7.8282
     7.8787   7.8960   7.9305   7.9833   7.9993   8.0348   8.0481   8.0667
[...]
    -5.3449  -5.2551  -5.2521  -5.2044  -5.1639  -5.0797  -5.0186  -4.7418
    -4.5450  -4.5094  -4.4014  -4.2990  -4.2382  -4.0347  -3.9924  -3.9123
    -3.8260  -3.7656  -3.3697  -3.1359  -2.9456  -2.7550  -1.9047  -0.7589
    -0.5701  -0.3798  -0.1447   0.0055   0.1026   0.2089   0.3016   0.4296
     0.4663   0.5163   0.5891   0.6671   0.7495   0.8064   1.2957   1.3633
     1.4287   1.6238   1.6589   1.6936   1.7260   1.7932   1.9422   2.0234
     2.1296   2.2051   2.2211   2.2853   2.3246   2.3942   2.5281   2.6116
     2.6857   2.7075   2.7614   2.7816   2.7983   2.8515   2.9208   3.0257
     3.0884   3.1069   3.1360   3.1668   3.1735   3.3206   3.3224   3.3770
     3.4107   3.4321   3.4486   3.4994   3.6409   3.7841   3.8055   3.8236
     3.8404   3.8635   3.8843   4.0510   4.0524   4.1259   4.1284   4.1630
     4.1697   4.1733   4.2102   4.2225   4.2798   4.2979   4.3619   4.3726
     4.3820   4.4152   4.4253   4.4782   4.4804   4.4834   4.5455   4.5678
     4.5861   4.6212   4.6511   4.8550   4.9173   4.9571   4.9909   5.0223
     5.0430   5.0636   5.1063   5.1661   5.2465   5.3031   5.3175   5.3658
     5.3926   5.4390   5.4622   5.5227   5.5344   5.5526   5.5655   5.5832
     5.5967   5.6238   5.6776   5.7202   5.7310   5.7665   5.8149   5.8240
     5.8794   5.9079   5.9216   5.9564   5.9634   5.9883   5.9917   6.0351
     6.0389   6.0674   6.0934   6.1183   6.1613   6.1813   6.1953   6.2272
     6.2503   6.2589   6.2813   6.3085   6.3222   6.3651   6.4208   6.4887
     6.5465   6.5885   6.6079   6.6216   6.6245   6.6676   6.6837   6.7187
     6.7426   6.7662   6.8033   6.8276   6.8431   6.8531   6.8692   6.8766
     6.8825   6.9066   6.9336   6.9344   6.9422   6.9714   6.9915   7.0260
     7.0536   7.0737   7.1182   7.1415   7.1572   7.1837   7.1892   7.2009
     7.2139   7.2331   7.2436   7.2908   7.3016   7.3276   7.3379   7.3791
     7.3834   7.4301   7.4532   7.4636   7.4831   7.5001   7.5226   7.5546
     7.5794   7.6329   7.6362   7.6372   7.6807   7.7698   7.7889   7.8125
     7.8380   7.8670   7.8753   7.8913   7.9105   7.9599   7.9951   8.0567
     8.0947   8.1020   8.1371   8.1425   8.1587   8.1674   8.1781   8.2188
     8.2379   8.2381   8.2603   8.2955   8.3330   8.3392   8.3536   8.4160
     8.4283   8.4310   8.4537   8.4707   8.5152   8.5346   8.5604   8.5892
     8.6269   8.6322   8.6730   8.6963   8.7272   8.7505   8.7509   8.7689
     8.8006   8.8338   8.8349   8.8653   8.8833   8.9126   8.9417   8.9674
     8.9932   8.9932   9.0198   9.0205   9.0369   9.0669   9.0864   9.1201
     9.1249   9.1482   9.1901   9.1987   9.1995   9.2167   9.2446   9.2558
     9.2615   9.3013   9.3304   9.3631   9.3709   9.3820   9.4281   9.4700
     9.5076   9.5171   9.5307   9.5769   9.6002   9.6039   9.6285   9.6716
     9.6796   9.7087   9.7213   9.7397   9.7704   9.7709   9.7765   9.7991
     9.8229   9.8549   9.8813   9.9031   9.9238   9.9797   9.9899  10.0233
    10.0479  10.0493  10.0498  10.0825  10.1102  10.1329  10.1380  10.2037
    10.2168  10.2732  10.3040  10.3100  10.3318  10.3511  10.3794  10.3962
    10.4499  10.4767  10.4789  10.5380  10.5599  10.5880  10.6023  10.6236
    10.6415  10.6492  10.6602  10.6755  10.7116  10.7222  10.7478  10.7557
    10.7846  10.7919  10.7941  10.8157  10.8394  10.8671  10.9068  10.9178
    10.9589  10.9771  10.9849  11.0032

          k = 0.0000 0.0000 0.0270 (103398 PWs)   bands (ev):

   -21.0448 -20.9708 -20.5831 -20.4892 -20.3054 -20.2149 -19.8709 -19.8449
   -19.8000 -19.6351 -19.1367 -19.0174 -18.8886 -18.8373 -18.7598 -18.6355
   -18.4088 -18.2809 -18.1559 -17.9406 -17.6800 -17.6064 -17.5708 -17.3805
   -17.0357 -16.8477 -16.7804 -16.6500 -16.6272 -16.5380 -16.3664 -16.2668
   -16.2088 -16.1455 -16.0578 -15.7885 -15.6067 -15.4333 -15.1843 -14.8170
   -14.5613 -14.4111 -14.0337 -13.9817 -13.9448 -13.9221 -13.7738 -13.7005
   -13.6074 -13.5177 -13.4314 -13.3011 -13.2886 -13.2282 -13.1737 -12.6798
   -12.4323 -12.2784 -11.9493 -11.8211 -11.7429 -11.6880 -11.5690 -11.4134
   -11.2678 -11.1627 -11.0395 -10.9227 -10.8615 -10.6397 -10.6215 -10.5251
   -10.4884 -10.4398 -10.3518 -10.3285 -10.2118  -9.8352  -9.5631  -9.4719
    -9.3832  -9.3523  -9.3332  -9.2342  -9.2171  -9.1282  -9.0986  -9.0451
    -9.0279  -9.0112  -8.9114  -8.8288  -8.7470  -8.6284  -8.5684  -8.4944
    -8.4686  -8.4232  -8.3854  -8.3445  -8.2469  -8.2336  -8.1295  -8.0847
    -8.0113  -7.9536  -7.9295  -7.8958  -7.7677  -7.7452  -7.7385  -7.7183
    -7.6529  -7.6083  -7.5369  -7.5181  -7.5039  -7.4412  -7.3067  -7.2529
    -7.1820  -7.1012  -7.0522  -6.9401  -6.9017  -6.8660  -6.8100  -6.7840
    -6.6838  -6.6048  -6.5944  -6.4556  -6.4118  -6.3785  -6.2888  -6.0679
    -6.0533  -5.9661  -5.9218  -5.8852  -5.8388  -5.7179  -5.6516  -5.3494
    -5.3131  -5.2638  -5.2519  -5.2004  -5.1898  -5.0871  -5.0267  -4.7373
    -4.5364  -4.4781  -4.3906  -4.3329  -4.2565  -4.0302  -3.9633  -3.9094
    -3.8260  -3.7986  -3.3512  -3.1324  -2.9545  -2.7641  -1.9057  -0.7471
    -0.5805  -0.3483  -0.1799   0.0045   0.1034   0.2454   0.3025   0.4105
     0.4965   0.5180   0.5996   0.6513   0.7079   0.7905   1.3030   1.3541
     1.4308   1.6304   1.6666   1.6851   1.7163   1.8305   1.9448   1.9882
     2.1476   2.2112   2.2463   2.2782   2.3030   2.3681   2.5487   2.6395
     2.6808   2.6959   2.7486   2.7722   2.8051   2.8714   2.9218   3.0203
     3.0953   3.1021   3.1385   3.1397   3.1807   3.2928   3.3299   3.3719
     3.4213   3.4390   3.4909   3.4971   3.6673   3.7467   3.7695   3.8377
     3.8535   3.8544   3.8913   4.0486   4.0780   4.1252   4.1477   4.1527
     4.1626   4.1729   4.2134   4.2221   4.2704   4.3100   4.3484   4.3759
     4.3914   4.4145   4.4236   4.4515   4.4687   4.4797   4.5429   4.5765
     4.5962   4.6247   4.6403   4.8069   4.9201   4.9563   4.9876   5.0267
     5.0606   5.0825   5.1260   5.1726   5.2408   5.2864   5.2925   5.3834
     5.4215   5.4520   5.4552   5.5119   5.5317   5.5489   5.5632   5.5936
     5.5949   5.6420   5.6449   5.7126   5.7194   5.7649   5.8171   5.8185
     5.8763   5.9160   5.9228   5.9564   5.9799   6.0094   6.0135   6.0272
     6.0548   6.0758   6.1007   6.1131   6.1493   6.1754   6.1882   6.2061
     6.2354   6.2578   6.2640   6.3176   6.3298   6.3749   6.4262   6.5034
     6.5076   6.5557   6.6003   6.6141   6.6506   6.6854   6.7003   6.7187
     6.7466   6.7657   6.8035   6.8107   6.8458   6.8581   6.8671   6.8773
     6.8946   6.9109   6.9174   6.9359   6.9417   6.9715   6.9883   7.0120
     7.0489   7.0804   7.1269   7.1482   7.1666   7.1878   7.1902   7.2097
     7.2116   7.2326   7.2528   7.2922   7.3044   7.3265   7.3589   7.3673
     7.3907   7.4016   7.4452   7.4545   7.5052   7.5121   7.5413   7.5583
     7.5762   7.6158   7.6254   7.6482   7.6939   7.7369   7.7679   7.8050
     7.8525   7.8687   7.8977   7.9070   7.9240   7.9572   7.9981   8.0461
     8.0727   8.1042   8.1045   8.1124   8.1353   8.1662   8.1878   8.2203
     8.2253   8.2364   8.2759   8.3074   8.3341   8.3404   8.3617   8.4033
     8.4192   8.4423   8.4595   8.4895   8.5099   8.5393   8.5770   8.5837
     8.6286   8.6426   8.6660   8.7112   8.7247   8.7709   8.7793   8.7872
     8.7931   8.8356   8.8417   8.8640   8.8701   8.9170   8.9387   8.9447
     8.9808   8.9881   9.0155   9.0218   9.0450   9.0504   9.0739   9.1167
     9.1226   9.1512   9.2015   9.2050   9.2121   9.2183   9.2326   9.2551
     9.2686   9.3060   9.3342   9.3412   9.3592   9.3823   9.3988   9.4626
     9.5154   9.5172   9.5486   9.5794   9.5947   9.5978   9.6299   9.6726
     9.6891   9.7018   9.7276   9.7333   9.7617   9.7764   9.7991   9.8098
     9.8458   9.8533   9.8923   9.9142   9.9159   9.9578   9.9914  10.0045
    10.0180  10.0233  10.0455  10.0619  10.0917  10.1385  10.1495  10.2367
    10.2391  10.2770  10.2976  10.3106  10.3489  10.3733  10.4066  10.4128
    10.4464  10.4468  10.4684  10.5537  10.5551  10.5875  10.6124  10.6254
    10.6317  10.6455  10.6712  10.6780  10.6947  10.7049  10.7289  10.7398
    10.7753  10.7840  10.7936  10.8162  10.8349  10.8540  10.8941  10.9340
    10.9607  10.9851  10.9857  11.0074

          k = 0.0000 0.0000 0.0282 (103420 PWs)   bands (ev):

   -21.0429 -20.9734 -20.5818 -20.4909 -20.2876 -20.2339 -19.8579 -19.8414
   -19.8144 -19.6387 -19.1275 -19.0259 -18.8569 -18.8371 -18.7904 -18.6392
   -18.3776 -18.3120 -18.1523 -17.9449 -17.6552 -17.6066 -17.5949 -17.3834
   -17.0319 -16.8267 -16.7568 -16.6822 -16.6287 -16.5529 -16.3264 -16.2678
   -16.2428 -16.1496 -16.0573 -15.7755 -15.6073 -15.4445 -15.1830 -14.8180
   -14.5625 -14.4130 -14.0326 -13.9780 -13.9359 -13.8818 -13.7866 -13.7370
   -13.5619 -13.5078 -13.4696 -13.3037 -13.2936 -13.2291 -13.1882 -12.6815
   -12.4285 -12.2764 -11.9359 -11.8349 -11.7461 -11.6758 -11.5828 -11.3986
   -11.2669 -11.1809 -11.0155 -10.9352 -10.8045 -10.6831 -10.6362 -10.5261
   -10.4762 -10.4378 -10.3584 -10.3269 -10.2297  -9.8336  -9.5255  -9.4655
    -9.4032  -9.3699  -9.3382  -9.2180  -9.2082  -9.1483  -9.0957  -9.0406
    -9.0319  -8.9950  -8.9296  -8.8315  -8.7506  -8.6258  -8.5667  -8.4920
    -8.4711  -8.4264  -8.3839  -8.3487  -8.2526  -8.2101  -8.1542  -8.0808
    -7.9966  -7.9647  -7.9275  -7.8757  -7.7770  -7.7375  -7.7333  -7.7083
    -7.6664  -7.6169  -7.5408  -7.5196  -7.5099  -7.4399  -7.2767  -7.2477
    -7.2029  -7.0980  -7.0628  -6.9348  -6.8873  -6.8772  -6.8086  -6.7986
    -6.6900  -6.6041  -6.5585  -6.4840  -6.3940  -6.3885  -6.3068  -6.0452
    -6.0312  -5.9704  -5.9569  -5.8849  -5.8348  -5.7189  -5.6586  -5.3350
    -5.2818  -5.2737  -5.2518  -5.2179  -5.1962  -5.0921  -5.0311  -4.7346
    -4.5335  -4.4437  -4.3824  -4.3658  -4.2698  -4.0282  -3.9430  -3.8975
    -3.8325  -3.8241  -3.3392  -3.1309  -2.9600  -2.7697  -1.9063  -0.7391
    -0.5879  -0.3195  -0.2108   0.0040   0.1038   0.2806   0.3032   0.3790
     0.5098   0.5482   0.6056   0.6292   0.6798   0.7799   1.3090   1.3469
     1.4320   1.6357   1.6729   1.6789   1.7084   1.8669   1.9411   1.9577
     2.1623   2.2155   2.2661   2.2774   2.2867   2.3435   2.5662   2.6571
     2.6745   2.6990   2.7277   2.7574   2.8163   2.8849   2.9369   3.0067
     3.0976   3.1009   3.1161   3.1357   3.2035   3.2665   3.3365   3.3654
     3.4231   3.4447   3.4843   3.5569   3.6848   3.6926   3.7497   3.8446
     3.8505   3.8662   3.8968   4.0441   4.1021   4.1246   4.1413   4.1485
     4.1602   4.1767   4.2143   4.2405   4.2564   4.2980   4.3590   4.3825
     4.3981   4.4039   4.4261   4.4313   4.4612   4.4829   4.5251   4.5818
     4.5986   4.6283   4.6649   4.7585   4.9219   4.9560   4.9852   5.0271
     5.0730   5.0934   5.1556   5.1754   5.2323   5.2556   5.2844   5.4023
     5.4467   5.4475   5.4688   5.4883   5.5367   5.5406   5.5723   5.5788
     5.6005   5.6284   5.6532   5.7077   5.7249   5.7652   5.7946   5.8205
     5.8674   5.9242   5.9404   5.9483   5.9829   6.0123   6.0383   6.0417
     6.0529   6.1012   6.1092   6.1105   6.1319   6.1724   6.1786   6.1854
     6.2252   6.2315   6.2569   6.3202   6.3671   6.3850   6.4431   6.4651
     6.5105   6.5270   6.5872   6.6134   6.6736   6.6869   6.7185   6.7357
     6.7495   6.7648   6.7970   6.8045   6.8432   6.8483   6.8581   6.8654
     6.9047   6.9150   6.9345   6.9346   6.9464   6.9695   6.9865   6.9883
     7.0418   7.0948   7.1340   7.1544   7.1760   7.1897   7.1932   7.2050
     7.2083   7.2325   7.2611   7.3000   7.3096   7.3199   7.3587   7.3665
     7.3774   7.4175   7.4307   7.4557   7.5004   7.5123   7.5312   7.5758
     7.5941   7.6183   7.6385   7.6623   7.6803   7.7224   7.7477   7.7651
     7.8454   7.8874   7.9203   7.9345   7.9441   7.9693   7.9916   8.0314
     8.0533   8.0708   8.0986   8.1056   8.1157   8.1730   8.1967   8.2120
     8.2204   8.2278   8.2988   8.3032   8.3390   8.3417   8.3774   8.3841
     8.4223   8.4341   8.4618   8.4921   8.5251   8.5565   8.5663   8.6009
     8.6107   8.6426   8.6684   8.7245   8.7274   8.7699   8.7720   8.7868
     8.8296   8.8486   8.8563   8.8739   8.8761   8.9120   8.9212   8.9355
     8.9493   8.9763   9.0068   9.0187   9.0241   9.0657   9.0768   9.1239
     9.1375   9.1535   9.1759   9.2069   9.2074   9.2302   9.2502   9.2624
     9.2714   9.3093   9.3118   9.3310   9.3456   9.3748   9.4195   9.4502
     9.5102   9.5175   9.5450   9.5769   9.5915   9.6002   9.6449   9.6742
     9.6935   9.7021   9.7256   9.7340   9.7539   9.7790   9.8050   9.8270
     9.8495   9.8731   9.8962   9.9216   9.9269   9.9442   9.9604   9.9896
     9.9982  10.0191  10.0411  10.0489  10.0748  10.1441  10.1683  10.2261
    10.2455  10.2905  10.3039  10.3303  10.3712  10.3883  10.4037  10.4207
    10.4282  10.4502  10.4841  10.5343  10.5512  10.5662  10.6225  10.6361
    10.6426  10.6441  10.6531  10.6814  10.6894  10.6951  10.7163  10.7401
    10.7612  10.7816  10.7964  10.8185  10.8356  10.8435  10.8814  10.9488
    10.9628  10.9803  10.9885  11.0100

          k = 0.0000 0.0000-0.0293 (103456 PWs)   bands (ev):

   -21.0423 -20.9743 -20.5814 -20.4914 -20.2776 -20.2443 -19.8532 -19.8355
   -19.8243 -19.6399 -19.1240 -19.0292 -18.8376 -18.8307 -18.8156 -18.6403
   -18.3524 -18.3373 -18.1510 -17.9464 -17.6388 -17.6128 -17.6049 -17.3844
   -17.0306 -16.8207 -16.7260 -16.7173 -16.6256 -16.5590 -16.2903 -16.2849
   -16.2606 -16.1505 -16.0571 -15.7709 -15.6077 -15.4483 -15.1825 -14.8183
   -14.5630 -14.4137 -14.0323 -13.9769 -13.9355 -13.8460 -13.8128 -13.7471
   -13.5222 -13.5138 -13.4976 -13.3044 -13.2953 -13.2281 -13.1943 -12.6821
   -12.4272 -12.2757 -11.9304 -11.8405 -11.7472 -11.6708 -11.5885 -11.3931
   -11.2664 -11.1879 -11.0047 -10.9424 -10.7536 -10.7346 -10.6356 -10.5268
   -10.4708 -10.4376 -10.3618 -10.3245 -10.2368  -9.8332  -9.5013  -9.4744
    -9.4079  -9.3794  -9.3390  -9.2169  -9.1945  -9.1615  -9.0946  -9.0395
    -9.0333  -8.9844  -8.9401  -8.8326  -8.7516  -8.6250  -8.5661  -8.4912
    -8.4720  -8.4275  -8.3832  -8.3502  -8.2545  -8.1941  -8.1705  -8.0795
    -7.9872  -7.9731  -7.9270  -7.8666  -7.7819  -7.7354  -7.7313  -7.7014
    -7.6740  -7.6202  -7.5427  -7.5195  -7.5119  -7.4394  -7.2562  -7.2514
    -7.2151  -7.0949  -7.0685  -6.9315  -6.8822  -6.8813  -6.8080  -6.8047
    -6.6921  -6.6039  -6.5320  -6.5083  -6.3913  -6.3861  -6.3148  -6.0422
    -5.9991  -5.9886  -5.9722  -5.8847  -5.8331  -5.7192  -5.6610  -5.3287
    -5.2786  -5.2575  -5.2522  -5.2409  -5.1946  -5.0940  -5.0325  -4.7337
    -4.5327  -4.4183  -4.3941  -4.3755  -4.2749  -4.0276  -3.9374  -3.8822
    -3.8524  -3.8250  -3.3351  -3.1305  -2.9619  -2.7716  -1.9065  -0.7362
    -0.5906  -0.3049  -0.2259   0.0038   0.1039   0.2997   0.3048   0.3591
     0.5124   0.5846   0.5885   0.6162   0.6715   0.7761   1.3116   1.3439
     1.4324   1.6378   1.6748   1.6776   1.7050   1.8920   1.9226   1.9519
     2.1683   2.2171   2.2679   2.2802   2.2872   2.3298   2.5739   2.6521
     2.6974   2.6989   2.7048   2.7535   2.8196   2.8877   2.9528   2.9936
     3.0950   3.1033   3.1096   3.1335   3.2189   3.2502   3.3397   3.3622
     3.4234   3.4470   3.4817   3.6073   3.6340   3.7088   3.7350   3.8464
     3.8494   3.8716   3.8987   4.0421   4.1163   4.1244   4.1372   4.1397
     4.1590   4.1800   4.2201   4.2469   4.2534   4.2849   4.3733   4.3852
     4.3953   4.4003   4.4140   4.4349   4.4578   4.4880   4.5145   4.5849
     4.5971   4.6252   4.7078   4.7135   4.9225   4.9560   4.9842   5.0271
     5.0775   5.0966   5.1760   5.1773   5.2174   5.2461   5.2814   5.4106
     5.4487   5.4589   5.4721   5.4757   5.5385   5.5465   5.5598   5.5742
     5.6060   5.6255   5.6520   5.7059   5.7404   5.7678   5.7723   5.8211
     5.8651   5.9293   5.9430   5.9521   5.9783   6.0082   6.0434   6.0547
     6.0711   6.0837   6.1122   6.1245   6.1295   6.1640   6.1716   6.1846
     6.2144   6.2216   6.2565   6.3205   6.3881   6.3952   6.4360   6.4608
     6.4932   6.5277   6.5806   6.6137   6.6827   6.6875   6.7184   6.7505
     6.7542   6.7643   6.8037   6.8051   6.8107   6.8498   6.8561   6.8658
     6.9081   6.9167   6.9336   6.9501   6.9534   6.9673   6.9687   6.9862
     7.0383   7.1012   7.1374   7.1559   7.1810   7.1933   7.1946   7.1999
     7.2061   7.2300   7.2634   7.3072   7.3122   7.3189   7.3476   7.3747
     7.3765   7.3973   7.4545   7.4723   7.4758   7.4997   7.5314   7.5768
     7.6159   7.6232   7.6417   7.6781   7.6882   7.6906   7.7298   7.7606
     7.8352   7.8979   7.9325   7.9507   7.9549   7.9709   8.0030   8.0075
     8.0327   8.0744   8.0874   8.1061   8.1085   8.1781   8.2014   8.2052
     8.2203   8.2232   8.2991   8.3112   8.3426   8.3432   8.3631   8.3997
     8.4245   8.4285   8.4475   8.4996   8.5430   8.5593   8.5629   8.5959
     8.6083   8.6401   8.6712   8.7291   8.7307   8.7680   8.7697   8.7827
     8.8393   8.8586   8.8648   8.8818   8.8929   8.9026   8.9244   8.9285
     8.9340   8.9538   8.9987   9.0143   9.0241   9.0638   9.0939   9.1372
     9.1425   9.1468   9.1592   9.2067   9.2078   9.2296   9.2666   9.2711
     9.2740   9.2889   9.3093   9.3299   9.3438   9.3631   9.4428   9.4504
     9.4875   9.5176   9.5437   9.5840   9.5905   9.5983   9.6523   9.6747
     9.6953   9.7034   9.7210   9.7380   9.7495   9.7827   9.8007   9.8353
     9.8516   9.8783   9.9164   9.9242   9.9244   9.9334   9.9577   9.9691
     9.9875  10.0275  10.0386  10.0438  10.0664  10.1481  10.1796  10.2156
    10.2411  10.2947  10.3118  10.3564  10.3770  10.3816  10.3909  10.4208
    10.4340  10.4650  10.4808  10.5187  10.5496  10.5719  10.6029  10.6359
    10.6517  10.6541  10.6596  10.6706  10.6810  10.6946  10.7168  10.7431
    10.7527  10.7806  10.7979  10.8223  10.8339  10.8393  10.8767  10.9539
    10.9669  10.9746  10.9895  11.0137

     the Fermi energy is    -1.8655 ev

     Writing output data file AGNR_10_Defect_A.save/

     init_run     :     16.33s CPU     16.90s WALL (       1 calls)
     electrons    :  10783.22s CPU  10899.78s WALL (       1 calls)

     Called by init_run:
     wfcinit      :      0.00s CPU      0.01s WALL (       1 calls)
     potinit      :      0.99s CPU      1.08s WALL (       1 calls)
     hinit0       :     12.58s CPU     12.77s WALL (       1 calls)

     Called by electrons:
     c_bands      :  10783.21s CPU  10899.31s WALL (       1 calls)
     v_of_rho     :      0.77s CPU      0.82s WALL (       1 calls)
     newd         :      0.73s CPU      0.97s WALL (       1 calls)

     Called by c_bands:
     init_us_2    :      1.08s CPU      1.23s WALL (      26 calls)
     cegterg      :  10612.49s CPU  10718.49s WALL (     147 calls)

     Called by sum_band:

     Called by *egterg:
     h_psi        :   2859.93s CPU   2904.00s WALL (    2892 calls)
     s_psi        :    430.21s CPU    432.75s WALL (    2892 calls)
     g_psi        :     13.90s CPU     13.96s WALL (    2719 calls)
     cdiaghg      :   4484.63s CPU   4500.78s WALL (    2745 calls)

     Called by h_psi:
     h_psi:pot    :   2842.29s CPU   2878.35s WALL (    2892 calls)
     h_psi:calbec :    420.59s CPU    426.45s WALL (    2892 calls)
     vloc_psi     :   1990.08s CPU   2017.85s WALL (    2892 calls)
     add_vuspsi   :    431.57s CPU    433.99s WALL (    2892 calls)

     General routines
     calbec       :    420.58s CPU    426.38s WALL (    2892 calls)
     fft          :      0.79s CPU      0.85s WALL (      14 calls)
     ffts         :      0.00s CPU      0.01s WALL (       1 calls)
     fftw         :   1597.40s CPU   1620.14s WALL (  684552 calls)
     interpolate  :      0.05s CPU      0.05s WALL (       1 calls)
     davcio       :      0.00s CPU      7.07s WALL (      52 calls)

     Parallel routines
     fft_scatt_xy :    277.10s CPU    279.86s WALL (  684567 calls)
     fft_scatt_yz :    261.19s CPU    266.68s WALL (  684567 calls)

     PWSCF        :     3h 0m CPU        0h 3m WALL

       7h

   This run was terminated on:  21:14:10  16Apr2021            

=------------------------------------------------------------------------------=
   JOB DONE.
=------------------------------------------------------------------------------=
