
     Program PWSCF v.6.3 starts on 16Apr2021 at 17: 3: 3 

     This program is part of the open-source Quantum ESPRESSO suite
     for quantum simulation of materials; please cite
         "P. Giannozzi et al., J. Phys.:Condens. Matter 21 395502 (2009);
         "P. Giannozzi et al., J. Phys.:Condens. Matter 29 465901 (2017);
          URL http://www.quantum-espresso.org", 
     in publications or presentations arising from this work. More details at
     http://www.quantum-espresso.org/quote

     Parallel version (MPI), running on    16 processors
     R & G space division:  proc/nbgrp/npool/nimage =      16
     Waiting for input...
     Reading input from standard input
     Message from routine read_cards :
     DEPRECATED: no units specified in CELL_PARAMETERS card

     Current dimensions of program PWSCF are:
     Max number of different atomic species (ntypx) = 10
     Max number of k-points (npk) =  40000
     Max angular momentum in pseudopotentials (lmaxx) =  3

     Atomic positions and unit cell read from directory:
     /home/zfwang/scratch/GNRDATASET/AGNR/AGNR_10_Defect_B/AGNR_10_Defect_B.save/


     Subspace diagonalization in iterative solution of the eigenvalue problem:
     a serial algorithm will be used


     Parallelization info
     --------------------
     sticks:   dense  smooth     PW     G-vecs:    dense   smooth      PW
     Min        1795     598    154               268889    51736    6769
     Max        1797     599    155               268893    51739    6771
     Sum       28723    9573   2475              4302255   827793  108323



     bravais-lattice index     =            0
     lattice parameter (alat)  =       1.8897  a.u.
     unit-cell volume          =   24226.2045 (a.u.)^3
     number of atoms/cell      =           96
     number of atomic types    =            2
     number of electrons       =       330.00
     number of Kohn-Sham states=          500
     kinetic-energy cutoff     =      40.0000  Ry
     charge density cutoff     =     480.0000  Ry
     Exchange-correlation      = PBE ( 1  4  3  4 0 0)

     celldm(1)=  18.897261  celldm(2)=   2.106780  celldm(3)=   1.704000
     celldm(4)=   0.000000  celldm(5)=   0.000000  celldm(6)=   0.000000

     crystal axes: (cart. coord. in units of alat)
               a(1) = (  10.000000   0.000000   0.000000 )  
               a(2) = (   0.000000  21.067800   0.000000 )  
               a(3) = (   0.000000   0.000000  17.040000 )  

     reciprocal axes: (cart. coord. in units 2 pi/alat)
               b(1) = (  0.100000  0.000000  0.000000 )  
               b(2) = (  0.000000  0.047466  0.000000 )  
               b(3) = (  0.000000  0.000000  0.058685 )  


     PseudoPot. # 1 for C  read from file:
     /home/zfwang/hp_home/MySoftware/qe-6.3/pseudo/C.pbe-n-rrkjus_psl.0.1.UPF
     MD5 check sum: fff530ed632a789b3b184014e67dd7f1
     Pseudo is Ultrasoft + core correction, Zval =  4.0
     Generated using "atomic" code by A. Dal Corso v.5.0.2 svn rev. 9415
     Using radial grid of 1073 points,  4 beta functions with: 
                l(1) =   0
                l(2) =   0
                l(3) =   1
                l(4) =   1
     Q(r) pseudized with 0 coefficients 


     PseudoPot. # 2 for H  read from file:
     /home/zfwang/hp_home/MySoftware/qe-6.3/pseudo/H.pbe-rrkjus_psl.0.1.UPF
     MD5 check sum: e164a6907b691c6980f16942be34de84
     Pseudo is Ultrasoft, Zval =  1.0
     Generated using "atomic" code by A. Dal Corso v.5.0.2 svn rev. 9415
     Using radial grid of  929 points,  2 beta functions with: 
                l(1) =   0
                l(2) =   0
     Q(r) pseudized with 0 coefficients 


     atomic species   valence    mass     pseudopotential
        C              4.00    12.01070     C ( 1.00)
        H              1.00     1.00794     H ( 1.00)

     No symmetry found



   Cartesian axes

     site n.     atom                  positions (alat units)
         1           C   tau(   1) = (   4.9999996   5.0005337   0.6821373  )
         2           C   tau(   2) = (   4.9999999   4.9927866   4.9375521  )
         3           C   tau(   3) = (   5.0000001   4.9814246   9.2028502  )
         4           C   tau(   4) = (   4.9999986   4.9966485  13.4668661  )
         5           C   tau(   5) = (   4.9999998   6.2081744   1.4157491  )
         6           C   tau(   6) = (   4.9999998   6.1990394   5.6741362  )
         7           C   tau(   7) = (   4.9999993   6.1907746   9.9369022  )
         8           C   tau(   8) = (   4.9999989   6.2069929  14.1965296  )
         9           C   tau(   9) = (   4.9999998   4.9966547   3.5731472  )
        10           C   tau(  10) = (   5.0000005   4.9814282   7.8371532  )
        11           C   tau(  11) = (   4.9999987   4.9927803  12.1024316  )
        12           C   tau(  12) = (   4.9999992   5.0005275  16.3578574  )
        13           C   tau(  13) = (   5.0000001   7.4393272   0.7124778  )
        14           C   tau(  14) = (   4.9999997   7.4338532   4.9714679  )
        15           C   tau(  15) = (   4.9999991   7.4199167   9.2316694  )
        16           C   tau(  16) = (   4.9999991   7.4370548  13.4911549  )
        17           C   tau(  17) = (   5.0000006   8.6737695   1.4240738  )
        18           C   tau(  18) = (   4.9999996   8.6710432   5.6823047  )
        19           C   tau(  19) = (   4.9999987   8.6569337   9.9436340  )
        20           C   tau(  20) = (   4.9999996   8.6763549  14.2000509  )
        21           C   tau(  21) = (   4.9999998   6.2069937   2.8434625  )
        22           C   tau(  22) = (   4.9999999   6.1907786   7.1031021  )
        23           C   tau(  23) = (   4.9999990   6.1990395  11.3658697  )
        24           C   tau(  24) = (   4.9999993   6.2081692  15.6242463  )
        25           C   tau(  25) = (   4.9999999   7.4370582   3.5488480  )
        26           C   tau(  26) = (   4.9999993   7.4199157   7.8083391  )
        27           C   tau(  27) = (   4.9999989   7.4338511  12.0685274  )
        28           C   tau(  28) = (   4.9999999   7.4393288  16.3275160  )
        29           C   tau(  29) = (   5.0000011   9.9075933   0.7115557  )
        30           C   tau(  30) = (   4.9999999   9.9113558   4.9719231  )
        31           C   tau(  31) = (   4.9999982   9.8839542   9.2297876  )
        32           C   tau(  32) = (   4.9999995   9.9093760  13.4860405  )
        33           C   tau(  33) = (   5.0000015  11.1352707   1.4206602  )
        34           C   tau(  34) = (   4.9999994  11.1474761   5.6800656  )
        35           C   tau(  35) = (   4.9999979  11.1142780   9.9413102  )
        36           C   tau(  36) = (   4.9999998  11.1478588  14.1904270  )
        37           C   tau(  37) = (   5.0000003   8.6763536   2.8399465  )
        38           C   tau(  38) = (   4.9999991   8.6569340   7.0963705  )
        39           C   tau(  39) = (   4.9999989   8.6710444  11.3577002  )
        40           C   tau(  40) = (   5.0000000   8.6737683  15.6159250  )
        41           C   tau(  41) = (   5.0000005   9.9093773   3.5539617  )
        42           C   tau(  42) = (   4.9999985   9.8839538   7.8102161  )
        43           C   tau(  43) = (   4.9999989   9.9113580  12.0680778  )
        44           C   tau(  44) = (   5.0000008   9.9075950  16.3284473  )
        45           C   tau(  45) = (   5.0000017  12.3591946   0.7085590  )
        46           C   tau(  46) = (   4.9999999  12.4009356   4.9730007  )
        47           C   tau(  47) = (   4.9999981  12.3351326   9.2306086  )
        48           C   tau(  48) = (   4.9999994  12.3766478  13.4850069  )
        49           C   tau(  49) = (   5.0000019  13.5934210   1.4221204  )
        50           C   tau(  50) = (   4.9999991  13.6429212   5.6816491  )
        51           C   tau(  51) = (   4.9999996  13.5604370   9.9562787  )
        52           C   tau(  52) = (   5.0000005  13.6183079  14.1988534  )
        53           C   tau(  53) = (   5.0000012  11.1478605   2.8495751  )
        54           C   tau(  54) = (   4.9999985  11.1142807   7.0986940  )
        55           C   tau(  55) = (   4.9999983  11.1474762  11.3599372  )
        56           C   tau(  56) = (   5.0000008  11.1352668  15.6193419  )
        57           C   tau(  57) = (   5.0000011  12.3766501   3.5549943  )
        58           C   tau(  58) = (   4.9999980  12.3351278   7.8093977  )
        59           C   tau(  59) = (   4.9999983  12.4009316  12.0670012  )
        60           C   tau(  60) = (   5.0000014  12.3591997  16.3314424  )
        61           C   tau(  61) = (   5.0000020  14.8050556   0.7084203  )
        62           C   tau(  62) = (   5.0000006  14.9485861   4.9752986  )
        63           C   tau(  63) = (   5.0000049  14.7261627   9.1878909  )
        64           C   tau(  64) = (   5.0000004  14.8598901  13.5285130  )
        65           C   tau(  65) = (   5.0000019  16.0185184   1.3932067  )
        66           C   tau(  66) = (   5.0000008  16.2412386   5.4437343  )
        67           C   tau(  67) = (   5.0000006  16.0368883  14.2914480  )
        68           C   tau(  68) = (   5.0000018  13.6183121   2.8411503  )
        69           C   tau(  69) = (   4.9999984  13.5604493   7.0837315  )
        70           C   tau(  70) = (   4.9999980  13.6429250  11.3583541  )
        71           C   tau(  71) = (   5.0000013  13.5934138  15.6178684  )
        72           C   tau(  72) = (   5.0000019  14.8598862   3.5114800  )
        73           C   tau(  73) = (   5.0000027  14.7261482   7.8521123  )
        74           C   tau(  74) = (   4.9999979  14.9485821  12.0647048  )
        75           C   tau(  75) = (   5.0000018  14.8050601  16.3315811  )
        76           C   tau(  76) = (   5.0000017  16.0368863   2.7485772  )
        77           C   tau(  77) = (   4.9999950  16.2412396  11.5962715  )
        78           C   tau(  78) = (   5.0000015  16.0185144  15.6467597  )
        79           H   tau(  79) = (   4.9999996   4.0450645   1.1992777  )
        80           H   tau(  80) = (   5.0000001   4.0351192   5.4517253  )
        81           H   tau(  81) = (   5.0000008   4.0252254   9.7201234  )
        82           H   tau(  82) = (   4.9999983   4.0432976  13.9886781  )
        83           H   tau(  83) = (   4.9999997   4.0432926   3.0513276  )
        84           H   tau(  84) = (   5.0000013   4.0252326   7.3198752  )
        85           H   tau(  85) = (   4.9999985   4.0351215  11.5882690  )
        86           H   tau(  86) = (   4.9999990   4.0450549  15.8407227  )
        87           H   tau(  87) = (   5.0000014  16.9687418   0.8718958  )
        88           H   tau(  88) = (   5.0000037  17.0564881   4.7377089  )
        89           H   tau(  89) = (   4.9999995  17.0196510  13.8423534  )
        90           H   tau(  90) = (   5.0000010  17.0196400   3.1976386  )
        91           H   tau(  91) = (   4.9999993  17.0564861  12.3022978  )
        92           H   tau(  92) = (   5.0000014  16.9687406  16.1681127  )
        93           H   tau(  93) = (   5.0000138  15.6847126   9.6340842  )
        94           H   tau(  94) = (   4.9999975  16.6540544   6.4333709  )
        95           H   tau(  95) = (   5.0000079  15.6847191   7.4059158  )
        96           H   tau(  96) = (   4.9999874  16.6540510  10.6066347  )

     number of k points=    26  Marzari-Vanderbilt smearing, width (Ry)=  0.0100
                       cart. coord. in units 2pi/alat
        k(    1) = (   0.0000000   0.0000000   0.0000000), wk =   0.0400000
        k(    2) = (   0.0000000   0.0000000   0.0011737), wk =   0.0800000
        k(    3) = (   0.0000000   0.0000000   0.0023474), wk =   0.0800000
        k(    4) = (   0.0000000   0.0000000   0.0035211), wk =   0.0800000
        k(    5) = (   0.0000000   0.0000000   0.0046948), wk =   0.0800000
        k(    6) = (   0.0000000   0.0000000   0.0058685), wk =   0.0800000
        k(    7) = (   0.0000000   0.0000000   0.0070423), wk =   0.0800000
        k(    8) = (   0.0000000   0.0000000   0.0082160), wk =   0.0800000
        k(    9) = (   0.0000000   0.0000000   0.0093897), wk =   0.0800000
        k(   10) = (   0.0000000   0.0000000   0.0105634), wk =   0.0800000
        k(   11) = (   0.0000000   0.0000000   0.0117371), wk =   0.0800000
        k(   12) = (   0.0000000   0.0000000   0.0129108), wk =   0.0800000
        k(   13) = (   0.0000000   0.0000000   0.0140845), wk =   0.0800000
        k(   14) = (   0.0000000   0.0000000   0.0152582), wk =   0.0800000
        k(   15) = (   0.0000000   0.0000000   0.0164319), wk =   0.0800000
        k(   16) = (   0.0000000   0.0000000   0.0176056), wk =   0.0800000
        k(   17) = (   0.0000000   0.0000000   0.0187793), wk =   0.0800000
        k(   18) = (   0.0000000   0.0000000   0.0199531), wk =   0.0800000
        k(   19) = (   0.0000000   0.0000000   0.0211268), wk =   0.0800000
        k(   20) = (   0.0000000   0.0000000   0.0223005), wk =   0.0800000
        k(   21) = (   0.0000000   0.0000000   0.0234742), wk =   0.0800000
        k(   22) = (   0.0000000   0.0000000   0.0246479), wk =   0.0800000
        k(   23) = (   0.0000000   0.0000000   0.0258216), wk =   0.0800000
        k(   24) = (   0.0000000   0.0000000   0.0269953), wk =   0.0800000
        k(   25) = (   0.0000000   0.0000000   0.0281690), wk =   0.0800000
        k(   26) = (   0.0000000   0.0000000  -0.0293427), wk =   0.0400000

     Dense  grid:  4302255 G-vectors     FFT dimensions: ( 135, 288, 225)

     Smooth grid:   827793 G-vectors     FFT dimensions: (  80, 162, 135)

     Estimated max dynamical RAM per process >     979.29 MB

     Estimated total dynamical RAM >      15.30 GB

     The potential is recalculated from file :
     /home/zfwang/scratch/GNRDATASET/AGNR/AGNR_10_Defect_B/AGNR_10_Defect_B.save/charge-density.dat


     negative rho (up, down):  1.309E-04 0.000E+00
     Starting wfcs are  330 randomized atomic wfcs +  170 random wfcs

     Band Structure Calculation
     Davidson diagonalization with overlap
     c_bands:  1 eigenvalues not converged
     c_bands:  1 eigenvalues not converged
     c_bands:  1 eigenvalues not converged
     c_bands:  2 eigenvalues not converged
     c_bands:  2 eigenvalues not converged
     c_bands:  2 eigenvalues not converged
     c_bands:  1 eigenvalues not converged
     c_bands:  2 eigenvalues not converged

     ethr =  3.03E-09,  avg # of iterations = 96.6

     total cpu time spent up to now is    10287.4 secs

     End of band structure calculation

          k = 0.0000 0.0000 0.0000 (103407 PWs)   bands (ev):

   -21.1113 -20.7711 -20.7207 -20.6181 -20.2680 -20.2266 -19.8704 -19.6539
   -19.6531 -19.5017 -19.4416 -19.1978 -19.0811 -18.8514 -18.5856 -18.5129
   -18.2872 -18.2166 -17.8671 -17.8391 -17.6532 -17.5199 -17.5145 -17.3554
   -17.3273 -17.1667 -16.9486 -16.6834 -16.6317 -16.4330 -16.2270 -16.2220
   -16.0769 -15.8483 -15.8463 -15.6876 -15.4576 -15.1122 -14.9080 -14.7929
   -14.6026 -14.4633 -14.3328 -14.3285 -14.1080 -14.0285 -13.9775 -13.9519
   -13.5835 -13.4762 -12.9059 -12.8862 -12.7750 -12.6846 -12.6211 -12.3683
   -12.3584 -12.3377 -12.2472 -12.0471 -11.9779 -11.8806 -11.8246 -11.3606
   -11.3083 -11.1972 -10.9278 -10.8263 -10.7798 -10.7156 -10.6524 -10.4821
   -10.3031 -10.2970 -10.0314 -10.0212  -9.7857  -9.7478  -9.6959  -9.6418
    -9.4473  -9.3946  -9.2863  -9.2090  -9.1938  -9.1863  -9.0419  -9.0088
    -8.9416  -8.7696  -8.7300  -8.6368  -8.6164  -8.5527  -8.4384  -8.4300
    -8.3913  -8.3575  -8.3393  -8.3105  -8.2421  -8.2264  -8.2013  -8.1933
    -8.1707  -8.1076  -8.1024  -7.9145  -7.8316  -7.7553  -7.7552  -7.7290
    -7.6380  -7.5413  -7.4803  -7.4650  -7.4616  -7.3348  -7.2713  -7.1760
    -7.0461  -6.9476  -6.9364  -6.9159  -6.8619  -6.8315  -6.7389  -6.7077
    -6.6058  -6.4016  -6.3635  -6.3024  -6.2163  -6.2136  -6.0331  -5.9695
    -5.9589  -5.9435  -5.8218  -5.7156  -5.7036  -5.4785  -5.4486  -5.4296
    -5.2811  -5.1761  -5.1534  -5.0491  -4.9740  -4.9464  -4.9156  -4.7987
    -4.5596  -4.3266  -4.3120  -4.2334  -3.9942  -3.8738  -3.8606  -3.7741
    -3.5747  -3.3253  -3.1305  -2.6215  -2.0447  -1.7144  -0.9420  -0.6807
    -0.3146  -0.0984  -0.0963  -0.0127   0.1364   0.1946   0.2323   0.6028
     0.7518   0.9806   1.0384   1.1851   1.3856   1.4209   1.5099   1.5448
     1.5896   1.6072   1.6658   1.6901   1.8672   1.9481   1.9782   1.9802
     2.0300   2.0449   2.0528   2.1140   2.4709   2.5488   2.6054   2.6268
     2.7485   2.7563   2.8859   2.9696   3.0002   3.0542   3.0653   3.0741
     3.1143   3.1180   3.2026   3.2983   3.3093   3.3235   3.3590   3.4404
     3.4669   3.4870   3.5349   3.5695   3.5856   3.6089   3.7220   3.7226
     3.7621   3.8198   3.8322   3.9850   3.9881   4.0827   4.1072   4.1551
     4.2705   4.2790   4.2975   4.3785   4.4891   4.4925   4.5025   4.5415
     4.5760   4.5828   4.5946   4.6558   4.6715   4.7282   4.7423   4.7997
     4.8064   4.8156   4.8376   4.9384   4.9466   4.9804   4.9906   5.0060
     5.0403   5.0835   5.0998   5.1842   5.2027   5.2172   5.2688   5.2733
     5.3014   5.3344   5.3602   5.3954   5.4045   5.4065   5.4654   5.5002
     5.5530   5.5844   5.7604   5.7618   5.7720   5.8775   5.9139   5.9455
     5.9900   6.0005   6.0070   6.0265   6.0295   6.0567   6.0705   6.0709
     6.0746   6.1271   6.1951   6.1992   6.2207   6.2337   6.2727   6.2802
     6.3088   6.3114   6.3257   6.3440   6.3892   6.4231   6.4416   6.4944
     6.5083   6.5153   6.5437   6.5667   6.5713   6.5808   6.6027   6.6460
     6.6603   6.7443   6.7762   6.7816   6.7911   6.7957   6.8204   6.8410
     6.8782   6.9415   6.9477   6.9597   6.9719   6.9935   7.0220   7.0248
     7.0555   7.0864   7.1377   7.1559   7.1900   7.2461   7.2521   7.2591
     7.3008   7.3152   7.3395   7.3526   7.3677   7.3683   7.3884   7.4409
     7.4505   7.4689   7.4870   7.5160   7.5432   7.5616   7.5990   7.6367
     7.6486   7.6787   7.6950   7.6993   7.7142   7.7730   7.7751   7.7895
     7.8037   7.8346   7.8564   7.8942   7.9096   7.9128   7.9520   7.9639
     8.0055   8.0282   8.0398   8.0621   8.0631   8.0678   8.1838   8.2587
     8.3093   8.3114   8.3697   8.3885   8.4441   8.4545   8.4601   8.5131
     8.5152   8.5164   8.5499   8.5851   8.5860   8.5979   8.6117   8.6211
     8.6290   8.6483   8.6580   8.6892   8.7273   8.7322   8.7637   8.8009
     8.8166   8.8247   8.8292   8.8471   8.8561   8.8602   8.8662   8.9894
     9.0387   9.0591   9.0596   9.1183   9.1433   9.1490   9.2057   9.2150
     9.2160   9.2608   9.2678   9.2931   9.3147   9.3316   9.3361   9.3593
     9.3770   9.3858   9.3910   9.4351   9.4528   9.4645   9.4694   9.4939
     9.5148   9.5402   9.5477   9.5795   9.6049   9.6201   9.6213   9.6641
     9.6860   9.7108   9.7257   9.7468   9.7537   9.8113   9.8882   9.8931
     9.9106   9.9270   9.9308  10.0019  10.0038  10.0268  10.0333  10.0393
    10.0466  10.0619  10.0813  10.0891  10.0909  10.0953  10.1015  10.1141
    10.1839  10.1997  10.2069  10.2073  10.2724  10.3437  10.4383  10.5022
    10.5568  10.5934  10.6156  10.6572  10.6605  10.6735  10.7056  10.7267
    10.7455  10.7943  10.8007  10.8179  10.8295  10.8405  10.8484  10.8570
    10.8575  10.8591  10.8674  10.8753  10.9092  10.9117  10.9184  10.9296
    10.9661  10.9941  11.0000  11.0069

          k = 0.0000 0.0000 0.0012 (103433 PWs)   bands (ev):

   -21.1112 -20.7746 -20.7170 -20.6178 -20.2719 -20.2224 -19.8703 -19.6801
   -19.6276 -19.5030 -19.4392 -19.2034 -19.0752 -18.8513 -18.5889 -18.5107
   -18.2892 -18.2130 -17.8965 -17.8095 -17.6543 -17.5300 -17.5091 -17.3648
   -17.3138 -17.1654 -16.9486 -16.6956 -16.6195 -16.4334 -16.2268 -16.2212
   -16.0784 -15.8542 -15.8422 -15.6879 -15.4590 -15.1130 -14.9064 -14.7924
   -14.6036 -14.4603 -14.3494 -14.3111 -14.1070 -14.0301 -13.9850 -13.9423
   -13.5836 -13.4760 -12.9217 -12.8705 -12.7803 -12.6801 -12.6218 -12.4158
   -12.3616 -12.2904 -12.2501 -12.0446 -11.9774 -11.8765 -11.8235 -11.3682
   -11.3024 -11.1968 -10.9265 -10.8322 -10.7848 -10.7102 -10.6493 -10.4801
   -10.3240 -10.2768 -10.0510 -10.0013  -9.7903  -9.7511  -9.6895  -9.6393
    -9.4475  -9.4033  -9.2914  -9.2271  -9.1862  -9.1670  -9.0409  -9.0073
    -8.9386  -8.7756  -8.7239  -8.6378  -8.6161  -8.5536  -8.4522  -8.4354
    -8.3867  -8.3626  -8.3390  -8.2936  -8.2427  -8.2306  -8.2018  -8.1977
    -8.1620  -8.1130  -8.0941  -7.9164  -7.8308  -7.7596  -7.7552  -7.7245
    -7.6352  -7.5441  -7.4949  -7.4777  -7.4326  -7.3371  -7.2675  -7.1785
    -7.0446  -6.9491  -6.9479  -6.9144  -6.8501  -6.8336  -6.7382  -6.7079
    -6.6057  -6.4024  -6.3645  -6.3060  -6.2157  -6.2115  -6.0382  -5.9816
    -5.9449  -5.9382  -5.8219  -5.7224  -5.6961  -5.5092  -5.4291  -5.4180
    -5.2826  -5.1845  -5.1453  -5.0494  -4.9930  -4.9295  -4.9158  -4.7950
    -4.5594  -4.3358  -4.3110  -4.2272  -3.9921  -3.8749  -3.8604  -3.7768
    -3.5722  -3.3263  -3.1303  -2.6224  -2.0468  -1.7127  -0.9410  -0.6803
    -0.3134  -0.1100  -0.0866  -0.0101   0.1352   0.1961   0.2328   0.5985
     0.7527   0.9803   1.0412   1.1853   1.3745   1.4300   1.5100   1.5450
     1.5533   1.6453   1.6556   1.7006   1.8678   1.9194   1.9445   2.0268
     2.0370   2.0394   2.0673   2.1150   2.4698   2.5462   2.6016   2.6335
     2.7485   2.7556   2.8852   2.9590   3.0088   3.0493   3.0585   3.0774
     3.1158   3.1253   3.2025   3.2859   3.3222   3.3252   3.3601   3.4298
     3.4661   3.4953   3.5209   3.5624   3.6106   3.6113   3.7027   3.7423
     3.7621   3.8080   3.8442   3.9829   3.9880   4.0649   4.1278   4.1472
     4.2498   4.2977   4.3061   4.3779   4.4847   4.4882   4.5077   4.5304
     4.5742   4.5839   4.6046   4.6559   4.6714   4.7266   4.7464   4.7860
     4.8146   4.8217   4.8381   4.9304   4.9352   4.9694   4.9985   5.0145
     5.0447   5.0717   5.1202   5.1841   5.1890   5.2142   5.2647   5.2718
     5.2907   5.3432   5.3605   5.4053   5.4119   5.4161   5.4655   5.5005
     5.5544   5.5878   5.7592   5.7600   5.7740   5.8765   5.9039   5.9452
     5.9785   5.9804   6.0004   6.0222   6.0281   6.0662   6.0735   6.0835
     6.0980   6.1304   6.1884   6.1993   6.2181   6.2226   6.2620   6.2893
     6.3037   6.3208   6.3403   6.3469   6.3863   6.4252   6.4422   6.4655
     6.5003   6.5323   6.5416   6.5638   6.5780   6.5866   6.6061   6.6568
     6.6630   6.7452   6.7684   6.7752   6.7876   6.8129   6.8202   6.8414
     6.8782   6.9344   6.9496   6.9614   6.9675   6.9773   7.0226   7.0418
     7.0559   7.0863   7.1365   7.1572   7.1901   7.2278   7.2489   7.2793
     7.2945   7.3156   7.3349   7.3598   7.3605   7.3714   7.3892   7.4428
     7.4490   7.4603   7.4750   7.5141   7.5507   7.5785   7.5908   7.6308
     7.6484   7.6830   7.6849   7.7009   7.7326   7.7545   7.7688   7.8101
     7.8104   7.8360   7.8510   7.9006   7.9079   7.9176   7.9558   7.9637
     7.9873   8.0290   8.0538   8.0549   8.0714   8.0752   8.1840   8.2557
     8.3007   8.3108   8.3687   8.3886   8.4326   8.4497   8.4719   8.4945
     8.5229   8.5294   8.5540   8.5649   8.5798   8.5947   8.6091   8.6285
     8.6375   8.6505   8.6682   8.6958   8.7281   8.7284   8.7600   8.7857
     8.7973   8.8172   8.8358   8.8575   8.8580   8.8757   8.8859   8.9757
     9.0398   9.0598   9.0755   9.1177   9.1427   9.1531   9.1845   9.2142
     9.2246   9.2478   9.2714   9.3043   9.3106   9.3147   9.3315   9.3473
     9.3734   9.3815   9.4135   9.4172   9.4623   9.4637   9.4757   9.5067
     9.5166   9.5328   9.5594   9.5807   9.6040   9.6164   9.6183   9.6641
     9.6827   9.7185   9.7306   9.7474   9.7507   9.8107   9.8691   9.8861
     9.9284   9.9287   9.9384   9.9995  10.0017  10.0223  10.0266  10.0354
    10.0481  10.0723  10.0731  10.0774  10.0789  10.1076  10.1091  10.1221
    10.1956  10.2002  10.2126  10.2152  10.2752  10.3378  10.4351  10.5014
    10.5553  10.5756  10.6172  10.6424  10.6717  10.6734  10.7040  10.7269
    10.7527  10.7805  10.8034  10.8073  10.8341  10.8344  10.8543  10.8545
    10.8580  10.8658  10.8685  10.8783  10.9086  10.9152  10.9160  10.9366
    10.9695  10.9904  10.9982  11.0198

          k = 0.0000 0.0000 0.0023 (103431 PWs)   bands (ev):

   -21.1107 -20.7832 -20.7081 -20.6170 -20.2810 -20.2126 -19.8701 -19.7070
   -19.6033 -19.5057 -19.4325 -19.2176 -19.0599 -18.8511 -18.5977 -18.5051
   -18.2941 -18.2034 -17.9361 -17.7692 -17.6579 -17.5443 -17.5092 -17.3746
   -17.2911 -17.1611 -16.9487 -16.7182 -16.5966 -16.4344 -16.2264 -16.2189
   -16.0828 -15.8644 -15.8375 -15.6887 -15.4631 -15.1155 -14.9023 -14.7905
   -14.6066 -14.4517 -14.3667 -14.2914 -14.1044 -14.0352 -13.9952 -13.9253
   -13.5839 -13.4754 -12.9443 -12.8479 -12.7938 -12.6694 -12.6237 -12.4753
   -12.3718 -12.2588 -12.2295 -12.0388 -11.9751 -11.8650 -11.8195 -11.3850
   -11.2906 -11.1955 -10.9228 -10.8484 -10.7952 -10.6996 -10.6401 -10.4744
   -10.3474 -10.2551 -10.0742  -9.9777  -9.8020  -9.7579  -9.6751  -9.6323
    -9.4479  -9.4257  -9.3120  -9.2325  -9.1856  -9.1339  -9.0385  -9.0019
    -8.9298  -8.7883  -8.7109  -8.6414  -8.6150  -8.5560  -8.4787  -8.4502
    -8.3953  -8.3676  -8.3158  -8.2756  -8.2430  -8.2333  -8.2161  -8.1925
    -8.1467  -8.1160  -8.0816  -7.9215  -7.8283  -7.7693  -7.7548  -7.7142
    -7.6274  -7.5514  -7.5267  -7.4711  -7.4050  -7.3410  -7.2576  -7.1857
    -7.0405  -6.9721  -6.9535  -6.9103  -6.8395  -6.8251  -6.7365  -6.7084
    -6.6053  -6.4061  -6.3658  -6.3156  -6.2146  -6.2063  -6.0497  -5.9954
    -5.9261  -5.9250  -5.8220  -5.7316  -5.6846  -5.5510  -5.4276  -5.3764
    -5.2872  -5.1979  -5.1338  -5.0505  -5.0199  -4.9167  -4.9080  -4.7836
    -4.5589  -4.3559  -4.3111  -4.2129  -3.9860  -3.8781  -3.8601  -3.7845
    -3.5651  -3.3294  -3.1298  -2.6249  -2.0530  -1.7079  -0.9380  -0.6793
    -0.3099  -0.1243  -0.0770  -0.0029   0.1321   0.1999   0.2342   0.5862
     0.7547   0.9794   1.0494   1.1859   1.3540   1.4399   1.5105   1.5178
     1.5455   1.6389   1.6904   1.7183   1.8586   1.8718   1.9354   2.0095
     2.0459   2.0837   2.0997   2.1189   2.4666   2.5387   2.5967   2.6470
     2.7483   2.7533   2.8831   2.9408   3.0210   3.0365   3.0441   3.0874
     3.1191   3.1406   3.2022   3.2703   3.3295   3.3395   3.3640   3.4099
     3.4641   3.4793   3.5258   3.5630   3.6153   3.6487   3.6837   3.7620
     3.7629   3.7918   3.8605   3.9756   3.9877   4.0443   4.1251   4.1582
     4.2351   4.2985   4.3380   4.3762   4.4730   4.4847   4.5070   4.5121
     4.5768   4.5884   4.6169   4.6540   4.6727   4.7263   4.7520   4.7748
     4.8109   4.8388   4.8413   4.8998   4.9261   4.9538   5.0069   5.0121
     5.0556   5.0803   5.1411   5.1650   5.1816   5.2026   5.2554   5.2644
     5.2763   5.3541   5.3755   5.4086   5.4272   5.4565   5.4666   5.5018
     5.5577   5.5977   5.7534   5.7587   5.7776   5.8715   5.8836   5.9154
     5.9570   5.9665   5.9987   6.0110   6.0218   6.0765   6.0910   6.1027
     6.1333   6.1408   6.1693   6.1940   6.2095   6.2174   6.2501   6.2756
     6.3293   6.3296   6.3577   6.3631   6.3771   6.4277   6.4307   6.4475
     6.4866   6.5064   6.5571   6.5678   6.5844   6.6019   6.6230   6.6706
     6.6809   6.7424   6.7474   6.7758   6.7991   6.8192   6.8253   6.8431
     6.8778   6.9151   6.9449   6.9551   6.9627   6.9756   7.0240   7.0392
     7.0692   7.0905   7.1389   7.1572   7.1902   7.2147   7.2371   7.2792
     7.2989   7.3036   7.3416   7.3485   7.3665   7.3844   7.3939   7.4267
     7.4327   7.4606   7.4689   7.4983   7.5636   7.5801   7.5976   7.6254
     7.6560   7.6724   7.6900   7.7062   7.7360   7.7573   7.7611   7.8184
     7.8222   7.8416   7.8594   7.9059   7.9096   7.9255   7.9617   7.9659
     7.9720   8.0313   8.0460   8.0590   8.0847   8.1023   8.1843   8.2490
     8.2784   8.3072   8.3647   8.3874   8.4123   8.4474   8.4723   8.4835
     8.5348   8.5426   8.5494   8.5495   8.5649   8.5740   8.6283   8.6330
     8.6388   8.6588   8.6872   8.7005   8.7199   8.7304   8.7596   8.7648
     8.7871   8.8190   8.8269   8.8546   8.8639   8.8993   8.9396   8.9528
     9.0506   9.0602   9.0931   9.1153   9.1387   9.1537   9.1721   9.2069
     9.2271   9.2290   9.2642   9.2730   9.3010   9.3224   9.3290   9.3314
     9.3709   9.3717   9.3959   9.4463   9.4599   9.4863   9.4881   9.5118
     9.5259   9.5293   9.5616   9.5828   9.5957   9.6097   9.6267   9.6705
     9.6748   9.7358   9.7368   9.7468   9.7534   9.8093   9.8347   9.8805
     9.9327   9.9429   9.9574   9.9886  10.0004  10.0103  10.0150  10.0270
    10.0520  10.0576  10.0586  10.0698  10.0921  10.1159  10.1196  10.1487
    10.2022  10.2208  10.2257  10.2362  10.2849  10.3211  10.4256  10.4986
    10.5447  10.5507  10.5928  10.6443  10.6659  10.6778  10.6945  10.7273
    10.7646  10.7693  10.7917  10.8052  10.8244  10.8279  10.8495  10.8528
    10.8620  10.8742  10.8748  10.8949  10.9068  10.9123  10.9253  10.9511
    10.9802  10.9894  10.9950  11.0382

          k = 0.0000 0.0000 0.0035 (103427 PWs)   bands (ev):

   -21.1100 -20.7940 -20.6967 -20.6155 -20.2919 -20.2003 -19.8697 -19.7338
   -19.5831 -19.5062 -19.4232 -19.2364 -19.0393 -18.8506 -18.6101 -18.4983
   -18.2997 -18.1899 -17.9762 -17.7281 -17.6643 -17.5586 -17.5188 -17.3762
   -17.2689 -17.1528 -16.9493 -16.7417 -16.5731 -16.4350 -16.2257 -16.2155
   -16.0897 -15.8790 -15.8322 -15.6902 -15.4698 -15.1192 -14.8971 -14.7860
   -14.6111 -14.4383 -14.3821 -14.2714 -14.1017 -14.0428 -14.0013 -13.9070
   -13.5844 -13.4743 -12.9675 -12.8256 -12.8112 -12.6581 -12.6252 -12.5347
   -12.3888 -12.2681 -12.1690 -12.0333 -11.9691 -11.8488 -11.8115 -11.4053
   -11.2794 -11.1930 -10.9168 -10.8707 -10.8073 -10.6902 -10.6260 -10.4672
   -10.3683 -10.2352 -10.0961  -9.9557  -9.8165  -9.7653  -9.6594  -9.6214
    -9.4568  -9.4477  -9.3422  -9.2272  -9.1848  -9.1042  -9.0355  -8.9911
    -8.9149  -8.8028  -8.6959  -8.6486  -8.6130  -8.5595  -8.5069  -8.4721
    -8.4172  -8.3550  -8.2954  -8.2753  -8.2412  -8.2311  -8.2183  -8.1899
    -8.1301  -8.1135  -8.0675  -7.9291  -7.8240  -7.7812  -7.7542  -7.7008
    -7.6160  -7.5613  -7.5585  -7.4622  -7.3877  -7.3371  -7.2441  -7.1965
    -7.0352  -6.9999  -6.9599  -6.9041  -6.8482  -6.7960  -6.7346  -6.7092
    -6.6046  -6.4148  -6.3645  -6.3294  -6.2153  -6.2001  -6.0615  -6.0066
    -5.9135  -5.9035  -5.8211  -5.7386  -5.6732  -5.5936  -5.4250  -5.3355
    -5.2944  -5.2098  -5.1297  -5.0523  -5.0404  -4.9181  -4.8915  -4.7644
    -4.5582  -4.3802  -4.3129  -4.1964  -3.9761  -3.8832  -3.8598  -3.7962
    -3.5545  -3.3343  -3.1290  -2.6292  -2.0628  -1.7004  -0.9330  -0.6775
    -0.3041  -0.1400  -0.0674   0.0071   0.1279   0.2053   0.2368   0.5676
     0.7567   0.9779   1.0626   1.1869   1.3311   1.4267   1.5081   1.5114
     1.5464   1.6216   1.7322   1.7373   1.8023   1.8760   1.9232   1.9911
     2.0598   2.0960   2.1282   2.1596   2.4617   2.5276   2.5939   2.6625
     2.7464   2.7503   2.8793   2.9234   3.0194   3.0282   3.0295   3.1033
     3.1205   3.1588   3.2016   3.2559   3.3348   3.3568   3.3710   3.3889
     3.4451   3.4618   3.5489   3.5678   3.6221   3.6655   3.6880   3.7626
     3.7758   3.7835   3.8758   3.9620   3.9866   4.0314   4.0939   4.1896
     4.2280   4.2999   4.3653   4.3738   4.4621   4.4679   4.4914   4.5143
     4.5824   4.5971   4.6222   4.6477   4.6758   4.7261   4.7511   4.7782
     4.8027   4.8413   4.8606   4.8676   4.9124   4.9394   4.9972   5.0139
     5.0686   5.1027   5.1240   5.1532   5.1730   5.2116   5.2421   5.2503
     5.2721   5.3601   5.4030   5.4152   5.4474   5.4723   5.4947   5.5123
     5.5618   5.6126   5.7458   5.7560   5.7814   5.8457   5.8698   5.8745
     5.9283   5.9696   5.9975   5.9992   6.0169   6.0820   6.1076   6.1176
     6.1437   6.1553   6.1592   6.1793   6.1961   6.2408   6.2473   6.2610
     6.3310   6.3552   6.3588   6.3720   6.3886   6.4025   6.4380   6.4487
     6.4759   6.4822   6.5542   6.5771   6.5865   6.6229   6.6518   6.6798
     6.7089   6.7192   6.7495   6.7795   6.8116   6.8171   6.8302   6.8470
     6.8753   6.8932   6.9344   6.9367   6.9734   6.9839   7.0258   7.0296
     7.0547   7.1111   7.1497   7.1577   7.1885   7.2124   7.2157   7.2656
     7.2853   7.2987   7.3400   7.3509   7.3762   7.3950   7.3989   7.4055
     7.4203   7.4591   7.4694   7.4878   7.5250   7.5869   7.6142   7.6473
     7.6481   7.6761   7.6934   7.7095   7.7329   7.7519   7.7740   7.8257
     7.8299   7.8421   7.8876   7.9047   7.9079   7.9340   7.9716   7.9746
     7.9783   8.0348   8.0384   8.0619   8.0927   8.1379   8.1847   8.2429
     8.2485   8.2971   8.3568   8.3823   8.3918   8.4465   8.4504   8.4911
     8.5191   8.5255   8.5512   8.5529   8.5698   8.5715   8.6220   8.6294
     8.6502   8.6602   8.6808   8.7231   8.7304   8.7367   8.7414   8.7709
     8.7880   8.8060   8.8343   8.8483   8.8741   8.9281   8.9373   8.9950
     9.0609   9.0644   9.0991   9.1057   9.1265   9.1298   9.1887   9.1975
     9.2109   9.2299   9.2332   9.2409   9.2799   9.3079   9.3296   9.3453
     9.3668   9.3731   9.3927   9.4577   9.4634   9.4958   9.5031   9.5140
     9.5297   9.5387   9.5508   9.5766   9.5977   9.6084   9.6360   9.6637
     9.6868   9.7356   9.7372   9.7679   9.7705   9.8016   9.8078   9.8730
     9.9371   9.9476   9.9703   9.9751   9.9927   9.9935  10.0109  10.0234
    10.0306  10.0385  10.0624  10.0774  10.1113  10.1257  10.1345  10.1799
    10.2057  10.2420  10.2483  10.2641  10.2970  10.3038  10.4107  10.4938
    10.5152  10.5290  10.5726  10.6423  10.6551  10.6679  10.6765  10.7280
    10.7624  10.7768  10.7790  10.8040  10.8104  10.8290  10.8426  10.8527
    10.8701  10.8762  10.8818  10.8901  10.9007  10.9377  10.9406  10.9587
    10.9919  10.9930  11.0018  11.0183

          k = 0.0000 0.0000 0.0047 (103427 PWs)   bands (ev):

   -21.1090 -20.8057 -20.6845 -20.6132 -20.3034 -20.1870 -19.8693 -19.7606
   -19.5710 -19.4996 -19.4124 -19.2570 -19.0160 -18.8499 -18.6246 -18.4920
   -18.3044 -18.1739 -18.0160 -17.6889 -17.6723 -17.5713 -17.5359 -17.3705
   -17.2503 -17.1388 -16.9510 -16.7634 -16.5527 -16.4335 -16.2245 -16.2116
   -16.0982 -15.8979 -15.8261 -15.6925 -15.4789 -15.1239 -14.8932 -14.7771
   -14.6169 -14.4240 -14.3923 -14.2517 -14.1027 -14.0479 -14.0038 -13.8887
   -13.5851 -13.4726 -12.9906 -12.8331 -12.8014 -12.6555 -12.6214 -12.5917
   -12.4115 -12.2773 -12.1082 -12.0298 -11.9589 -11.8325 -11.7958 -11.4270
   -11.2711 -11.1890 -10.9102 -10.8938 -10.8206 -10.6830 -10.6093 -10.4642
   -10.3810 -10.2183 -10.1155  -9.9375  -9.8304  -9.7718  -9.6483  -9.6069
    -9.4884  -9.4492  -9.3731  -9.2212  -9.1835  -9.0807  -9.0304  -8.9757
    -8.8939  -8.8178  -8.6806  -8.6613  -8.6098  -8.5635  -8.5328  -8.5009
    -8.4337  -8.3412  -8.2971  -8.2779  -8.2460  -8.2281  -8.2001  -8.1856
    -8.1130  -8.1056  -8.0518  -7.9380  -7.8178  -7.7940  -7.7534  -7.6853
    -7.6027  -7.5902  -7.5723  -7.4523  -7.3878  -7.3170  -7.2282  -7.2098
    -7.0306  -7.0287  -6.9674  -6.8964  -6.8585  -6.7655  -6.7330  -6.7102
    -6.6036  -6.4288  -6.3595  -6.3459  -6.2199  -6.1948  -6.0695  -6.0144
    -5.9057  -5.8807  -5.8175  -5.7421  -5.6625  -5.6363  -5.4214  -5.3156
    -5.2846  -5.2189  -5.1412  -5.0548  -5.0461  -4.9200  -4.8800  -4.7389
    -4.5577  -4.4057  -4.3158  -4.1805  -3.9627  -3.8899  -3.8597  -3.8103
    -3.5416  -3.3408  -3.1280  -2.6352  -2.0757  -1.6906  -0.9262  -0.6749
    -0.2962  -0.1563  -0.0571   0.0184   0.1235   0.2112   0.2408   0.5447
     0.7574   0.9758   1.0799   1.1882   1.3063   1.3927   1.5125   1.5217
     1.5475   1.6046   1.7359   1.7568   1.7790   1.8868   1.9098   1.9728
     2.0759   2.1029   2.1438   2.2187   2.4557   2.5143   2.5930   2.6786
     2.7384   2.7500   2.8733   2.9092   3.0013   3.0118   3.0348   3.1187
     3.1224   3.1781   3.1999   3.2437   3.3394   3.3651   3.3733   3.3821
     3.4139   3.4608   3.5679   3.5807   3.6283   3.6500   3.7276   3.7609
     3.7633   3.8046   3.8866   3.9465   3.9831   4.0261   4.0601   4.2201
     4.2249   4.3021   4.3713   4.3815   4.4374   4.4531   4.4876   4.5208
     4.5874   4.6085   4.6223   4.6383   4.6778   4.7169   4.7556   4.7857
     4.7894   4.8403   4.8442   4.8804   4.8982   4.9269   4.9829   5.0201
     5.0793   5.0878   5.1048   5.1596   5.1638   5.2239   5.2339   5.2422
     5.2785   5.3633   5.4242   5.4364   5.4616   5.4907   5.5010   5.5582
     5.5662   5.6303   5.7366   5.7508   5.7853   5.8023   5.8338   5.8692
     5.8985   5.9726   5.9868   5.9976   6.0129   6.0892   6.0919   6.1177
     6.1402   6.1593   6.1714   6.1771   6.1887   6.2451   6.2529   6.2832
     6.3230   6.3368   6.3637   6.3858   6.3982   6.4126   6.4412   6.4498
     6.4510   6.4953   6.5524   6.5828   6.5863   6.6430   6.6724   6.6834
     6.7131   6.7366   6.7533   6.7841   6.8048   6.8185   6.8387   6.8555
     6.8660   6.8872   6.9150   6.9266   6.9810   6.9954   7.0223   7.0280
     7.0318   7.1183   7.1618   7.1723   7.1744   7.1996   7.2141   7.2496
     7.2715   7.2874   7.3296   7.3556   7.3728   7.3833   7.3879   7.4078
     7.4445   7.4554   7.4729   7.4827   7.4836   7.5696   7.6205   7.6459
     7.6749   7.6896   7.6939   7.7116   7.7354   7.7396   7.7915   7.8359
     7.8382   7.8520   7.8813   7.9056   7.9336   7.9427   7.9867   7.9880
     7.9977   8.0357   8.0393   8.0659   8.0968   8.1726   8.1862   8.2157
     8.2401   8.2790   8.3450   8.3657   8.3795   8.4295   8.4468   8.4925
     8.4934   8.5151   8.5336   8.5587   8.5634   8.5929   8.5942   8.6367
     8.6408   8.6674   8.7033   8.7206   8.7348   8.7370   8.7599   8.7648
     8.7917   8.8070   8.8477   8.8509   8.8891   8.9314   8.9569   9.0489
     9.0618   9.0684   9.0769   9.1067   9.1132   9.1171   9.1617   9.1660
     9.1847   9.2223   9.2290   9.2539   9.2662   9.2985   9.3232   9.3389
     9.3549   9.3998   9.4038   9.4559   9.4615   9.4771   9.5145   9.5185
     9.5288   9.5482   9.5547   9.5671   9.6083   9.6271   9.6418   9.6497
     9.6980   9.7256   9.7312   9.7700   9.7822   9.8083   9.8243   9.8644
     9.9400   9.9418   9.9566   9.9694   9.9712   9.9755  10.0167  10.0169
    10.0268  10.0333  10.0555  10.0981  10.1302  10.1402  10.1511  10.2084
    10.2154  10.2534  10.2600  10.2832  10.3009  10.3315  10.3912  10.4856
    10.4871  10.4955  10.5649  10.6278  10.6387  10.6457  10.6608  10.7284
    10.7524  10.7628  10.7851  10.7961  10.8091  10.8299  10.8456  10.8508
    10.8706  10.8790  10.8839  10.8900  10.8963  10.9550  10.9587  10.9686
    10.9767  10.9965  11.0035  11.0273

          k = 0.0000 0.0000 0.0059 (103441 PWs)   bands (ev):

   -21.1077 -20.8178 -20.6722 -20.6098 -20.3150 -20.1730 -19.8689 -19.7870
   -19.5689 -19.4836 -19.4009 -19.2778 -18.9914 -18.8489 -18.6403 -18.4871
   -18.3072 -18.1567 -18.0551 -17.6913 -17.6432 -17.5813 -17.5574 -17.3606
   -17.2367 -17.1184 -16.9550 -16.7813 -16.5385 -16.4272 -16.2227 -16.2082
   -16.1073 -15.9208 -15.8195 -15.6958 -15.4901 -15.1291 -14.8926 -14.7622
   -14.6234 -14.4229 -14.3837 -14.2323 -14.1111 -14.0451 -14.0040 -13.8710
   -13.5860 -13.4700 -13.0136 -12.8549 -12.7796 -12.6750 -12.6384 -12.6080
   -12.4377 -12.2857 -12.0488 -12.0263 -11.9462 -11.8194 -11.7707 -11.4495
   -11.2668 -11.1843 -10.9226 -10.8955 -10.8349 -10.6777 -10.5925 -10.4733
   -10.3780 -10.2068 -10.1299  -9.9265  -9.8406  -9.7754  -9.6490  -9.5886
    -9.5157  -9.4507  -9.4010  -9.2177  -9.1820  -9.0662  -9.0192  -8.9585
    -8.8674  -8.8328  -8.6803  -8.6659  -8.6051  -8.5683  -8.5545  -8.5334
    -8.4445  -8.3307  -8.3085  -8.2838  -8.2607  -8.2136  -8.1903  -8.1683
    -8.0954  -8.0933  -8.0346  -7.9468  -7.8099  -7.8070  -7.7523  -7.6682
    -7.6218  -7.5928  -7.5792  -7.4418  -7.3965  -7.2894  -7.2246  -7.2105
    -7.0576  -7.0295  -6.9740  -6.8882  -6.8689  -6.7345  -6.7325  -6.7110
    -6.6020  -6.4466  -6.3641  -6.3520  -6.2298  -6.1915  -6.0717  -6.0184
    -5.9053  -5.8570  -5.8110  -5.7406  -5.6788  -5.6529  -5.4165  -5.3294
    -5.2458  -5.2246  -5.1663  -5.0581  -5.0387  -4.9225  -4.8720  -4.7094
    -4.5585  -4.4299  -4.3196  -4.1664  -3.9469  -3.8980  -3.8603  -3.8249
    -3.5275  -3.3486  -3.1270  -2.6428  -2.0910  -1.6793  -0.9177  -0.6713
    -0.2867  -0.1727  -0.0453   0.0296   0.1196   0.2170   0.2464   0.5190
     0.7565   0.9727   1.1005   1.1900   1.2782   1.3565   1.5139   1.5413
     1.5488   1.5882   1.6830   1.7762   1.8039   1.8962   1.9075   1.9547
     2.0933   2.1071   2.1630   2.2754   2.4505   2.4999   2.5933   2.6947
     2.7253   2.7508   2.8650   2.8996   2.9842   2.9955   3.0382   3.1134
     3.1417   3.1968   3.1981   3.2349   3.3416   3.3452   3.3662   3.3879
     3.4127   3.4628   3.5772   3.6051   3.6226   3.6473   3.7438   3.7649
     3.7706   3.8258   3.8841   3.9418   3.9723   4.0254   4.0319   4.2237
     4.2477   4.3059   4.3702   4.3836   4.4045   4.4433   4.4859   4.5387
     4.5868   4.6176   4.6244   4.6284   4.6772   4.7023   4.7566   4.7641
     4.7982   4.8234   4.8465   4.8884   4.9011   4.9178   4.9704   5.0255
     5.0503   5.0805   5.0884   5.1507   5.1966   5.2008   5.2184   5.2780
     5.2902   5.3676   5.4336   5.4714   5.4723   5.5037   5.5184   5.5707
     5.6096   5.6488   5.7257   5.7365   5.7576   5.7895   5.8055   5.8636
     5.8690   5.9740   5.9748   5.9988   6.0084   6.0657   6.0906   6.0983
     6.1381   6.1491   6.1731   6.1877   6.2067   6.2387   6.2591   6.2924
     6.3263   6.3348   6.3557   6.3930   6.3977   6.4195   6.4385   6.4618
     6.4644   6.5173   6.5524   6.5837   6.5911   6.6434   6.6714   6.7002
     6.7177   6.7578   6.7605   6.7867   6.7994   6.8181   6.8430   6.8615
     6.8694   6.8932   6.8959   6.9213   6.9833   6.9927   7.0115   7.0296
     7.0305   7.1162   7.1366   7.1726   7.1963   7.1975   7.2131   7.2331
     7.2668   7.2749   7.3075   7.3431   7.3617   7.3804   7.3889   7.4171
     7.4356   7.4407   7.4722   7.4800   7.4977   7.5543   7.5899   7.6738
     7.6783   7.6805   7.7115   7.7229   7.7297   7.7380   7.8162   7.8415
     7.8436   7.8669   7.8858   7.9081   7.9515   7.9561   7.9911   8.0117
     8.0288   8.0424   8.0447   8.0731   8.0958   8.1755   8.1902   8.2115
     8.2400   8.2550   8.3303   8.3411   8.3722   8.4123   8.4456   8.4708
     8.4812   8.5126   8.5145   8.5333   8.5649   8.5806   8.6041   8.6338
     8.6580   8.6719   8.6945   8.7263   8.7398   8.7415   8.7577   8.7923
     8.7966   8.8115   8.8615   8.8711   8.9087   8.9343   8.9828   9.0424
     9.0541   9.0630   9.0830   9.0879   9.1129   9.1130   9.1266   9.1447
     9.1646   9.2126   9.2266   9.2560   9.2825   9.2887   9.3087   9.3357
     9.3528   9.4189   9.4247   9.4430   9.4527   9.4559   9.5141   9.5271
     9.5271   9.5409   9.5590   9.5899   9.6081   9.6339   9.6458   9.6618
     9.6981   9.7131   9.7249   9.7604   9.7864   9.8172   9.8558   9.8775
     9.9303   9.9361   9.9397   9.9448   9.9596   9.9622  10.0014  10.0190
    10.0275  10.0434  10.0615  10.1128  10.1494  10.1578  10.1687  10.2183
    10.2246  10.2421  10.2801  10.3072  10.3351  10.3635  10.3698  10.4596
    10.4617  10.4797  10.5605  10.6000  10.6169  10.6217  10.6485  10.7275
    10.7357  10.7480  10.7739  10.8017  10.8076  10.8174  10.8455  10.8573
    10.8622  10.8872  10.8905  10.8985  10.8997  10.9297  10.9547  10.9765
    10.9958  11.0028  11.0161  11.0499

          k = 0.0000 0.0000 0.0070 (103457 PWs)   bands (ev):

   -21.1061 -20.8299 -20.6604 -20.6050 -20.3266 -20.1585 -19.8688 -19.8128
   -19.5733 -19.4618 -19.3895 -19.2974 -18.9662 -18.8475 -18.6567 -18.4841
   -18.3076 -18.1403 -18.0919 -17.7099 -17.6037 -17.5868 -17.5807 -17.3494
   -17.2273 -17.0928 -16.9621 -16.7941 -16.5324 -16.4145 -16.2203 -16.2064
   -16.1154 -15.9475 -15.8127 -15.7005 -15.5029 -15.1345 -14.8961 -14.7409
   -14.6301 -14.4327 -14.3591 -14.2135 -14.1252 -14.0359 -14.0021 -13.8543
   -13.5871 -13.4664 -13.0363 -12.8777 -12.7593 -12.7249 -12.6578 -12.5942
   -12.4648 -12.2933 -12.0285 -11.9841 -11.9325 -11.8076 -11.7387 -11.4721
   -11.2658 -11.1807 -10.9434 -10.8850 -10.8495 -10.6735 -10.5771 -10.4927
   -10.3614 -10.2049 -10.1351  -9.9251  -9.8465  -9.7740  -9.6674  -9.5683
    -9.5320  -9.4530  -9.4227  -9.2169  -9.1801  -9.0607  -9.0006  -8.9412
    -8.8477  -8.8377  -8.7049  -8.6527  -8.5980  -8.5824  -8.5742  -8.5557
    -8.4512  -8.3375  -8.3082  -8.2909  -8.2751  -8.2149  -8.1700  -8.1506
    -8.0775  -8.0775  -8.0157  -7.9540  -7.8201  -7.7997  -7.7511  -7.6531
    -7.6502  -7.6012  -7.5673  -7.4311  -7.4075  -7.2605  -7.2402  -7.1910
    -7.0862  -7.0354  -6.9766  -6.8859  -6.8730  -6.7335  -6.7112  -6.7038
    -6.5995  -6.4668  -6.3835  -6.3439  -6.2438  -6.1908  -6.0685  -6.0184
    -5.9119  -5.8328  -5.8039  -5.7329  -5.7207  -5.6446  -5.4104  -5.3489
    -5.2317  -5.2027  -5.1955  -5.0621  -5.0262  -4.9256  -4.8657  -4.6782
    -4.5620  -4.4500  -4.3242  -4.1544  -3.9321  -3.9061  -3.8634  -3.8361
    -3.5134  -3.3571  -3.1260  -2.6519  -2.1080  -1.6670  -0.9076  -0.6666
    -0.2764  -0.1881  -0.0318   0.0393   0.1171   0.2223   0.2534   0.4916
     0.7538   0.9682   1.1235   1.1921   1.2449   1.3255   1.5154   1.5495
     1.5579   1.5733   1.6329   1.7949   1.8202   1.8834   1.9370   1.9398
     2.1093   2.1126   2.1840   2.3252   2.4506   2.4850   2.5946   2.7077
     2.7095   2.7521   2.8543   2.8945   2.9692   2.9796   3.0404   3.1051
     3.1584   3.1926   3.2184   3.2302   3.3180   3.3378   3.3473   3.4000
     3.4318   3.4696   3.5859   3.6072   3.6307   3.6542   3.7314   3.7677
     3.8100   3.8470   3.8677   3.9477   3.9514   4.0175   4.0274   4.2235
     4.2685   4.3119   4.3709   4.3733   4.3761   4.4303   4.4850   4.5669
     4.5782   4.6114   4.6246   4.6321   4.6778   4.6866   4.7188   4.7719
     4.7972   4.8144   4.8462   4.8946   4.9030   4.9275   4.9585   5.0123
     5.0300   5.0674   5.0769   5.1538   5.1757   5.2041   5.2340   5.3017
     5.3155   5.3764   5.4417   5.4834   5.5009   5.5150   5.5469   5.5754
     5.6608   5.6661   5.6935   5.7136   5.7364   5.7840   5.7940   5.8408
     5.8563   5.9613   5.9763   6.0006   6.0028   6.0366   6.0646   6.1079
     6.1128   6.1445   6.1670   6.2056   6.2211   6.2286   6.2694   6.2788
     6.3219   6.3402   6.3669   6.3791   6.3991   6.4398   6.4425   6.4833
     6.4946   6.5356   6.5582   6.5820   6.6007   6.6259   6.6841   6.6945
     6.7120   6.7693   6.7742   6.7953   6.8053   6.8180   6.8420   6.8640
     6.8781   6.8786   6.9168   6.9233   6.9696   6.9841   7.0028   7.0333
     7.0448   7.0962   7.1138   7.1752   7.1976   7.2009   7.2164   7.2207
     7.2637   7.2758   7.2783   7.3234   7.3603   7.3719   7.3910   7.4064
     7.4173   7.4364   7.4689   7.4809   7.5335   7.5514   7.5593   7.6588
     7.6618   7.7033   7.7089   7.7165   7.7519   7.7521   7.8385   7.8404
     7.8557   7.8890   7.9061   7.9095   7.9591   7.9719   7.9915   8.0390
     8.0500   8.0575   8.0596   8.0910   8.0923   8.1432   8.1938   8.2304
     8.2382   8.2398   8.3152   8.3174   8.3625   8.4003   8.4411   8.4497
     8.4541   8.4959   8.5004   8.5234   8.5592   8.5767   8.6067   8.6323
     8.6543   8.6835   8.6888   8.7278   8.7457   8.7498   8.7720   8.8093
     8.8168   8.8195   8.8738   8.8933   8.9317   8.9471   9.0015   9.0083
     9.0241   9.0460   9.0529   9.0644   9.1043   9.1093   9.1400   9.1446
     9.1814   9.2054   9.2224   9.2481   9.2659   9.2918   9.2969   9.3346
     9.3724   9.4132   9.4354   9.4369   9.4408   9.4557   9.5139   9.5212
     9.5276   9.5512   9.5672   9.5998   9.6067   9.6197   9.6461   9.6620
     9.7136   9.7175   9.7317   9.7567   9.7800   9.8320   9.8482   9.9003
     9.9062   9.9226   9.9318   9.9393   9.9548   9.9609   9.9871  10.0164
    10.0314  10.0505  10.0757  10.1228  10.1685  10.1760  10.1772  10.1882
    10.2423  10.2698  10.3006  10.3287  10.3491  10.3713  10.3887  10.4322
    10.4495  10.4742  10.5562  10.5671  10.5913  10.5978  10.6361  10.7138
    10.7202  10.7374  10.7703  10.7790  10.8031  10.8159  10.8348  10.8466
    10.8742  10.8922  10.8939  10.9030  10.9074  10.9162  10.9491  10.9889
    11.0102  11.0115  11.0339  11.0384

          k = 0.0000 0.0000 0.0082 (103435 PWs)   bands (ev):

   -21.1042 -20.8419 -20.6499 -20.5982 -20.3379 -20.1438 -19.8699 -19.8369
   -19.5805 -19.4385 -19.3798 -19.3132 -18.9412 -18.8454 -18.6735 -18.4832
   -18.3057 -18.1431 -18.1080 -17.7323 -17.6049 -17.5957 -17.5579 -17.3383
   -17.2204 -17.0636 -16.9730 -16.8006 -16.5336 -16.3964 -16.2171 -16.2083
   -16.1206 -15.9772 -15.8060 -15.7070 -15.5166 -15.1402 -14.9031 -14.7147
   -14.6363 -14.4436 -14.3289 -14.1954 -14.1419 -14.0247 -13.9968 -13.8389
   -13.5881 -13.4618 -13.0587 -12.9013 -12.7827 -12.7435 -12.6703 -12.5810
   -12.4903 -12.3004 -12.0258 -11.9238 -11.9188 -11.7952 -11.7030 -11.4946
   -11.2676 -11.1805 -10.9599 -10.8787 -10.8586 -10.6703 -10.5658 -10.5141
   -10.3383 -10.2133 -10.1301  -9.9314  -9.8513  -9.7672  -9.6999  -9.5519
    -9.5368  -9.4548  -9.4353  -9.2183  -9.1778  -9.0599  -8.9783  -8.9243
    -8.8625  -8.8090  -8.7323  -8.6418  -8.6141  -8.5945  -8.5878  -8.5558
    -8.4547  -8.3549  -8.3137  -8.2892  -8.2849  -8.2214  -8.1504  -8.1365
    -8.0594  -8.0590  -7.9952  -7.9580  -7.8322  -7.7877  -7.7498  -7.6841
    -7.6320  -7.6139  -7.5507  -7.4206  -7.4194  -7.2560  -7.2327  -7.1698
    -7.1134  -7.0492  -6.9741  -6.8953  -6.8654  -6.7362  -6.7105  -6.6743
    -6.5952  -6.4884  -6.4037  -6.3378  -6.2584  -6.1928  -6.0614  -6.0148
    -5.9232  -5.8102  -5.7984  -5.7601  -5.7191  -5.6375  -5.4030  -5.3711
    -5.2388  -5.2254  -5.1590  -5.0668  -5.0124  -4.9291  -4.8599  -4.6477
    -4.5705  -4.4624  -4.3294  -4.1444  -3.9292  -3.9079  -3.8702  -3.8379
    -3.5006  -3.3653  -3.1252  -2.6626  -2.1264  -1.6541  -0.8962  -0.6606
    -0.2672  -0.2003  -0.0166   0.0466   0.1167   0.2273   0.2612   0.4637
     0.7493   0.9620   1.1473   1.1947   1.2069   1.3014   1.5165   1.5465
     1.5468   1.5632   1.6123   1.8114   1.8288   1.8733   1.9197   1.9798
     2.1131   2.1308   2.2059   2.3574   2.4673   2.4699   2.5965   2.6865
     2.7217   2.7540   2.8427   2.8933   2.9558   2.9650   3.0415   3.0947
     3.1675   3.1918   3.2290   3.2387   3.2863   3.3155   3.3510   3.4101
     3.4542   3.4815   3.5907   3.5952   3.6534   3.6611   3.7221   3.7721
     3.8352   3.8618   3.8661   3.9156   3.9665   4.0135   4.0314   4.2237
     4.2797   4.3185   4.3375   4.3644   4.3849   4.4145   4.4846   4.5650
     4.5966   4.6002   4.6130   4.6419   4.6720   4.6771   4.6865   4.7769
     4.7861   4.8079   4.8455   4.8965   4.9110   4.9476   4.9483   4.9750
     5.0305   5.0485   5.0743   5.1483   5.1667   5.1921   5.2727   5.3094
     5.3537   5.3922   5.4485   5.4983   5.5059   5.5511   5.5643   5.5863
     5.6423   5.6820   5.6906   5.7196   5.7206   5.7702   5.7996   5.8149
     5.8467   5.9490   5.9764   5.9946   6.0034   6.0070   6.0406   6.0878
     6.1180   6.1355   6.1550   6.2002   6.2282   6.2343   6.2555   6.2934
     6.3150   6.3443   6.3510   6.3766   6.4226   6.4517   6.4680   6.5071
     6.5302   6.5420   6.5596   6.5925   6.6116   6.6165   6.6606   6.6951
     6.7119   6.7695   6.7828   6.8046   6.8123   6.8222   6.8406   6.8652
     6.8777   6.8942   6.9171   6.9494   6.9554   6.9781   6.9995   7.0363
     7.0557   7.0564   7.1127   7.1655   7.1965   7.2028   7.2037   7.2218
     7.2405   7.2578   7.3003   7.3099   7.3419   7.3606   7.3877   7.3941
     7.4136   7.4425   7.4629   7.4829   7.5314   7.5378   7.5874   7.6309
     7.6456   7.6970   7.6994   7.7300   7.7657   7.7816   7.8352   7.8495
     7.8900   7.9057   7.9149   7.9325   7.9643   7.9869   7.9962   8.0518
     8.0583   8.0754   8.0767   8.0915   8.1157   8.1341   8.1842   8.2181
     8.2361   8.2503   8.2913   8.3190   8.3494   8.3927   8.4008   8.4409
     8.4419   8.4782   8.4846   8.5203   8.5426   8.5767   8.6071   8.6255
     8.6389   8.6873   8.7159   8.7217   8.7501   8.7736   8.7800   8.8226
     8.8345   8.8392   8.8835   8.9084   8.9489   8.9668   8.9706   8.9831
     9.0035   9.0181   9.0343   9.0662   9.0876   9.1058   9.1296   9.1618
     9.1881   9.2155   9.2266   9.2370   9.2614   9.2756   9.2989   9.3336
     9.3601   9.4184   9.4346   9.4426   9.4449   9.4551   9.5135   9.5257
     9.5305   9.5638   9.5681   9.5952   9.6038   9.6135   9.6195   9.6802
     9.7096   9.7280   9.7585   9.7677   9.7743   9.8343   9.8521   9.8744
     9.8873   9.9054   9.9234   9.9362   9.9550   9.9717   9.9747  10.0305
    10.0348  10.0688  10.0809  10.1351  10.1351  10.1866  10.1977  10.2061
    10.2571  10.2830  10.3244  10.3419  10.3430  10.3834  10.4081  10.4108
    10.4747  10.4752  10.5327  10.5497  10.5640  10.5775  10.6227  10.6874
    10.7044  10.7349  10.7517  10.7695  10.7878  10.8182  10.8186  10.8275
    10.8580  10.8938  10.8987  10.9164  10.9179  10.9367  10.9426  10.9915
    11.0163  11.0239  11.0409  11.0415

          k = 0.0000 0.0000 0.0094 (103429 PWs)   bands (ev):

   -21.1020 -20.8538 -20.6411 -20.5891 -20.3491 -20.1288 -19.8778 -19.8539
   -19.5890 -19.4184 -19.3737 -19.3201 -18.9174 -18.8419 -18.6903 -18.4844
   -18.3020 -18.1758 -18.0926 -17.7572 -17.6288 -17.5987 -17.5164 -17.3286
   -17.2145 -17.0326 -16.9870 -16.8009 -16.5398 -16.3756 -16.2152 -16.2127
   -16.1212 -16.0096 -15.7997 -15.7159 -15.5305 -15.1461 -14.9125 -14.6868
   -14.6394 -14.4539 -14.2955 -14.1786 -14.1588 -14.0161 -13.9858 -13.8251
   -13.5889 -13.4559 -13.0808 -12.9256 -12.8415 -12.7406 -12.6742 -12.5715
   -12.5110 -12.3069 -12.0225 -11.9058 -11.8632 -11.7811 -11.6651 -11.5166
   -11.2712 -11.1860 -10.9701 -10.8893 -10.8500 -10.6681 -10.5676 -10.5252
   -10.3138 -10.2264 -10.1197  -9.9411  -9.8575  -9.7685  -9.7281  -9.5575
    -9.5213  -9.4517  -9.4399  -9.2211  -9.1752  -9.0611  -8.9555  -8.9072
    -8.8769  -8.7915  -8.7538  -8.6518  -8.6333  -8.6098  -8.5745  -8.5503
    -8.4552  -8.3739  -8.3272  -8.3029  -8.2708  -8.2291  -8.1382  -8.1250
    -8.0409  -8.0389  -7.9749  -7.9557  -7.8429  -7.7736  -7.7487  -7.7143
    -7.6286  -7.6124  -7.5335  -7.4314  -7.4103  -7.2714  -7.2083  -7.1532
    -7.1312  -7.0688  -6.9683  -6.9065  -6.8568  -6.7406  -6.7085  -6.6486
    -6.5869  -6.5108  -6.4244  -6.3387  -6.2678  -6.1969  -6.0519  -6.0081
    -5.9374  -5.8143  -5.7948  -5.7718  -5.7013  -5.6314  -5.3953  -5.3944
    -5.2665  -5.2329  -5.1167  -5.0722  -4.9991  -4.9331  -4.8540  -4.6218
    -4.5828  -4.4646  -4.3351  -4.1364  -3.9403  -3.9111  -3.8729  -3.8289
    -3.4908  -3.3718  -3.1246  -2.6746  -2.1455  -1.6410  -0.8835  -0.6532
    -0.2643  -0.2045   0.0005   0.0507   0.1189   0.2318   0.2691   0.4368
     0.7435   0.9538   1.1537   1.1829   1.1976   1.2836   1.5007   1.5158
     1.5385   1.5616   1.6275   1.8205   1.8337   1.8710   1.9027   2.0228
     2.1163   2.1500   2.2285   2.3651   2.4550   2.5076   2.5990   2.6628
     2.7284   2.7564   2.8331   2.8950   2.9421   2.9535   3.0415   3.0829
     3.1664   3.1976   3.2303   3.2500   3.2606   3.2970   3.3556   3.4198
     3.4765   3.4975   3.5743   3.6054   3.6653   3.6664   3.7230   3.7780
     3.8184   3.8646   3.8987   3.9027   3.9829   4.0136   4.0372   4.2239
     4.2818   4.3060   4.3224   4.3510   4.3972   4.4064   4.4845   4.5498
     4.5813   4.5853   4.6335   4.6391   4.6440   4.6663   4.6999   4.7660
     4.7832   4.8001   4.8451   4.8924   4.9283   4.9352   4.9450   4.9683
     5.0145   5.0443   5.0794   5.1278   5.1682   5.1925   5.3120   5.3134
     5.3920   5.4139   5.4551   5.5090   5.5152   5.5548   5.5893   5.6011
     5.6072   5.6758   5.6874   5.7149   5.7610   5.7620   5.7932   5.8097
     5.8338   5.9374   5.9714   5.9781   5.9850   6.0058   6.0215   6.0661
     6.1220   6.1280   6.1406   6.1850   6.2135   6.2383   6.2628   6.2885
     6.3108   6.3524   6.3669   6.3678   6.4282   6.4780   6.4941   6.5250
     6.5466   6.5585   6.5658   6.6014   6.6129   6.6301   6.6348   6.7004
     6.7122   6.7491   6.7868   6.8096   6.8134   6.8371   6.8427   6.8653
     6.8875   6.9088   6.9164   6.9434   6.9696   6.9897   6.9998   7.0176
     7.0406   7.0604   7.1103   7.1599   7.1843   7.1888   7.2003   7.2137
     7.2183   7.2595   7.3028   7.3031   7.3236   7.3636   7.3846   7.3885
     7.4105   7.4464   7.4504   7.4879   7.5104   7.5435   7.6000   7.6157
     7.6386   7.6786   7.6922   7.7504   7.7738   7.8068   7.8296   7.8630
     7.9013   7.9284   7.9359   7.9622   7.9671   8.0028   8.0076   8.0458
     8.0614   8.0747   8.0880   8.1022   8.1331   8.1625   8.1767   8.2116
     8.2307   8.2464   8.2736   8.3347   8.3389   8.3503   8.3890   8.4336
     8.4382   8.4621   8.4668   8.5072   8.5236   8.5718   8.6073   8.6105
     8.6517   8.6912   8.7080   8.7502   8.7578   8.7805   8.7980   8.8258
     8.8444   8.8602   8.8877   8.9166   8.9297   8.9343   8.9698   8.9771
     8.9963   9.0114   9.0457   9.0683   9.0790   9.1027   9.1063   9.1647
     9.1925   9.2051   9.2194   9.2323   9.2617   9.2882   9.3145   9.3321
     9.3359   9.4148   9.4160   9.4356   9.4669   9.4856   9.5103   9.5198
     9.5369   9.5550   9.5796   9.5872   9.6077   9.6090   9.6127   9.6915
     9.7025   9.7345   9.7516   9.7789   9.8163   9.8217   9.8405   9.8682
     9.8699   9.8922   9.9131   9.9310   9.9566   9.9587   9.9647  10.0312
    10.0425  10.0834  10.1000  10.1141  10.1457  10.2039  10.2185  10.2249
    10.2590  10.2841  10.3399  10.3435  10.3570  10.3720  10.4035  10.4451
    10.4832  10.4990  10.5142  10.5354  10.5381  10.5696  10.6094  10.6577
    10.6869  10.7249  10.7346  10.7630  10.7658  10.8011  10.8040  10.8207
    10.8456  10.8976  10.9011  10.9250  10.9275  10.9440  10.9558  10.9895
    11.0224  11.0238  11.0338  11.0454

          k = 0.0000 0.0000 0.0106 (103431 PWs)   bands (ev):

   -21.0996 -20.8654 -20.6341 -20.5776 -20.3599 -20.1136 -19.8978 -19.8583
   -19.5980 -19.4121 -19.3648 -19.3146 -18.8966 -18.8356 -18.7065 -18.4872
   -18.2983 -18.2101 -18.0733 -17.7834 -17.6524 -17.6009 -17.4748 -17.3208
   -17.2090 -17.0045 -16.9992 -16.7954 -16.5491 -16.3544 -16.2268 -16.2072
   -16.1169 -16.0442 -15.7941 -15.7274 -15.5436 -15.1526 -14.9231 -14.6692
   -14.6284 -14.4632 -14.2601 -14.1788 -14.1590 -14.0111 -13.9692 -13.8131
   -13.5891 -13.4487 -13.1024 -12.9509 -12.8998 -12.7567 -12.6642 -12.5699
   -12.5223 -12.3125 -12.0179 -11.8933 -11.8040 -11.7647 -11.6264 -11.5371
   -11.2763 -11.1977 -10.9740 -10.9050 -10.8357 -10.6672 -10.5863 -10.5198
   -10.2929 -10.2385 -10.1070  -9.9519  -9.8652  -9.8042  -9.7239  -9.5706
    -9.5024  -9.4413  -9.4394  -9.2244  -9.1722  -9.0636  -8.9351  -8.8911
    -8.8891  -8.8069  -8.7501  -8.6900  -8.6268  -8.6210  -8.5586  -8.5422
    -8.4527  -8.3928  -8.3424  -8.3163  -8.2552  -8.2372  -8.1342  -8.1166
    -8.0223  -8.0183  -7.9612  -7.9405  -7.8516  -7.7574  -7.7527  -7.7389
    -7.6419  -7.5950  -7.5160  -7.4433  -7.4009  -7.2854  -7.1957  -7.1607
    -7.1120  -7.0924  -6.9610  -6.9179  -6.8495  -6.7464  -6.7050  -6.6305
    -6.5710  -6.5332  -6.4453  -6.3507  -6.2672  -6.2027  -6.0415  -5.9992
    -5.9529  -5.8517  -5.7925  -5.7493  -5.6824  -5.6254  -5.4212  -5.3847
    -5.2987  -5.2348  -5.0783  -5.0747  -4.9871  -4.9377  -4.8476  -4.6190
    -4.5804  -4.4565  -4.3412  -4.1299  -3.9559  -3.9247  -3.8706  -3.8105
    -3.4860  -3.3746  -3.1244  -2.6880  -2.1651  -1.6281  -0.8700  -0.6442
    -0.2713  -0.1967   0.0193   0.0517   0.1234   0.2357   0.2758   0.4127
     0.7364   0.9432   1.1139   1.2009   1.2015   1.2716   1.4497   1.5095
     1.5334   1.5637   1.6498   1.8178   1.8371   1.8808   1.8863   2.0663
     2.1198   2.1696   2.2517   2.3598   2.4402   2.5607   2.6020   2.6378
     2.7262   2.7593   2.8294   2.8987   2.9273   2.9452   3.0400   3.0707
     3.1621   3.2034   3.2157   3.2331   3.2791   3.2805   3.3613   3.4311
     3.4967   3.5159   3.5584   3.6158   3.6653   3.6656   3.7387   3.7827
     3.7997   3.8376   3.9201   3.9406   3.9989   4.0156   4.0452   4.2238
     4.2649   4.2896   4.3242   4.3369   4.3794   4.4340   4.4838   4.5341
     4.5453   4.5697   4.5948   4.6319   4.6723   4.6746   4.7105   4.7475
     4.7845   4.7927   4.8443   4.8911   4.9016   4.9366   4.9451   4.9847
     4.9931   5.0515   5.0899   5.1145   5.1580   5.2076   5.3158   5.3514
     5.4298   5.4368   5.4643   5.5130   5.5167   5.5329   5.5792   5.6210
     5.6265   5.6558   5.6908   5.7202   5.7592   5.7660   5.7966   5.8171
     5.8352   5.9272   5.9518   5.9540   5.9755   6.0079   6.0113   6.0496
     6.1071   6.1255   6.1335   6.1746   6.1930   6.2183   6.2726   6.2945
     6.3082   6.3585   6.3652   6.3973   6.4244   6.5005   6.5210   6.5223
     6.5418   6.5672   6.5943   6.5988   6.6156   6.6404   6.6594   6.6996
     6.7155   6.7238   6.7874   6.8051   6.8174   6.8405   6.8540   6.8668
     6.8906   6.9072   6.9212   6.9544   6.9688   6.9930   6.9959   7.0252
     7.0442   7.0567   7.1083   7.1484   7.1594   7.1794   7.1936   7.2084
     7.2087   7.2643   7.2689   7.3013   7.3335   7.3743   7.3808   7.3897
     7.4077   7.4277   7.4472   7.4963   7.4968   7.5537   7.5703   7.6101
     7.6494   7.6565   7.7045   7.7650   7.7762   7.8122   7.8396   7.8788
     7.8944   7.9530   7.9638   7.9710   7.9930   8.0129   8.0219   8.0234
     8.0682   8.0818   8.0972   8.1198   8.1458   8.1564   8.1905   8.2198
     8.2320   8.2493   8.2614   8.2956   8.3283   8.3617   8.3828   8.4279
     8.4328   8.4434   8.4512   8.4907   8.5007   8.5663   8.6074   8.6078
     8.6677   8.6895   8.7102   8.7556   8.7663   8.7857   8.8047   8.8229
     8.8473   8.8789   8.8910   8.8946   8.9011   8.9420   8.9550   8.9668
     9.0129   9.0216   9.0662   9.0711   9.0760   9.0826   9.1004   9.1541
     9.1898   9.1907   9.2211   9.2289   9.2504   9.2803   9.3296   9.3346
     9.3648   9.3874   9.4128   9.4319   9.4746   9.4968   9.5011   9.5142
     9.5425   9.5644   9.5769   9.5897   9.6104   9.6116   9.6289   9.6850
     9.6981   9.7343   9.7508   9.7967   9.8013   9.8139   9.8445   9.8632
     9.8778   9.8839   9.9024   9.9294   9.9429   9.9533   9.9636  10.0093
    10.0399  10.0847  10.0862  10.1452  10.1742  10.2180  10.2388  10.2431
    10.2517  10.2917  10.3319  10.3353  10.3669  10.3758  10.4216  10.4674
    10.4802  10.4903  10.5153  10.5246  10.5385  10.5800  10.6039  10.6283
    10.6700  10.6960  10.7338  10.7416  10.7425  10.7805  10.8018  10.8191
    10.8397  10.8998  10.9006  10.9124  10.9327  10.9590  10.9701  10.9885
    11.0169  11.0261  11.0278  11.0336

          k = 0.0000 0.0000 0.0117 (103457 PWs)   bands (ev):

   -21.0968 -20.8769 -20.6285 -20.5641 -20.3704 -20.0983 -19.9217 -19.8584
   -19.6071 -19.4227 -19.3466 -19.3001 -18.8814 -18.8250 -18.7212 -18.4913
   -18.2996 -18.2379 -18.0540 -17.8098 -17.6756 -17.6024 -17.4340 -17.3150
   -17.2040 -17.0190 -16.9691 -16.7850 -16.5603 -16.3346 -16.2424 -16.1999
   -16.1088 -16.0805 -15.7900 -15.7416 -15.5550 -15.1603 -14.9338 -14.6692
   -14.5969 -14.4714 -14.2261 -14.1918 -14.1432 -14.0076 -13.9499 -13.8030
   -13.5885 -13.4405 -13.1236 -12.9799 -12.9548 -12.7851 -12.6470 -12.5775
   -12.5233 -12.3168 -12.0122 -11.8815 -11.7566 -11.7358 -11.5906 -11.5525
   -11.2827 -11.2145 -10.9739 -10.9196 -10.8213 -10.6684 -10.6080 -10.5095
   -10.2851 -10.2411 -10.0926  -9.9636  -9.8736  -9.8497  -9.7130  -9.5816
    -9.4875  -9.4344  -9.4251  -9.2276  -9.1689  -9.0669  -8.9205  -8.9050
    -8.8694  -8.8329  -8.7444  -8.7273  -8.6263  -8.6214  -8.5409  -8.5335
    -8.4477  -8.4090  -8.3579  -8.3293  -8.2455  -8.2392  -8.1359  -8.1125
    -8.0034  -7.9981  -7.9513  -7.9184  -7.8564  -7.7780  -7.7417  -7.7392
    -7.6552  -7.5785  -7.4985  -7.4551  -7.3932  -7.2969  -7.2110  -7.1494
    -7.1187  -7.0823  -6.9530  -6.9295  -6.8446  -6.7535  -6.7001  -6.6209
    -6.5550  -6.5473  -6.4654  -6.3708  -6.2593  -6.2094  -6.0314  -5.9897
    -5.9683  -5.8910  -5.7909  -5.7233  -5.6656  -5.6172  -5.4484  -5.3740
    -5.3304  -5.2359  -5.0851  -5.0335  -4.9764  -4.9427  -4.8408  -4.6388
    -4.5623  -4.4396  -4.3474  -4.1251  -3.9740  -3.9417  -3.8687  -3.7861
    -3.4879  -3.3721  -3.1246  -2.7026  -2.1847  -1.6155  -0.8557  -0.6334
    -0.2849  -0.1806   0.0391   0.0510   0.1291   0.2376   0.2800   0.3945
     0.7285   0.9300   1.0692   1.2046   1.2153   1.2704   1.4005   1.4976
     1.5338   1.5670   1.6732   1.8080   1.8401   1.8698   1.8988   2.1078
     2.1235   2.1894   2.2753   2.3509   2.4258   2.6047   2.6053   2.6257
     2.7141   2.7627   2.8325   2.9037   2.9123   2.9390   3.0370   3.0591
     3.1587   3.1804   3.2063   3.2365   3.2646   3.2981   3.3688   3.4445
     3.5127   3.5353   3.5433   3.6229   3.6605   3.6618   3.7598   3.7754
     3.7869   3.8247   3.9417   3.9833   4.0135   4.0188   4.0560   4.2229
     4.2338   4.2854   4.3227   4.3259   4.3620   4.4637   4.4812   4.5001
     4.5200   4.5550   4.5577   4.6166   4.6831   4.7034   4.7095   4.7314
     4.7838   4.7955   4.8438   4.8676   4.8912   4.9278   4.9544   4.9715
     5.0021   5.0657   5.1039   5.1114   5.1474   5.2256   5.3183   5.3905
     5.4514   5.4649   5.4677   5.4834   5.5197   5.5447   5.5663   5.6257
     5.6337   5.6594   5.7036   5.7236   5.7541   5.7626   5.7979   5.8062
     5.8666   5.9166   5.9279   5.9390   5.9632   6.0093   6.0100   6.0392
     6.0908   6.1104   6.1316   6.1726   6.1746   6.1853   6.2776   6.3073
     6.3111   6.3530   6.3755   6.4147   6.4307   6.5124   6.5170   6.5228
     6.5487   6.5597   6.5957   6.6208   6.6429   6.6592   6.6793   6.7064
     6.7089   6.7180   6.7885   6.7995   6.8197   6.8415   6.8580   6.8622
     6.8720   6.9123   6.9295   6.9549   6.9773   6.9921   7.0077   7.0382
     7.0478   7.0550   7.1061   7.1131   7.1548   7.1781   7.1903   7.1994
     7.2066   7.2288   7.2784   7.3065   7.3302   7.3706   7.3925   7.3986
     7.3998   7.4076   7.4476   7.4789   7.5063   7.5501   7.5653   7.6055
     7.6336   7.6453   7.7274   7.7739   7.7747   7.8097   7.8578   7.8858
     7.8950   7.9664   7.9760   7.9801   7.9856   8.0296   8.0300   8.0484
     8.0748   8.0958   8.1069   8.1346   8.1419   8.1660   8.1711   8.2320
     8.2424   8.2476   8.2577   8.2833   8.3221   8.3744   8.3768   8.4059
     8.4188   8.4302   8.4565   8.4708   8.4853   8.5625   8.6062   8.6091
     8.6748   8.6900   8.7099   8.7380   8.7573   8.7869   8.8109   8.8407
     8.8473   8.8686   8.8718   8.8954   8.9061   8.9263   8.9475   8.9893
     9.0158   9.0442   9.0450   9.0728   9.0755   9.1000   9.1023   9.1520
     9.1637   9.1731   9.2131   9.2413   9.2570   9.2620   9.3246   9.3514
     9.3607   9.3969   9.4245   9.4270   9.4669   9.4804   9.4877   9.5193
     9.5561   9.5690   9.5889   9.6063   9.6084   9.6190   9.6486   9.6722
     9.6981   9.7201   9.7680   9.7774   9.7914   9.7941   9.8376   9.8767
     9.8810   9.8850   9.9048   9.9168   9.9417   9.9533   9.9605   9.9888
    10.0331  10.0798  10.0856  10.1457  10.2152  10.2277  10.2521  10.2591
    10.2631  10.2913  10.3230  10.3323  10.3634  10.3920  10.4312  10.4568
    10.4696  10.4949  10.5200  10.5360  10.5398  10.5818  10.6074  10.6324
    10.6546  10.6622  10.7067  10.7273  10.7371  10.7655  10.8069  10.8114
    10.8411  10.8854  10.8968  10.9053  10.9387  10.9628  10.9805  10.9892
    11.0093  11.0122  11.0203  11.0386

          k = 0.0000 0.0000 0.0129 (103443 PWs)   bands (ev):

   -21.0938 -20.8881 -20.6239 -20.5492 -20.3806 -20.0831 -19.9461 -19.8574
   -19.6163 -19.4401 -19.3261 -19.2798 -18.8730 -18.8111 -18.7323 -18.4962
   -18.3165 -18.2487 -18.0362 -17.8350 -17.6983 -17.6034 -17.3953 -17.3098
   -17.2002 -17.0327 -16.9386 -16.7701 -16.5725 -16.3174 -16.2605 -16.1908
   -16.1189 -16.0969 -15.7893 -15.7568 -15.5644 -15.1697 -14.9437 -14.6742
   -14.5586 -14.4779 -14.2206 -14.1747 -14.1274 -14.0045 -13.9300 -13.7946
   -13.5868 -13.4311 -13.1442 -13.0256 -12.9930 -12.8201 -12.6281 -12.5885
   -12.5206 -12.3192 -12.0053 -11.8702 -11.7350 -11.6832 -11.5819 -11.5367
   -11.2909 -11.2339 -10.9751 -10.9292 -10.8092 -10.6735 -10.6245 -10.4989
   -10.2931 -10.2333 -10.0758  -9.9799  -9.8917  -9.8811  -9.7083  -9.5842
    -9.4787  -9.4233  -9.4060  -9.2298  -9.1653  -9.0712  -8.9186  -8.9183
    -8.8530  -8.8485  -8.7639  -8.7464  -8.6257  -8.6167  -8.5273  -8.5219
    -8.4480  -8.4130  -8.3720  -8.3419  -8.2536  -8.2229  -8.1418  -8.1123
    -7.9845  -7.9786  -7.9403  -7.9006  -7.8526  -7.8074  -7.7400  -7.7194
    -7.6676  -7.5637  -7.4813  -7.4666  -7.3888  -7.3038  -7.2358  -7.1467
    -7.1301  -7.0501  -6.9453  -6.9409  -6.8426  -6.7616  -6.6942  -6.6163
    -6.5749  -6.5232  -6.4810  -6.3948  -6.2484  -6.2167  -6.0240  -5.9836
    -5.9812  -5.9258  -5.7895  -5.6969  -5.6550  -5.6037  -5.4765  -5.3625
    -5.3610  -5.2366  -5.0926  -4.9961  -4.9645  -4.9481  -4.8341  -4.6616
    -4.5457  -4.4161  -4.3531  -4.1219  -3.9944  -3.9590  -3.8678  -3.7589
    -3.4963  -3.3643  -3.1253  -2.7184  -2.2041  -1.6034  -0.8410  -0.6207
    -0.3010  -0.1600   0.0468   0.0624   0.1349   0.2348   0.2819   0.3855
     0.7197   0.9137   1.0246   1.2087   1.2107   1.2860   1.3564   1.4839
     1.5365   1.5709   1.6964   1.7958   1.8434   1.8540   1.9193   2.1275
     2.1445   2.2093   2.2993   2.3436   2.4117   2.5828   2.6091   2.6813
     2.6951   2.7665   2.8386   2.8975   2.9094   2.9352   3.0325   3.0488
     3.1452   3.1571   3.2063   3.2401   3.2499   3.3150   3.3789   3.4592
     3.5225   3.5296   3.5541   3.6176   3.6487   3.6709   3.7558   3.7655
     3.7963   3.8325   3.9637   4.0232   4.0245   4.0275   4.0700   4.2019
     4.2208   4.2812   4.3086   4.3283   4.3458   4.4498   4.4734   4.4931
     4.5106   4.5222   4.5405   4.6010   4.6836   4.6892   4.7239   4.7339
     4.7812   4.8109   4.8381   4.8439   4.8871   4.9129   4.9492   4.9695
     5.0198   5.0794   5.1172   5.1202   5.1427   5.2444   5.3222   5.4139
     5.4285   5.4613   5.4906   5.5075   5.5319   5.5356   5.5772   5.6111
     5.6275   5.6787   5.7110   5.7312   5.7556   5.7621   5.7855   5.8138
     5.8695   5.8989   5.9019   5.9486   5.9633   6.0098   6.0130   6.0335
     6.0744   6.0960   6.1233   6.1495   6.1598   6.1778   6.2773   6.3087
     6.3306   6.3476   6.3778   6.4063   6.4643   6.4749   6.5183   6.5301
     6.5712   6.5772   6.5937   6.6149   6.6432   6.6802   6.7110   6.7153
     6.7184   6.7344   6.7896   6.7953   6.8208   6.8377   6.8421   6.8527
     6.8614   6.9150   6.9326   6.9684   6.9779   7.0076   7.0234   7.0351
     7.0447   7.0593   7.0691   7.1205   7.1485   7.1799   7.1852   7.1940
     7.1993   7.2154   7.2846   7.3174   7.3280   7.3573   7.3681   7.3981
     7.4062   7.4233   7.4485   7.4507   7.5169   7.5433   7.5770   7.6086
     7.6102   7.6367   7.7336   7.7674   7.7814   7.8174   7.8678   7.8859
     7.9089   7.9401   7.9765   7.9926   7.9939   8.0288   8.0632   8.0779
     8.0888   8.1145   8.1191   8.1248   8.1404   8.1682   8.1814   8.1932
     8.2355   8.2538   8.2765   8.3175   8.3264   8.3605   8.3755   8.3849
     8.4063   8.4154   8.4542   8.4760   8.4790   8.5592   8.6014   8.6112
     8.6500   8.6686   8.7165   8.7447   8.7557   8.7723   8.8172   8.8252
     8.8564   8.8570   8.8772   8.8936   8.9104   8.9279   8.9332   9.0128
     9.0205   9.0343   9.0580   9.0763   9.0824   9.1018   9.1047   9.1320
     9.1538   9.1743   9.2029   9.2331   9.2544   9.2893   9.3121   9.3408
     9.3683   9.3832   9.4080   9.4507   9.4666   9.4678   9.5025   9.5211
     9.5650   9.5767   9.5790   9.6035   9.6232   9.6540   9.6551   9.6613
     9.6956   9.7159   9.7601   9.7656   9.7761   9.7792   9.8347   9.8683
     9.8756   9.8896   9.9047   9.9103   9.9330   9.9483   9.9825  10.0003
    10.0238  10.0617  10.0912  10.1421  10.2157  10.2492  10.2573  10.2671
    10.2844  10.2962  10.3155  10.3422  10.3660  10.3944  10.4280  10.4457
    10.4644  10.4867  10.5209  10.5562  10.5623  10.5730  10.6069  10.6238
    10.6431  10.6711  10.6734  10.7196  10.7383  10.7576  10.8027  10.8128
    10.8444  10.8592  10.8899  10.9084  10.9420  10.9567  10.9817  10.9863
    10.9919  11.0081  11.0242  11.0472

          k = 0.0000 0.0000 0.0141 (103441 PWs)   bands (ev):

   -21.0905 -20.8991 -20.6198 -20.5332 -20.3904 -20.0682 -19.9700 -19.8561
   -19.6254 -19.4595 -19.3066 -19.2555 -18.8696 -18.8007 -18.7345 -18.5016
   -18.3469 -18.2447 -18.0219 -17.8566 -17.7205 -17.6041 -17.3634 -17.3008
   -17.1989 -17.0422 -16.9099 -16.7510 -16.5854 -16.3035 -16.2804 -16.1802
   -16.1576 -16.0829 -15.7988 -15.7661 -15.5714 -15.1812 -14.9519 -14.6801
   -14.5210 -14.4797 -14.2351 -14.1360 -14.1117 -14.0013 -13.9107 -13.7876
   -13.5837 -13.4210 -13.1645 -13.0819 -13.0203 -12.8590 -12.6126 -12.5955
   -12.5190 -12.3192 -11.9975 -11.8592 -11.7172 -11.6404 -11.5797 -11.4991
   -11.3022 -11.2525 -10.9832 -10.9294 -10.8029 -10.6815 -10.6322 -10.4890
   -10.3064 -10.2267 -10.0583 -10.0067  -9.9200  -9.8877  -9.7127  -9.5762
    -9.4747  -9.4082  -9.3855  -9.2304  -9.1613  -9.0765  -8.9345  -8.9318
    -8.8574  -8.8362  -8.7901  -8.7560  -8.6218  -8.6123  -8.5269  -8.5020
    -8.4581  -8.4049  -8.3779  -8.3540  -8.2614  -8.2065  -8.1505  -8.1151
    -7.9655  -7.9604  -7.9288  -7.8932  -7.8367  -7.8359  -7.7376  -7.7014
    -7.6753  -7.5513  -7.4779  -7.4647  -7.3888  -7.3044  -7.2619  -7.1758
    -7.1100  -7.0163  -6.9539  -6.9364  -6.8438  -6.7705  -6.6891  -6.6141
    -6.5911  -6.5210  -6.4719  -6.4202  -6.2371  -6.2242  -6.0244  -5.9966
    -5.9860  -5.9404  -5.7882  -5.6716  -5.6510  -5.5846  -5.5046  -5.3901
    -5.3504  -5.2371  -5.1008  -4.9755  -4.9540  -4.9385  -4.8292  -4.6822
    -4.5321  -4.3903  -4.3560  -4.1207  -4.0167  -3.9755  -3.8675  -3.7307
    -3.5096  -3.3529  -3.1265  -2.7351  -2.2231  -1.5921  -0.8261  -0.6060
    -0.3181  -0.1366   0.0437   0.0845   0.1397   0.2246   0.2847   0.3861
     0.7104   0.8935   0.9817   1.1907   1.2131   1.3086   1.3237   1.4698
     1.5403   1.5753   1.7189   1.7830   1.8386   1.8478   1.9412   2.1318
     2.1721   2.2292   2.3238   2.3425   2.3982   2.5574   2.6131   2.6722
     2.7415   2.7709   2.8428   2.8829   2.9156   2.9353   3.0266   3.0402
     3.1106   3.1576   3.2038   3.2359   3.2438   3.3294   3.3922   3.4723
     3.5196   3.5255   3.5672   3.6029   3.6334   3.6916   3.7396   3.7609
     3.8214   3.8475   3.9848   4.0292   4.0366   4.0669   4.0885   4.1706
     4.2167   4.2766   4.2945   4.3315   4.3316   4.3969   4.4593   4.4876
     4.5073   4.5196   4.5260   4.5855   4.6623   4.6749   4.7259   4.7524
     4.7770   4.8062   4.8438   4.8453   4.8700   4.9094   4.9266   4.9885
     5.0361   5.0874   5.1185   5.1380   5.1574   5.2632   5.3273   5.3630
     5.4631   5.4669   5.4955   5.5026   5.5482   5.5651   5.5902   5.5940
     5.6293   5.6782   5.7063   5.7404   5.7480   5.7767   5.7907   5.8220
     5.8519   5.8722   5.8910   5.9346   6.0027   6.0080   6.0176   6.0301
     6.0601   6.0841   6.1143   6.1152   6.1486   6.1847   6.2737   6.3105
     6.3394   6.3509   6.3681   6.4076   6.4328   6.4963   6.5209   6.5410
     6.5771   6.5894   6.5980   6.6070   6.6384   6.6890   6.7170   6.7406
     6.7487   6.7629   6.7879   6.7948   6.8017   6.8226   6.8425   6.8490
     6.8652   6.9111   6.9343   6.9715   6.9942   7.0066   7.0184   7.0297
     7.0408   7.0650   7.0678   7.1240   7.1390   7.1514   7.1821   7.1958
     7.2164   7.2211   7.2928   7.3201   7.3307   7.3409   7.3488   7.3979
     7.4055   7.4103   7.4427   7.4614   7.5283   7.5428   7.5868   7.5895
     7.6114   7.6344   7.7260   7.7571   7.7806   7.8170   7.8842   7.8998
     7.8999   7.9208   7.9801   7.9964   8.0028   8.0348   8.0836   8.0972
     8.0975   8.1249   8.1269   8.1295   8.1381   8.1495   8.1974   8.1982
     8.2370   8.2563   8.3037   8.3093   8.3385   8.3518   8.3627   8.3953
     8.3976   8.4054   8.4436   8.4677   8.5095   8.5525   8.5777   8.6106
     8.6145   8.6529   8.7330   8.7426   8.7466   8.7721   8.8030   8.8101
     8.8493   8.8725   8.8730   8.9026   8.9063   8.9199   8.9514   9.0034
     9.0308   9.0527   9.0626   9.0797   9.0868   9.0900   9.1114   9.1177
     9.1349   9.1781   9.2152   9.2249   9.2619   9.2894   9.3207   9.3313
     9.3537   9.3813   9.3881   9.4462   9.4618   9.4805   9.5120   9.5586
     9.5614   9.5664   9.5948   9.5981   9.6216   9.6491   9.6590   9.6792
     9.6979   9.7158   9.7277   9.7457   9.7818   9.7877   9.8216   9.8523
     9.8681   9.8747   9.9005   9.9062   9.9427   9.9619  10.0058  10.0153
    10.0201  10.0448  10.0976  10.1273  10.2172  10.2396  10.2602  10.2718
    10.3030  10.3102  10.3214  10.3412  10.3633  10.3860  10.4224  10.4483
    10.4630  10.4931  10.5078  10.5606  10.5768  10.5917  10.5919  10.6269
    10.6348  10.6430  10.6954  10.7163  10.7398  10.7619  10.7950  10.8164
    10.8256  10.8612  10.8811  10.9121  10.9390  10.9445  10.9694  10.9774
    10.9928  11.0093  11.0286  11.0562

          k = 0.0000 0.0000 0.0153 (103453 PWs)   bands (ev):

   -21.0869 -20.9098 -20.6161 -20.5165 -20.3999 -20.0547 -19.9923 -19.8545
   -19.6344 -19.4795 -19.2883 -19.2284 -18.8696 -18.8007 -18.7225 -18.5073
   -18.3819 -18.2353 -18.0148 -17.8710 -17.7422 -17.6046 -17.3476 -17.2790
   -17.2008 -17.0459 -16.8833 -16.7279 -16.5984 -16.3021 -16.2924 -16.1974
   -16.1685 -16.0663 -15.8203 -15.7672 -15.5764 -15.1951 -14.9581 -14.6861
   -14.5034 -14.4586 -14.2507 -14.1007 -14.0900 -13.9979 -13.8934 -13.7812
   -13.5791 -13.4102 -13.1851 -13.1386 -13.0462 -12.9004 -12.6155 -12.5836
   -12.5199 -12.3166 -11.9890 -11.8484 -11.7030 -11.6311 -11.5413 -11.4599
   -11.3182 -11.2670 -10.9972 -10.9228 -10.8060 -10.6865 -10.6329 -10.4801
   -10.3200 -10.2257 -10.0676 -10.0186  -9.9347  -9.8912  -9.7227  -9.5606
    -9.4725  -9.3921  -9.3650  -9.2286  -9.1570  -9.0829  -8.9617  -8.9448
    -8.8584  -8.8467  -8.7945  -8.7613  -8.6174  -8.6081  -8.5346  -8.4813
    -8.4675  -8.4105  -8.3657  -8.3601  -8.2679  -8.1901  -8.1610  -8.1200
    -7.9468  -7.9440  -7.9177  -7.8908  -7.8654  -7.8122  -7.7351  -7.7002
    -7.6629  -7.5419  -7.4888  -7.4495  -7.3925  -7.2988  -7.2879  -7.2052
    -7.0899  -6.9814  -6.9666  -6.9288  -6.8480  -6.7801  -6.6877  -6.6137
    -6.6003  -6.5374  -6.4460  -6.4424  -6.2317  -6.2267  -6.0337  -6.0307
    -5.9813  -5.9332  -5.7870  -5.6513  -5.6497  -5.5625  -5.5303  -5.4177
    -5.3380  -5.2375  -5.1096  -4.9702  -4.9602  -4.9003  -4.8282  -4.6973
    -4.5207  -4.3773  -4.3425  -4.1216  -4.0405  -3.9906  -3.8675  -3.7028
    -3.5256  -3.3394  -3.1282  -2.7527  -2.2414  -1.5814  -0.8111  -0.5893
    -0.3354  -0.1113   0.0401   0.1063   0.1412   0.2108   0.2903   0.3939
     0.7008   0.8684   0.9423   1.1584   1.2180   1.2958   1.3408   1.4557
     1.5447   1.5802   1.7398   1.7699   1.8236   1.8540   1.9639   2.1364
     2.1856   2.2487   2.3486   2.3519   2.3854   2.5339   2.6172   2.6477
     2.7754   2.8020   2.8413   2.8687   2.9222   2.9413   3.0199   3.0335
     3.0768   3.1599   3.1994   3.2225   3.2478   3.3412   3.4086   3.4765
     3.5193   3.5214   3.5603   3.5859   3.6309   3.7177   3.7303   3.7587
     3.8480   3.8653   4.0029   4.0389   4.0458   4.0954   4.1204   4.1412
     4.2101   4.2723   4.2799   4.3185   4.3356   4.3445   4.4415   4.4534
     4.5074   4.5117   4.5398   4.5709   4.6319   4.6658   4.7297   4.7431
     4.7706   4.8093   4.8342   4.8567   4.8749   4.9051   4.9155   5.0102
     5.0472   5.0916   5.1186   5.1568   5.1846   5.2800   5.3089   5.3406
     5.4653   5.4744   5.4841   5.5132   5.5761   5.5795   5.5992   5.6049
     5.6341   5.6702   5.6979   5.7207   5.7581   5.7887   5.8022   5.8237
     5.8413   5.8563   5.8834   5.9250   5.9988   6.0213   6.0245   6.0298
     6.0530   6.0728   6.1027   6.1076   6.1394   6.1910   6.2681   6.3052
     6.3291   6.3587   6.3706   6.3955   6.4106   6.5190   6.5216   6.5433
     6.5672   6.5790   6.6134   6.6360   6.6364   6.6950   6.7159   6.7397
     6.7694   6.7826   6.7870   6.7964   6.7975   6.8260   6.8413   6.8613
     6.8720   6.9055   6.9377   6.9610   6.9732   6.9972   7.0242   7.0387
     7.0475   7.0725   7.0830   7.1192   7.1213   7.1365   7.1866   7.1972
     7.2183   7.2463   7.2976   7.3089   7.3222   7.3353   7.3585   7.3690
     7.3978   7.4022   7.4538   7.4828   7.5396   7.5401   7.5667   7.5999
     7.6090   7.6452   7.7157   7.7431   7.7754   7.7994   7.8628   7.9141
     7.9188   7.9210   7.9710   8.0057   8.0099   8.0461   8.0759   8.0881
[...]
    -5.2632  -5.2458  -5.1944  -5.1016  -5.0179  -4.9064  -4.6120  -4.5544
    -4.4972  -4.3624  -4.3028  -4.2385  -4.0468  -4.0013  -3.8719  -3.7937
    -3.4352  -3.2519  -3.1434  -2.9101  -2.3515  -1.5249  -0.6962  -0.4861
    -0.3422  -0.1293   0.0155   0.1236   0.2314   0.3559   0.4327   0.4948
     0.5762   0.6258   0.7122   0.7329   1.2729   1.2759   1.3464   1.5470
     1.6022   1.6405   1.6648   1.7081   1.8591   1.9765   2.0533   2.1748
     2.1880   2.2592   2.2764   2.3546   2.4885   2.5908   2.6633   2.6999
     2.7526   2.7554   2.7886   2.8386   2.9058   2.9902   3.0477   3.0861
     3.1048   3.1552   3.1807   3.2307   3.3106   3.3112   3.3666   3.4049
     3.4112   3.4768   3.5925   3.6301   3.7643   3.7869   3.8243   3.8399
     3.8695   3.9586   3.9933   4.0655   4.0786   4.1449   4.1503   4.1688
     4.1728   4.1936   4.2479   4.2629   4.3376   4.3482   4.3604   4.3956
     4.4054   4.4538   4.4625   4.4653   4.5046   4.5349   4.5733   4.5774
     4.6395   4.8353   4.9064   4.9180   4.9702   4.9853   5.0164   5.0610
     5.0825   5.1079   5.1674   5.1742   5.2994   5.3254   5.3270   5.3827
     5.4147   5.4744   5.4798   5.5076   5.5274   5.5815   5.5865   5.6092
     5.6195   5.6288   5.7087   5.7512   5.7678   5.8053   5.8183   5.8464
     5.8782   5.9106   5.9122   5.9453   5.9646   6.0128   6.0195   6.0306
     6.0693   6.0881   6.1068   6.1159   6.1748   6.1913   6.2136   6.2184
     6.2331   6.2918   6.3202   6.3362   6.3881   6.4927   6.5070   6.5189
     6.5580   6.5688   6.6159   6.6456   6.6549   6.6771   6.7160   6.7590
     6.7893   6.8031   6.8109   6.8195   6.8255   6.8285   6.8680   6.8972
     6.8998   6.9149   6.9242   6.9464   6.9802   6.9917   7.0252   7.0379
     7.0707   7.1406   7.1418   7.1435   7.1605   7.1894   7.1944   7.2091
     7.2322   7.2489   7.2816   7.3166   7.3464   7.3741   7.4114   7.4247
     7.4431   7.4672   7.4774   7.4907   7.5405   7.5568   7.5688   7.5747
     7.6064   7.6236   7.6493   7.7213   7.7770   7.7992   7.8073   7.8446
     7.8484   7.8600   7.8898   7.8969   7.9429   7.9858   8.0155   8.0503
     8.0974   8.1192   8.1572   8.1674   8.1919   8.2082   8.2180   8.2328
     8.2536   8.2672   8.3157   8.3291   8.3373   8.3584   8.3760   8.4186
     8.4276   8.4320   8.4668   8.5467   8.5527   8.5719   8.5737   8.6515
     8.6793   8.6912   8.7372   8.7535   8.7575   8.7597   8.7852   8.8186
     8.8233   8.8696   8.8952   8.9176   8.9373   8.9450   8.9643   8.9739
     8.9899   8.9928   9.0108   9.0579   9.0675   9.1204   9.1209   9.1349
     9.1668   9.1750   9.1793   9.1908   9.2237   9.2422   9.2617   9.2656
     9.3223   9.3471   9.3610   9.4114   9.4161   9.4760   9.4786   9.4834
     9.5374   9.5655   9.5662   9.5927   9.6065   9.6515   9.6721   9.7036
     9.7099   9.7390   9.7494   9.7592   9.7802   9.8093   9.8148   9.8553
     9.8781   9.8810   9.9058   9.9571   9.9822   9.9880  10.0143  10.0263
    10.0442  10.0555  10.0869  10.1094  10.1451  10.1818  10.2055  10.2510
    10.2666  10.2774  10.3293  10.3345  10.3693  10.3915  10.4120  10.4610
    10.4877  10.4884  10.5154  10.5715  10.6012  10.6152  10.6280  10.6418
    10.6743  10.6980  10.7083  10.7149  10.7425  10.7574  10.7709  10.7713
    10.7891  10.8222  10.8316  10.8523  10.9096  10.9256  10.9365  10.9536
    10.9714  10.9851  11.0009  11.0111

          k = 0.0000 0.0000 0.0270 (103398 PWs)   bands (ev):

   -21.0387 -20.9982 -20.5881 -20.4635 -20.3258 -20.2332 -19.9004 -19.8506
   -19.7093 -19.6248 -19.1332 -18.9998 -18.9037 -18.8288 -18.7370 -18.5462
   -18.4268 -18.2970 -18.0838 -17.9180 -17.6889 -17.6206 -17.4954 -17.2684
   -16.9490 -16.8523 -16.7845 -16.6654 -16.5827 -16.5177 -16.3699 -16.2685
   -16.1824 -16.0978 -15.8240 -15.7621 -15.5943 -15.3770 -14.9454 -14.7284
   -14.5262 -14.3558 -14.0010 -13.9592 -13.9541 -13.8871 -13.7241 -13.6833
   -13.6290 -13.4680 -13.4352 -13.3243 -13.2614 -13.2248 -12.6755 -12.6005
   -12.4365 -12.2485 -11.9180 -11.7983 -11.7135 -11.5854 -11.4504 -11.2689
   -11.1956 -11.1377 -11.0331 -10.9131 -10.8732 -10.6787 -10.6457 -10.5085
   -10.3922 -10.3679 -10.3206 -10.1644  -9.8577  -9.8188  -9.5579  -9.4659
    -9.3955  -9.3745  -9.3413  -9.2206  -9.1481  -9.0983  -9.0826  -9.0518
    -8.9814  -8.9295  -8.8435  -8.7759  -8.5833  -8.5795  -8.5714  -8.4679
    -8.4467  -8.4379  -8.3639  -8.2896  -8.2513  -8.2415  -8.1458  -8.0216
    -7.9911  -7.9548  -7.8333  -7.7823  -7.7720  -7.7334  -7.7076  -7.6399
    -7.6371  -7.5818  -7.5497  -7.4808  -7.4411  -7.3264  -7.2671  -7.1987
    -7.0848  -6.9748  -6.9511  -6.8918  -6.8303  -6.7720  -6.7555  -6.6461
    -6.6237  -6.5688  -6.4386  -6.4351  -6.3171  -6.2793  -6.0830  -6.0397
    -5.9347  -5.9133  -5.7703  -5.7599  -5.7059  -5.6432  -5.3463  -5.3208
    -5.2686  -5.2510  -5.1967  -5.1221  -5.0217  -4.9082  -4.5998  -4.5402
    -4.4825  -4.3652  -4.3217  -4.2543  -4.0420  -3.9708  -3.8743  -3.8232
    -3.4199  -3.2532  -3.1413  -2.9202  -2.3559  -1.5229  -0.6891  -0.4931
    -0.3127  -0.1622   0.0143   0.1306   0.2602   0.3547   0.4388   0.4996
     0.5898   0.6196   0.6893   0.6930   1.2735   1.2826   1.3378   1.5565
     1.6096   1.6466   1.6571   1.6984   1.8739   1.9663   2.0587   2.1898
     2.1969   2.2413   2.2715   2.3400   2.4947   2.6185   2.6617   2.6922
     2.7349   2.7700   2.7858   2.8477   2.9071   2.9801   3.0511   3.0748
     3.1071   3.1707   3.1734   3.2221   3.2855   3.3184   3.3606   3.4178
     3.4584   3.4691   3.5911   3.6547   3.7327   3.7506   3.8433   3.8548
     3.8602   3.9430   4.0166   4.0762   4.0914   4.1376   4.1455   4.1604
     4.1676   4.2005   4.2460   4.2755   4.3372   4.3548   4.3558   4.3958
     4.4039   4.4342   4.4439   4.4668   4.4875   4.5458   4.5742   4.5895
     4.6346   4.7862   4.9124   4.9326   4.9748   4.9818   5.0348   5.0692
     5.1113   5.1182   5.1405   5.1733   5.2685   5.3181   5.3501   5.4100
     5.4310   5.4657   5.4676   5.5078   5.5129   5.5815   5.5852   5.6092
     5.6119   5.6532   5.6865   5.7454   5.7579   5.8057   5.8159   5.8609
     5.8613   5.9168   5.9204   5.9620   5.9866   6.0150   6.0235   6.0577
     6.0673   6.0767   6.1052   6.1172   6.1409   6.1853   6.1974   6.2217
     6.2433   6.2831   6.3135   6.3550   6.3873   6.4691   6.4858   6.5209
     6.5695   6.5882   6.6035   6.6334   6.6767   6.6869   6.7164   6.7606
     6.7889   6.7912   6.8021   6.8199   6.8254   6.8486   6.8623   6.8701
     6.8976   6.9123   6.9327   6.9601   6.9838   6.9881   7.0251   7.0357
     7.0726   7.1422   7.1475   7.1522   7.1701   7.1838   7.1897   7.2132
     7.2163   7.2483   7.2969   7.3440   7.3710   7.3725   7.3920   7.4244
     7.4405   7.4542   7.4765   7.5187   7.5383   7.5476   7.5718   7.5821
     7.5968   7.6313   7.6515   7.7069   7.7591   7.7750   7.8157   7.8467
     7.8713   7.8850   7.8895   7.9131   7.9239   7.9822   8.0045   8.0377
     8.0785   8.0825   8.1333   8.1670   8.1960   8.2012   8.2149   8.2504
     8.2699   8.2759   8.3134   8.3267   8.3539   8.3690   8.3797   8.4013
     8.4134   8.4227   8.4833   8.5390   8.5579   8.5787   8.6020   8.6303
     8.6842   8.6898   8.7474   8.7482   8.7790   8.7944   8.8100   8.8138
     8.8471   8.8809   8.8960   8.9185   8.9220   8.9363   8.9535   8.9547
     8.9855   8.9881   9.0196   9.0408   9.0614   9.0908   9.1188   9.1246
     9.1665   9.1801   9.1851   9.2006   9.2114   9.2353   9.2728   9.2782
     9.3253   9.3351   9.3622   9.3858   9.4142   9.4714   9.4795   9.4803
     9.5450   9.5674   9.5677   9.5843   9.6046   9.6520   9.6739   9.7017
     9.7094   9.7410   9.7518   9.7687   9.7834   9.8272   9.8363   9.8703
     9.8827   9.8886   9.9193   9.9346   9.9780   9.9921   9.9999  10.0021
    10.0088  10.0506  10.0702  10.0931  10.1186  10.2205  10.2283  10.2643
    10.2741  10.2927  10.3312  10.3324  10.3837  10.4094  10.4376  10.4500
    10.4764  10.4824  10.5148  10.5792  10.5873  10.6175  10.6200  10.6360
    10.6810  10.6852  10.6922  10.7104  10.7286  10.7413  10.7644  10.7735
    10.7772  10.8181  10.8315  10.8481  10.9152  10.9285  10.9516  10.9541
    10.9845  10.9855  11.0031  11.0098

          k = 0.0000 0.0000 0.0282 (103420 PWs)   bands (ev):

   -21.0346 -21.0031 -20.5872 -20.4652 -20.3074 -20.2525 -19.8930 -19.8527
   -19.7126 -19.6285 -19.1255 -19.0053 -18.8824 -18.8277 -18.7626 -18.5471
   -18.3959 -18.3273 -18.0784 -17.9251 -17.6699 -17.6287 -17.5061 -17.2696
   -16.9408 -16.8335 -16.7677 -16.6990 -16.5736 -16.5364 -16.3361 -16.2775
   -16.2076 -16.0965 -15.8130 -15.7635 -15.5961 -15.3839 -14.9441 -14.7295
   -14.5267 -14.3583 -13.9962 -13.9536 -13.9256 -13.8711 -13.7773 -13.6810
   -13.5829 -13.4948 -13.4406 -13.3264 -13.2747 -13.2258 -12.6769 -12.6037
   -12.4325 -12.2462 -11.9160 -11.8023 -11.7019 -11.5994 -11.4429 -11.2648
   -11.1864 -11.1558 -11.0119 -10.9272 -10.8234 -10.7031 -10.6785 -10.5032
   -10.3959 -10.3516 -10.3282 -10.1785  -9.8560  -9.8176  -9.5204  -9.4610
    -9.4170  -9.3836  -9.3558  -9.2022  -9.1419  -9.1058  -9.0931  -9.0580
    -8.9604  -8.9327  -8.8502  -8.7902  -8.5783  -8.5770  -8.5700  -8.4671
    -8.4490  -8.4358  -8.3647  -8.2985  -8.2435  -8.2275  -8.1706  -8.0076
    -7.9833  -7.9668  -7.8197  -7.7731  -7.7651  -7.7326  -7.7061  -7.6505
    -7.6441  -7.5868  -7.5562  -7.4862  -7.4401  -7.2992  -7.2634  -7.2193
    -7.0769  -6.9815  -6.9589  -6.8782  -6.8316  -6.7856  -6.7535  -6.6532
    -6.6105  -6.5448  -6.4733  -6.4237  -6.3314  -6.2805  -6.0464  -6.0373
    -5.9706  -5.9116  -5.7690  -5.7497  -5.7088  -5.6553  -5.3330  -5.2969
    -5.2756  -5.2598  -5.1974  -5.1366  -5.0240  -4.9092  -4.5906  -4.5396
    -4.4547  -4.3875  -4.3224  -4.2668  -4.0404  -3.9388  -3.8826  -3.8466
    -3.4100  -3.2549  -3.1395  -2.9266  -2.3586  -1.5217  -0.6845  -0.4978
    -0.2853  -0.1915   0.0136   0.1341   0.2899   0.3455   0.4248   0.5297
     0.5951   0.6188   0.6605   0.6714   1.2739   1.2879   1.3314   1.5623
     1.6162   1.6451   1.6576   1.6905   1.8875   1.9530   2.0660   2.1943
     2.2095   2.2287   2.2693   2.3269   2.5003   2.6438   2.6595   2.6878
     2.7140   2.7604   2.8048   2.8541   2.9184   2.9623   3.0534   3.0670
     3.1064   3.1669   3.1885   3.2190   3.2638   3.3255   3.3526   3.4230
     3.4632   3.5121   3.5859   3.6777   3.6838   3.7335   3.8552   3.8589
     3.8668   3.9282   4.0333   4.0839   4.1028   4.1308   4.1346   4.1513
     4.1678   4.2107   4.2464   4.2758   4.3422   4.3589   4.3621   4.3890
     4.4089   4.4120   4.4318   4.4666   4.4859   4.5250   4.5783   4.6184
     4.6460   4.7372   4.9172   4.9391   4.9789   4.9811   5.0483   5.0789
     5.1155   5.1226   5.1433   5.1721   5.2355   5.3133   5.3743   5.4331
     5.4383   5.4547   5.4629   5.4947   5.5123   5.5766   5.5811   5.6048
     5.6127   5.6723   5.6801   5.7436   5.7566   5.7925   5.8143   5.8416
     5.8715   5.9128   5.9382   5.9879   5.9908   6.0190   6.0288   6.0641
     6.0715   6.0815   6.1045   6.1133   6.1276   6.1663   6.1959   6.2010
     6.2284   6.3072   6.3269   6.3747   6.3870   6.4243   6.4678   6.5342
     6.5656   6.5984   6.6160   6.6219   6.6775   6.7169   6.7228   6.7610
     6.7697   6.7926   6.8015   6.8091   6.8210   6.8244   6.8712   6.8841
     6.8984   6.9101   6.9407   6.9588   6.9614   6.9949   7.0331   7.0564
     7.0704   7.1217   7.1524   7.1618   7.1736   7.1863   7.1907   7.2018
     7.2029   7.2744   7.3100   7.3529   7.3614   7.3749   7.4053   7.4159
     7.4311   7.4470   7.4901   7.5058   7.5233   7.5639   7.5708   7.5906
     7.6175   7.6431   7.6638   7.6832   7.7336   7.7441   7.7978   7.8754
     7.8857   7.8894   7.9064   7.9270   7.9399   7.9738   7.9969   8.0243
     8.0421   8.0682   8.1045   8.1757   8.1982   8.1993   8.2074   8.2677
     8.2821   8.2903   8.3114   8.3240   8.3565   8.3722   8.3814   8.3819
     8.4132   8.4223   8.4885   8.5296   8.5657   8.5988   8.6049   8.6211
     8.6769   8.6976   8.7320   8.7607   8.7764   8.8134   8.8331   8.8545
     8.8731   8.8851   8.9020   8.9025   8.9180   8.9296   8.9314   8.9440
     8.9591   8.9805   9.0079   9.0502   9.0740   9.0805   9.1157   9.1163
     9.1528   9.1670   9.1856   9.1981   9.2342   9.2370   9.2806   9.2937
     9.2989   9.3270   9.3589   9.3946   9.4250   9.4686   9.4689   9.4791
     9.5224   9.5569   9.5682   9.5916   9.6231   9.6553   9.6790   9.6989
     9.7153   9.7335   9.7488   9.7553   9.7961   9.8503   9.8539   9.8772
     9.8964   9.9016   9.9181   9.9415   9.9616   9.9709   9.9724  10.0003
    10.0142  10.0165  10.0752  10.0861  10.0965  10.2163  10.2613  10.2696
    10.2904  10.3093  10.3305  10.3402  10.4120  10.4121  10.4159  10.4501
    10.4785  10.4919  10.5108  10.5521  10.5907  10.6250  10.6270  10.6355
    10.6538  10.6775  10.6836  10.7051  10.7274  10.7287  10.7645  10.7750
    10.7841  10.8100  10.8298  10.8450  10.9250  10.9309  10.9510  10.9668
    10.9732  10.9884  11.0083  11.0159

          k = 0.0000 0.0000-0.0293 (103456 PWs)   bands (ev):

   -21.0330 -21.0050 -20.5869 -20.4658 -20.2970 -20.2632 -19.8903 -19.8536
   -19.7137 -19.6297 -19.1227 -19.0075 -18.8729 -18.8267 -18.7741 -18.5474
   -18.3739 -18.3492 -18.0765 -17.9276 -17.6601 -17.6345 -17.5099 -17.2700
   -16.9380 -16.8290 -16.7395 -16.7320 -16.5634 -16.5491 -16.3143 -16.2899
   -16.2171 -16.0961 -15.8090 -15.7642 -15.5968 -15.3863 -14.9436 -14.7299
   -14.5269 -14.3591 -13.9948 -13.9530 -13.9178 -13.8329 -13.8250 -13.6800
   -13.5442 -13.5302 -13.4391 -13.3269 -13.2795 -13.2260 -12.6774 -12.6047
   -12.4311 -12.2454 -11.9153 -11.8036 -11.6973 -11.6050 -11.4403 -11.2633
   -11.1759 -11.1697 -11.0022 -10.9347 -10.7832 -10.7452 -10.6784 -10.5013
   -10.3973 -10.3392 -10.3371 -10.1837  -9.8554  -9.8173  -9.4972  -9.4663
    -9.4277  -9.3888  -9.3588  -9.1946  -9.1343  -9.1207  -9.0909  -9.0605
    -8.9464  -8.9399  -8.8528  -8.7954  -8.5765  -8.5762  -8.5695  -8.4668
    -8.4498  -8.4351  -8.3647  -8.3018  -8.2442  -8.2116  -8.1869  -8.0004
    -7.9803  -7.9740  -7.8147  -7.7671  -7.7627  -7.7348  -7.7055  -7.6537
    -7.6478  -7.5886  -7.5579  -7.4880  -7.4398  -7.2853  -7.2614  -7.2321
    -7.0733  -6.9844  -6.9615  -6.8726  -6.8320  -6.7912  -6.7526  -6.6557
    -6.6072  -6.5172  -6.5045  -6.4175  -6.3374  -6.2808  -6.0365  -6.0167
    -6.0000  -5.9111  -5.7685  -5.7456  -5.7098  -5.6600  -5.3275  -5.2819
    -5.2792  -5.2694  -5.1975  -5.1420  -5.0248  -4.9095  -4.5870  -4.5408
    -4.4314  -4.4097  -4.3198  -4.2722  -4.0400  -3.9149  -3.8985  -3.8543
    -3.4065  -3.2557  -3.1388  -2.9288  -2.3595  -1.5213  -0.6830  -0.4994
    -0.2708  -0.2067   0.0134   0.1352   0.3096   0.3332   0.4185   0.5519
     0.5840   0.6250   0.6492   0.6614   1.2741   1.2901   1.3288   1.5642
     1.6192   1.6423   1.6600   1.6871   1.8941   1.9462   2.0692   2.1956
     2.2145   2.2241   2.2690   2.3213   2.5025   2.6514   2.6739   2.6746
     2.7038   2.7576   2.8111   2.8559   2.9392   2.9396   3.0543   3.0644
     3.1059   3.1645   3.1980   3.2183   3.2531   3.3293   3.3485   3.4251
     3.4608   3.5463   3.5744   3.6610   3.6911   3.7219   3.8537   3.8649
     3.8727   3.9208   4.0396   4.0868   4.1099   4.1266   4.1280   4.1481
     4.1679   4.2159   4.2469   4.2727   4.3485   4.3617   4.3649   4.3904
     4.3923   4.4187   4.4231   4.4638   4.4945   4.5113   4.5796   4.6210
     4.6888   4.6894   4.9191   4.9402   4.9808   4.9812   5.0535   5.0932
     5.0959   5.1234   5.1621   5.1718   5.2161   5.3116   5.3885   5.4268
     5.4432   5.4606   5.4652   5.4825   5.5135   5.5706   5.5808   5.6040
     5.6148   5.6674   5.6885   5.7563   5.7566   5.7721   5.8138   5.8367
     5.8756   5.9102   5.9490   5.9832   6.0019   6.0189   6.0438   6.0589
     6.0697   6.0766   6.1057   6.1075   6.1565   6.1597   6.1612   6.1957
     6.2310   6.3046   6.3614   6.3849   6.3863   6.3896   6.4585   6.5426
     6.5601   6.5988   6.6163   6.6271   6.6779   6.7170   6.7528   6.7611
     6.7675   6.7702   6.7931   6.8013   6.8220   6.8234   6.8716   6.8988
     6.8998   6.9092   6.9431   6.9451   6.9585   7.0006   7.0313   7.0687
     7.0825   7.0989   7.1548   7.1667   7.1737   7.1906   7.1915   7.1954
     7.1956   7.2943   7.3187   7.3356   7.3529   7.3887   7.3965   7.4214
     7.4472   7.4527   7.4587   7.5111   7.5173   7.5705   7.5710   7.5923
     7.6375   7.6504   7.6730   7.6847   7.6951   7.7314   7.7966   7.8793
     7.8893   7.8894   7.9213   7.9360   7.9511   7.9821   7.9943   8.0060
     8.0181   8.0701   8.0912   8.1799   8.1988   8.1990   8.2032   8.2764
     8.2832   8.3021   8.3094   8.3230   8.3556   8.3646   8.3792   8.3801
     8.4111   8.4353   8.4738   8.5431   8.5689   8.5878   8.6073   8.6269
     8.6744   8.7096   8.7145   8.7693   8.7719   8.8204   8.8501   8.8775
     8.8784   8.8852   8.9004   8.9088   8.9168   8.9211   8.9285   8.9363
     8.9383   8.9800   8.9885   9.0561   9.0785   9.0993   9.1123   9.1173
     9.1244   9.1673   9.1861   9.1965   9.2358   9.2558   9.2784   9.2844
     9.3000   9.3332   9.3412   9.4016   9.4470   9.4615   9.4681   9.4854
     9.4876   9.5610   9.5684   9.5933   9.6332   9.6567   9.6771   9.7059
     9.7190   9.7293   9.7355   9.7549   9.8005   9.8489   9.8790   9.8807
     9.8995   9.9073   9.9183   9.9405   9.9497   9.9679   9.9683   9.9913
    10.0019  10.0213  10.0688  10.0873  10.0905  10.2125  10.2697  10.2836
    10.2892  10.3008  10.3465  10.3560  10.3979  10.4028  10.4432  10.4480
    10.4609  10.4771  10.5324  10.5703  10.5729  10.6004  10.6303  10.6462
    10.6644  10.6645  10.6751  10.7024  10.7236  10.7281  10.7677  10.7756
    10.7852  10.8160  10.8204  10.8439  10.9285  10.9378  10.9494  10.9632
    10.9721  10.9881  11.0161  11.0171

     the Fermi energy is    -1.9689 ev

     Writing output data file AGNR_10_Defect_B.save/

     init_run     :     16.15s CPU     16.65s WALL (       1 calls)
     electrons    :  10153.75s CPU  10269.76s WALL (       1 calls)

     Called by init_run:
     wfcinit      :      0.00s CPU      0.00s WALL (       1 calls)
     potinit      :      0.98s CPU      1.08s WALL (       1 calls)
     hinit0       :     12.37s CPU     12.49s WALL (       1 calls)

     Called by electrons:
     c_bands      :  10153.74s CPU  10269.45s WALL (       1 calls)
     v_of_rho     :      0.76s CPU      0.82s WALL (       1 calls)
     newd         :      0.73s CPU      0.97s WALL (       1 calls)

     Called by c_bands:
     init_us_2    :      1.10s CPU      1.21s WALL (      26 calls)
     cegterg      :   9981.06s CPU  10084.29s WALL (     139 calls)

     Called by sum_band:

     Called by *egterg:
     h_psi        :   2715.09s CPU   2756.48s WALL (    2676 calls)
     s_psi        :    397.25s CPU    399.37s WALL (    2676 calls)
     g_psi        :     13.66s CPU     13.76s WALL (    2511 calls)
     cdiaghg      :   4197.01s CPU   4213.88s WALL (    2537 calls)

     Called by h_psi:
     h_psi:pot    :   2696.93s CPU   2731.14s WALL (    2676 calls)
     h_psi:calbec :    371.19s CPU    376.07s WALL (    2676 calls)
     vloc_psi     :   1927.50s CPU   1954.84s WALL (    2676 calls)
     add_vuspsi   :    398.20s CPU    400.17s WALL (    2676 calls)

     General routines
     calbec       :    371.17s CPU    376.01s WALL (    2676 calls)
     fft          :      0.84s CPU      0.91s WALL (      14 calls)
     ffts         :      0.01s CPU      0.01s WALL (       1 calls)
     fftw         :   1531.46s CPU   1553.46s WALL (  668006 calls)
     interpolate  :      0.05s CPU      0.05s WALL (       1 calls)
     davcio       :      0.00s CPU      7.11s WALL (      52 calls)

     Parallel routines
     fft_scatt_xy :    257.10s CPU    259.58s WALL (  668021 calls)
     fft_scatt_yz :    252.79s CPU    258.03s WALL (  668021 calls)

     PWSCF        :     2h49m CPU       49h 2m WALL

      57h

   This run was terminated on:  20: 0:25  16Apr2021            

=------------------------------------------------------------------------------=
   JOB DONE.
=------------------------------------------------------------------------------=
