
     Program PWSCF v.6.3 starts on 16Apr2021 at 14:37:47 

     This program is part of the open-source Quantum ESPRESSO suite
     for quantum simulation of materials; please cite
         "P. Giannozzi et al., J. Phys.:Condens. Matter 21 395502 (2009);
         "P. Giannozzi et al., J. Phys.:Condens. Matter 29 465901 (2017);
          URL http://www.quantum-espresso.org", 
     in publications or presentations arising from this work. More details at
     http://www.quantum-espresso.org/quote

     Parallel version (MPI), running on    16 processors
     R & G space division:  proc/nbgrp/npool/nimage =      16
     Waiting for input...
     Reading input from standard input
     Message from routine read_cards :
     DEPRECATED: no units specified in CELL_PARAMETERS card

     Current dimensions of program PWSCF are:
     Max number of different atomic species (ntypx) = 10
     Max number of k-points (npk) =  40000
     Max angular momentum in pseudopotentials (lmaxx) =  3

     Atomic positions and unit cell read from directory:
     /home/zfwang/scratch/GNRDATASET/AGNR/AGNR_10_Defect_C/AGNR_10_Defect_C.save/


     Subspace diagonalization in iterative solution of the eigenvalue problem:
     a serial algorithm will be used


     Parallelization info
     --------------------
     sticks:   dense  smooth     PW     G-vecs:    dense   smooth      PW
     Min        1795     598    154               268889    51736    6769
     Max        1797     599    155               268893    51739    6771
     Sum       28723    9573   2475              4302255   827793  108323



     bravais-lattice index     =            0
     lattice parameter (alat)  =       1.8897  a.u.
     unit-cell volume          =   24226.2045 (a.u.)^3
     number of atoms/cell      =           94
     number of atomic types    =            2
     number of electrons       =       328.00
     number of Kohn-Sham states=          500
     kinetic-energy cutoff     =      40.0000  Ry
     charge density cutoff     =     480.0000  Ry
     Exchange-correlation      = PBE ( 1  4  3  4 0 0)

     celldm(1)=  18.897261  celldm(2)=   2.106780  celldm(3)=   1.704000
     celldm(4)=   0.000000  celldm(5)=   0.000000  celldm(6)=   0.000000

     crystal axes: (cart. coord. in units of alat)
               a(1) = (  10.000000   0.000000   0.000000 )  
               a(2) = (   0.000000  21.067800   0.000000 )  
               a(3) = (   0.000000   0.000000  17.040000 )  

     reciprocal axes: (cart. coord. in units 2 pi/alat)
               b(1) = (  0.100000  0.000000  0.000000 )  
               b(2) = (  0.000000  0.047466  0.000000 )  
               b(3) = (  0.000000  0.000000  0.058685 )  


     PseudoPot. # 1 for C  read from file:
     /home/zfwang/hp_home/MySoftware/qe-6.3/pseudo/C.pbe-n-rrkjus_psl.0.1.UPF
     MD5 check sum: fff530ed632a789b3b184014e67dd7f1
     Pseudo is Ultrasoft + core correction, Zval =  4.0
     Generated using "atomic" code by A. Dal Corso v.5.0.2 svn rev. 9415
     Using radial grid of 1073 points,  4 beta functions with: 
                l(1) =   0
                l(2) =   0
                l(3) =   1
                l(4) =   1
     Q(r) pseudized with 0 coefficients 


     PseudoPot. # 2 for H  read from file:
     /home/zfwang/hp_home/MySoftware/qe-6.3/pseudo/H.pbe-rrkjus_psl.0.1.UPF
     MD5 check sum: e164a6907b691c6980f16942be34de84
     Pseudo is Ultrasoft, Zval =  1.0
     Generated using "atomic" code by A. Dal Corso v.5.0.2 svn rev. 9415
     Using radial grid of  929 points,  2 beta functions with: 
                l(1) =   0
                l(2) =   0
     Q(r) pseudized with 0 coefficients 


     atomic species   valence    mass     pseudopotential
        C              4.00    12.01070     C ( 1.00)
        H              1.00     1.00794     H ( 1.00)

     No symmetry found



   Cartesian axes

     site n.     atom                  positions (alat units)
         1           C   tau(   1) = (   5.0000011   5.0095302   2.8132849  )
         2           C   tau(   2) = (   5.0000005   5.0123332   7.0733361  )
         3           C   tau(   3) = (   4.9999989   5.0113349  11.3319932  )
         4           C   tau(   4) = (   4.9999991   5.0090573  15.5923200  )
         5           C   tau(   5) = (   5.0000010   6.2174156   3.5446374  )
         6           C   tau(   6) = (   4.9999999   6.2205802   7.8044902  )
         7           C   tau(   7) = (   4.9999989   6.2185379  12.0642227  )
         8           C   tau(   8) = (   4.9999992   6.2160259  16.3247355  )
         9           C   tau(   9) = (   5.0000005   5.0090573   1.4476805  )
        10           C   tau(  10) = (   5.0000013   5.0113353   5.7080074  )
        11           C   tau(  11) = (   4.9999993   5.0123333   9.9666646  )
        12           C   tau(  12) = (   4.9999990   5.0095298  14.2267155  )
        13           C   tau(  13) = (   5.0000005   7.4466630   2.8408262  )
        14           C   tau(  14) = (   5.0000002   7.4501827   7.1014201  )
        15           C   tau(  15) = (   4.9999992   7.4484231  11.3616376  )
        16           C   tau(  16) = (   4.9999994   7.4464093  15.6216169  )
        17           C   tau(  17) = (   5.0000003   8.6857184   3.5516073  )
        18           C   tau(  18) = (   4.9999997   8.6891703   7.8129621  )
        19           C   tau(  19) = (   4.9999997   8.6860395  12.0739052  )
        20           C   tau(  20) = (   4.9999999   8.6844256  16.3332597  )
        21           C   tau(  21) = (   4.9999999   6.2160263   0.7152648  )
        22           C   tau(  22) = (   5.0000012   6.2185387   4.9757782  )
        23           C   tau(  23) = (   4.9999994   6.2205802   9.2355104  )
        24           C   tau(  24) = (   4.9999989   6.2174149  13.4953632  )
        25           C   tau(  25) = (   5.0000001   7.4464095   1.4183839  )
        26           C   tau(  26) = (   5.0000007   7.4484236   5.6783630  )
        27           C   tau(  27) = (   4.9999993   7.4501825   9.9385804  )
        28           C   tau(  28) = (   4.9999992   7.4466625  14.1991743  )
        29           C   tau(  29) = (   5.0000000   9.9171742   2.8397755  )
        30           C   tau(  30) = (   4.9999997   9.9223844   7.1022080  )
        31           C   tau(  31) = (   5.0000000   9.9185194  11.3644169  )
        32           C   tau(  32) = (   5.0000003   9.9178010  15.6229637  )
        33           C   tau(  33) = (   4.9999997  11.1482160   3.5464009  )
        34           C   tau(  34) = (   4.9999997  11.1512192   7.8083363  )
        35           C   tau(  35) = (   5.0000008  11.1444380  12.0731101  )
        36           C   tau(  36) = (   5.0000005  11.1485109  16.3298417  )
        37           C   tau(  37) = (   4.9999999   8.6844255   0.7067412  )
        38           C   tau(  38) = (   5.0000003   8.6860400   4.9660955  )
        39           C   tau(  39) = (   4.9999993   8.6891702   9.2270382  )
        40           C   tau(  40) = (   4.9999998   8.6857182  13.4883937  )
        41           C   tau(  41) = (   5.0000001   9.9178010   1.4170375  )
        42           C   tau(  42) = (   4.9999999   9.9185198   5.6755837  )
        43           C   tau(  43) = (   4.9999997   9.9223844   9.9377926  )
        44           C   tau(  44) = (   5.0000005   9.9171741  14.2002257  )
        45           C   tau(  45) = (   4.9999996  12.3825003   2.8329500  )
        46           C   tau(  46) = (   4.9999995  12.3871654   7.0952214  )
        47           C   tau(  47) = (   5.0000009  12.3810562  11.3614865  )
        48           C   tau(  48) = (   5.0000011  12.3843233  15.6198439  )
        49           C   tau(  49) = (   4.9999993  13.6188802   3.5437631  )
        50           C   tau(  50) = (   4.9999997  13.6303543   7.7950771  )
        51           C   tau(  51) = (   5.0000010  13.6066692  12.0763785  )
        52           C   tau(  52) = (   5.0000008  13.6240787  16.3274652  )
        53           C   tau(  53) = (   5.0000003  11.1485109   0.7101601  )
        54           C   tau(  54) = (   4.9999997  11.1444385   4.9668909  )
        55           C   tau(  55) = (   5.0000001  11.1512192   9.2316638  )
        56           C   tau(  56) = (   5.0000011  11.1482158  13.4936008  )
        57           C   tau(  57) = (   5.0000001  12.3843232   1.4201581  )
        58           C   tau(  58) = (   4.9999994  12.3810564   5.6785143  )
        59           C   tau(  59) = (   5.0000007  12.3871654   9.9447789  )
        60           C   tau(  60) = (   5.0000016  12.3825003  14.2070519  )
        61           C   tau(  61) = (   4.9999995  14.8561238   2.8495894  )
        62           C   tau(  62) = (   4.9999998  14.8165885   7.0741450  )
        63           C   tau(  63) = (   5.0000005  14.8359468  11.3612639  )
        64           C   tau(  64) = (   5.0000007  14.8558229  15.6186646  )
        65           C   tau(  65) = (   4.9999993  16.0677622   3.5965982  )
        66           C   tau(  66) = (   5.0000005  16.0601285  12.0799920  )
        67           C   tau(  67) = (   5.0000001  16.0640099  16.3578333  )
        68           C   tau(  68) = (   5.0000004  13.6240786   0.7125364  )
        69           C   tau(  69) = (   4.9999994  13.6066692   4.9636230  )
        70           C   tau(  70) = (   5.0000003  13.6303543   9.2449229  )
        71           C   tau(  71) = (   5.0000014  13.6188802  13.4962387  )
        72           C   tau(  72) = (   5.0000000  14.8558226   1.4213370  )
        73           C   tau(  73) = (   4.9999995  14.8359466   5.6787376  )
        74           C   tau(  74) = (   5.0000001  14.8165887   9.9658559  )
        75           C   tau(  75) = (   5.0000010  14.8561240  14.1904120  )
        76           C   tau(  76) = (   4.9999999  16.0640095   0.6821676  )
        77           C   tau(  77) = (   4.9999993  16.0601274   4.9600097  )
        78           C   tau(  78) = (   5.0000007  16.0677634  13.4434036  )
        79           H   tau(  79) = (   5.0000020   4.0535401   3.3302322  )
        80           H   tau(  80) = (   5.0000004   4.0565444   7.5905183  )
        81           H   tau(  81) = (   4.9999985   4.0551058  11.8484679  )
        82           H   tau(  82) = (   4.9999993   4.0528879  16.1088653  )
        83           H   tau(  83) = (   5.0000003   4.0528874   0.9311352  )
        84           H   tau(  84) = (   5.0000018   4.0551065   5.1915330  )
        85           H   tau(  85) = (   4.9999991   4.0565448   9.4494823  )
        86           H   tau(  86) = (   4.9999991   4.0535398  13.7097678  )
        87           H   tau(  87) = (   4.9999990  17.0244671   3.0799556  )
        88           H   tau(  88) = (   4.9999999  16.9966012  11.5207614  )
        89           H   tau(  89) = (   5.0000001  17.0204257  15.8412371  )
        90           H   tau(  90) = (   4.9999997  17.0204250   1.1987643  )
        91           H   tau(  91) = (   4.9999992  16.9966000   5.5192394  )
        92           H   tau(  92) = (   5.0000005  17.0244681  13.9600471  )
        93           H   tau(  93) = (   5.0000002  15.7785775   7.5829603  )
        94           H   tau(  94) = (   4.9999992  15.7785783   9.4570418  )

     number of k points=    26  Marzari-Vanderbilt smearing, width (Ry)=  0.0100
                       cart. coord. in units 2pi/alat
        k(    1) = (   0.0000000   0.0000000   0.0000000), wk =   0.0400000
        k(    2) = (   0.0000000   0.0000000   0.0011737), wk =   0.0800000
        k(    3) = (   0.0000000   0.0000000   0.0023474), wk =   0.0800000
        k(    4) = (   0.0000000   0.0000000   0.0035211), wk =   0.0800000
        k(    5) = (   0.0000000   0.0000000   0.0046948), wk =   0.0800000
        k(    6) = (   0.0000000   0.0000000   0.0058685), wk =   0.0800000
        k(    7) = (   0.0000000   0.0000000   0.0070423), wk =   0.0800000
        k(    8) = (   0.0000000   0.0000000   0.0082160), wk =   0.0800000
        k(    9) = (   0.0000000   0.0000000   0.0093897), wk =   0.0800000
        k(   10) = (   0.0000000   0.0000000   0.0105634), wk =   0.0800000
        k(   11) = (   0.0000000   0.0000000   0.0117371), wk =   0.0800000
        k(   12) = (   0.0000000   0.0000000   0.0129108), wk =   0.0800000
        k(   13) = (   0.0000000   0.0000000   0.0140845), wk =   0.0800000
        k(   14) = (   0.0000000   0.0000000   0.0152582), wk =   0.0800000
        k(   15) = (   0.0000000   0.0000000   0.0164319), wk =   0.0800000
        k(   16) = (   0.0000000   0.0000000   0.0176056), wk =   0.0800000
        k(   17) = (   0.0000000   0.0000000   0.0187793), wk =   0.0800000
        k(   18) = (   0.0000000   0.0000000   0.0199531), wk =   0.0800000
        k(   19) = (   0.0000000   0.0000000   0.0211268), wk =   0.0800000
        k(   20) = (   0.0000000   0.0000000   0.0223005), wk =   0.0800000
        k(   21) = (   0.0000000   0.0000000   0.0234742), wk =   0.0800000
        k(   22) = (   0.0000000   0.0000000   0.0246479), wk =   0.0800000
        k(   23) = (   0.0000000   0.0000000   0.0258216), wk =   0.0800000
        k(   24) = (   0.0000000   0.0000000   0.0269953), wk =   0.0800000
        k(   25) = (   0.0000000   0.0000000   0.0281690), wk =   0.0800000
        k(   26) = (   0.0000000   0.0000000  -0.0293427), wk =   0.0400000

     Dense  grid:  4302255 G-vectors     FFT dimensions: ( 135, 288, 225)

     Smooth grid:   827793 G-vectors     FFT dimensions: (  80, 162, 135)

     Estimated max dynamical RAM per process >     978.87 MB

     Estimated total dynamical RAM >      15.29 GB

     The potential is recalculated from file :
     /home/zfwang/scratch/GNRDATASET/AGNR/AGNR_10_Defect_C/AGNR_10_Defect_C.save/charge-density.dat


     negative rho (up, down):  1.380E-04 0.000E+00
     Starting wfcs are  328 randomized atomic wfcs +  172 random wfcs

     Band Structure Calculation
     Davidson diagonalization with overlap
     c_bands:  3 eigenvalues not converged
     c_bands:  2 eigenvalues not converged
     c_bands:  1 eigenvalues not converged
     c_bands:  2 eigenvalues not converged
     c_bands:  2 eigenvalues not converged
     c_bands:  1 eigenvalues not converged
     c_bands:  1 eigenvalues not converged
     c_bands:  1 eigenvalues not converged

     ethr =  3.05E-09,  avg # of iterations =103.3

     total cpu time spent up to now is    10641.2 secs

     End of band structure calculation

          k = 0.0000 0.0000 0.0000 (103407 PWs)   bands (ev):

   -21.1065 -20.7514 -20.7271 -20.6210 -20.2878 -20.2241 -19.8744 -19.6503
   -19.6377 -19.5551 -19.4497 -19.2075 -19.1165 -18.8327 -18.5516 -18.5135
   -18.4618 -18.1802 -17.8467 -17.8441 -17.6308 -17.5024 -17.5012 -17.4449
   -17.2918 -17.2287 -16.9556 -16.7018 -16.6230 -16.3738 -16.3513 -16.1663
   -16.0591 -15.9364 -15.8648 -15.8009 -15.4025 -15.1271 -14.8624 -14.7463
   -14.5014 -14.4551 -14.3152 -14.2910 -14.1297 -14.0460 -14.0219 -13.9474
   -13.6235 -13.0432 -12.8929 -12.8304 -12.7561 -12.7481 -12.7250 -12.3643
   -12.3439 -12.3082 -12.1679 -12.0106 -11.9769 -11.8721 -11.3803 -11.3725
   -11.3107 -11.3095 -10.9297 -10.7940 -10.6870 -10.5939 -10.5458 -10.3787
   -10.3458 -10.1284 -10.0655  -9.9001  -9.8171  -9.6529  -9.6013  -9.5048
    -9.4504  -9.4051  -9.2985  -9.2285  -9.2074  -9.1828  -9.0220  -8.8714
    -8.7550  -8.7338  -8.7216  -8.6263  -8.4991  -8.4712  -8.4673  -8.4237
    -8.3766  -8.3364  -8.2862  -8.2513  -8.2378  -8.2255  -8.1945  -8.1616
    -8.1097  -8.0696  -8.0022  -7.9776  -7.8054  -7.7746  -7.7374  -7.7308
    -7.6271  -7.5703  -7.4560  -7.4529  -7.3994  -7.2808  -7.1948  -7.0899
    -7.0362  -6.9996  -6.9432  -6.9415  -6.9235  -6.8848  -6.6849  -6.6585
    -6.6155  -6.3851  -6.3310  -6.2996  -6.2304  -6.1368  -6.0548  -6.0547
    -5.9027  -5.8883  -5.8382  -5.7262  -5.7147  -5.4606  -5.4550  -5.2941
    -5.1514  -5.1445  -5.0808  -5.0754  -5.0403  -4.9248  -4.8809  -4.6502
    -4.3325  -4.2807  -4.1588  -4.0525  -3.8706  -3.8697  -3.8428  -3.6462
    -3.5183  -3.2466  -2.4831  -2.3205  -1.2184  -1.0247  -0.4558  -0.2087
    -0.1029  -0.0799   0.0573   0.1350   0.1907   0.3366   0.6182   0.6415
     0.9378   1.1845   1.2288   1.3739   1.3814   1.4948   1.5471   1.5489
     1.5611   1.6702   1.6874   1.9426   1.9572   1.9665   1.9953   2.0089
     2.0494   2.0539   2.1114   2.5638   2.5969   2.6043   2.6189   2.6371
     2.7734   2.8840   2.9818   3.0049   3.0315   3.0704   3.0881   3.1237
     3.1595   3.2065   3.2486   3.2907   3.2997   3.3522   3.4589   3.4765
     3.4809   3.4914   3.5679   3.5700   3.6064   3.7141   3.7250   3.8218
     3.8542   3.8744   3.9783   3.9785   4.0941   4.1052   4.1954   4.2350
     4.2926   4.3158   4.3631   4.4803   4.4834   4.5111   4.5446   4.5601
     4.6092   4.6223   4.6237   4.7132   4.7540   4.7888   4.8037   4.8235
     4.8616   4.8620   4.9274   4.9301   4.9712   4.9995   5.0606   5.0951
     5.1260   5.1457   5.1594   5.1887   5.2105   5.2695   5.2788   5.3500
     5.3531   5.3762   5.3791   5.3896   5.3958   5.4825   5.4904   5.5343
     5.6481   5.6759   5.7694   5.8440   5.8945   5.9287   5.9498   5.9838
     6.0144   6.0292   6.0364   6.0453   6.0577   6.0626   6.0799   6.0816
     6.0899   6.1204   6.2559   6.2724   6.2725   6.2808   6.3147   6.3263
     6.3279   6.3378   6.3786   6.4260   6.4407   6.4611   6.4892   6.4954
     6.5578   6.5620   6.5873   6.5976   6.6182   6.6290   6.6352   6.6749
     6.7312   6.7368   6.7447   6.8231   6.8414   6.8489   6.8691   6.8803
     6.9685   6.9885   6.9919   6.9994   7.0101   7.0307   7.0614   7.0952
     7.1117   7.1584   7.1780   7.1864   7.1877   7.2933   7.3110   7.3194
     7.3294   7.3435   7.3542   7.3545   7.3738   7.3858   7.3976   7.4165
     7.4185   7.4489   7.4496   7.5791   7.6167   7.6205   7.6769   7.6884
     7.6953   7.7325   7.7362   7.7453   7.7677   7.7778   7.7979   7.8061
     7.8151   7.8186   7.8626   7.8687   7.8795   7.9057   7.9674   8.0190
     8.0212   8.0468   8.0646   8.0874   8.1110   8.1354   8.1369   8.3060
     8.3164   8.3533   8.3800   8.3823   8.4093   8.4335   8.4695   8.4830
     8.5393   8.5407   8.5696   8.6037   8.6271   8.6299   8.6423   8.6452
     8.6483   8.6817   8.7010   8.7250   8.7403   8.7779   8.8034   8.8285
     8.8292   8.8326   8.8651   8.8774   8.9272   8.9522   8.9562   9.0603
     9.0676   9.0918   9.1174   9.1300   9.1694   9.2242   9.2272   9.2529
     9.2687   9.2805   9.2885   9.2926   9.3312   9.3492   9.3522   9.3727
     9.3857   9.3884   9.4200   9.4205   9.4670   9.4828   9.4893   9.5137
     9.5185   9.5387   9.5740   9.5821   9.5911   9.6003   9.6047   9.6230
     9.6336   9.6723   9.7590   9.7711   9.8432   9.8755   9.9009   9.9038
     9.9321   9.9390   9.9439   9.9766  10.0028  10.0191  10.0198  10.0425
    10.0701  10.0724  10.0747  10.0821  10.0869  10.1047  10.1096  10.2019
    10.2091  10.2173  10.2472  10.3010  10.3479  10.3674  10.5565  10.5614
    10.5814  10.6007  10.6124  10.7117  10.7142  10.7233  10.7416  10.7653
    10.7715  10.7788  10.8113  10.8167  10.8323  10.8368  10.8385  10.8446
    10.8481  10.8635  10.8803  10.9109  10.9111  10.9268  10.9641  10.9862
    11.0037  11.0272  11.0445  11.0935

          k = 0.0000 0.0000 0.0012 (103433 PWs)   bands (ev):

   -21.1063 -20.7580 -20.7202 -20.6208 -20.2907 -20.2210 -19.8743 -19.6725
   -19.6157 -19.5563 -19.4480 -19.2142 -19.1095 -18.8326 -18.5552 -18.5152
   -18.4575 -18.1787 -17.8866 -17.8039 -17.6311 -17.5243 -17.4875 -17.4416
   -17.2923 -17.2230 -16.9562 -16.7116 -16.6120 -16.3798 -16.3459 -16.1658
   -16.0592 -15.9428 -15.8639 -15.7984 -15.4055 -15.1267 -14.8593 -14.7502
   -14.5003 -14.4534 -14.3161 -14.2870 -14.1305 -14.0518 -14.0149 -13.9464
   -13.6241 -13.0434 -12.8981 -12.8257 -12.7751 -12.7379 -12.7162 -12.4120
   -12.3351 -12.2806 -12.1613 -12.0096 -11.9733 -11.8708 -11.3876 -11.3661
   -11.3332 -11.2871 -10.9287 -10.7953 -10.6972 -10.5811 -10.5482 -10.3868
   -10.3371 -10.1382 -10.0557  -9.9066  -9.8122  -9.6537  -9.5985  -9.5048
    -9.4592  -9.4007  -9.2943  -9.2727  -9.1826  -9.1618  -9.0228  -8.8709
    -8.7644  -8.7241  -8.7223  -8.6261  -8.5025  -8.4856  -8.4616  -8.4305
    -8.3673  -8.3438  -8.2732  -8.2574  -8.2317  -8.2295  -8.1952  -8.1573
    -8.1101  -8.0722  -7.9987  -7.9765  -7.8044  -7.7745  -7.7501  -7.7167
    -7.6272  -7.5699  -7.4871  -7.4222  -7.4010  -7.2784  -7.1964  -7.0896
    -7.0420  -6.9933  -6.9566  -6.9461  -6.9193  -6.8712  -6.7004  -6.6428
    -6.6153  -6.3950  -6.3218  -6.3019  -6.2321  -6.1347  -6.0893  -6.0208
    -5.9002  -5.8885  -5.8393  -5.7413  -5.6986  -5.5013  -5.4144  -5.2946
    -5.1704  -5.1257  -5.0812  -5.0780  -5.0406  -4.9413  -4.8614  -4.6495
    -4.3376  -4.2823  -4.1576  -4.0471  -3.8716  -3.8698  -3.8425  -3.6520
    -3.5127  -3.2475  -2.4838  -2.3226  -1.2163  -1.0242  -0.4548  -0.2114
    -0.1039  -0.0748   0.0571   0.1335   0.1927   0.3367   0.5916   0.6672
     0.9367   1.1847   1.2297   1.3506   1.4047   1.4950   1.5042   1.5473
     1.6071   1.6577   1.7002   1.9005   1.9513   1.9686   2.0145   2.0328
     2.0352   2.0710   2.1121   2.5597   2.5883   2.5963   2.6330   2.6423
     2.7749   2.8836   2.9649   3.0059   3.0478   3.0619   3.0794   3.1299
     3.1708   3.2065   3.2451   3.2743   3.3169   3.3518   3.4556   3.4721
     3.4733   3.5028   3.5368   3.6075   3.6100   3.6990   3.7406   3.8130
     3.8634   3.8737   3.9762   3.9785   4.0694   4.1324   4.1835   4.2307
     4.2929   4.3318   4.3620   4.4742   4.4792   4.5163   4.5508   4.5553
     4.5893   4.6110   4.6530   4.7153   4.7548   4.7773   4.8148   4.8230
     4.8585   4.8632   4.9211   4.9253   4.9633   5.0122   5.0698   5.0875
     5.1150   5.1508   5.1637   5.1904   5.2015   5.2644   5.2785   5.3288
     5.3592   5.3752   5.3872   5.4033   5.4122   5.4847   5.4912   5.5357
     5.6510   5.6767   5.7693   5.8426   5.8874   5.9298   5.9438   5.9746
     5.9887   6.0105   6.0447   6.0507   6.0587   6.0717   6.0845   6.0972
     6.1053   6.1249   6.2363   6.2406   6.2907   6.2970   6.3083   6.3245
     6.3372   6.3445   6.3824   6.4221   6.4454   6.4579   6.4714   6.5097
     6.5458   6.5686   6.5738   6.5927   6.6258   6.6369   6.6585   6.6763
     6.7261   6.7338   6.7485   6.8219   6.8415   6.8434   6.8790   6.8820
     6.9503   6.9772   6.9982   7.0043   7.0204   7.0343   7.0578   7.0927
     7.1101   7.1482   7.1715   7.1729   7.2187   7.3000   7.3051   7.3090
     7.3281   7.3371   7.3513   7.3538   7.3617   7.3859   7.4148   7.4163
     7.4224   7.4536   7.4605   7.5563   7.6217   7.6340   7.6444   7.6907
     7.7138   7.7262   7.7355   7.7492   7.7588   7.7769   7.8047   7.8052
     7.8163   7.8323   7.8633   7.8682   7.8935   7.9065   7.9626   8.0010
     8.0208   8.0489   8.0754   8.0894   8.1200   8.1363   8.1406   8.3017
     8.3095   8.3540   8.3608   8.3807   8.4206   8.4279   8.4783   8.4845
     8.5180   8.5635   8.5717   8.5954   8.6119   8.6326   8.6362   8.6532
     8.6693   8.6920   8.6988   8.7234   8.7339   8.7620   8.7837   8.8064
     8.8308   8.8601   8.8776   8.8960   8.9270   8.9448   8.9565   9.0678
     9.0702   9.0922   9.1185   9.1291   9.1721   9.2033   9.2236   9.2492
     9.2695   9.2859   9.2867   9.2951   9.3232   9.3472   9.3481   9.3660
     9.3847   9.3867   9.4157   9.4284   9.4582   9.4829   9.4918   9.5191
     9.5275   9.5373   9.5839   9.5852   9.5959   9.5996   9.6095   9.6324
     9.6331   9.6691   9.7616   9.7623   9.8421   9.8651   9.8952   9.9032
     9.9109   9.9449   9.9661   9.9709  10.0021  10.0187  10.0351  10.0443
    10.0584  10.0678  10.0768  10.0806  10.0924  10.1078  10.1102  10.2130
    10.2130  10.2197  10.2464  10.3003  10.3415  10.3706  10.5397  10.5599
    10.5837  10.6103  10.6105  10.7035  10.7165  10.7222  10.7307  10.7564
    10.7719  10.7790  10.7962  10.8146  10.8326  10.8339  10.8478  10.8484
    10.8627  10.8705  10.8858  10.9072  10.9182  10.9287  10.9628  10.9870
    10.9970  11.0236  11.0517  11.0883

          k = 0.0000 0.0000 0.0023 (103431 PWs)   bands (ev):

   -21.1059 -20.7701 -20.7074 -20.6202 -20.2980 -20.2128 -19.8741 -19.6998
   -19.5900 -19.5584 -19.4432 -19.2302 -19.0925 -18.8321 -18.5650 -18.5188
   -18.4469 -18.1744 -17.9275 -17.7623 -17.6320 -17.5505 -17.4870 -17.4299
   -17.2930 -17.2075 -16.9582 -16.7320 -16.5877 -16.3912 -16.3360 -16.1641
   -16.0595 -15.9589 -15.8656 -15.7897 -15.4143 -15.1257 -14.8503 -14.7615
   -14.4977 -14.4477 -14.3178 -14.2766 -14.1333 -14.0605 -14.0025 -13.9432
   -13.6259 -13.0441 -12.9102 -12.8158 -12.7990 -12.7340 -12.6956 -12.4714
   -12.3615 -12.2234 -12.1472 -12.0065 -11.9620 -11.8668 -11.3987 -11.3612
   -11.3529 -11.2645 -10.9256 -10.8003 -10.7166 -10.5560 -10.5519 -10.4014
   -10.3210 -10.1585 -10.0354  -9.9227  -9.8009  -9.6551  -9.5912  -9.5064
    -9.4770  -9.3930  -9.3308  -9.2751  -9.1821  -9.1079  -9.0253  -8.8693
    -8.7798  -8.7243  -8.7081  -8.6253  -8.5187  -8.4954  -8.4798  -8.4269
    -8.3782  -8.3276  -8.2691  -8.2497  -8.2394  -8.2211  -8.1963  -8.1465
    -8.1110  -8.0784  -7.9899  -7.9732  -7.8016  -7.7741  -7.7637  -7.6986
    -7.6275  -7.5688  -7.5196  -7.4084  -7.3876  -7.2716  -7.2010  -7.0892
    -7.0536  -6.9822  -6.9816  -6.9537  -6.9115  -6.8448  -6.7239  -6.6187
    -6.6147  -6.4154  -6.3087  -6.3033  -6.2366  -6.1288  -6.1242  -5.9877
    -5.8930  -5.8891  -5.8427  -5.7595  -5.6773  -5.5446  -5.3712  -5.2963
    -5.1924  -5.1054  -5.0857  -5.0824  -5.0416  -4.9649  -4.8281  -4.6471
    -4.3524  -4.2860  -4.1545  -4.0322  -3.8746  -3.8703  -3.8417  -3.6672
    -3.4982  -3.2502  -2.4856  -2.3286  -1.2104  -1.0228  -0.4517  -0.2190
    -0.1041  -0.0627   0.0565   0.1299   0.1982   0.3367   0.5555   0.7002
     0.9338   1.1852   1.2316   1.3251   1.4250   1.4617   1.4956   1.5479
     1.6397   1.6593   1.7193   1.8413   1.9382   1.9678   2.0112   2.0312
     2.0892   2.0947   2.1150   2.5491   2.5653   2.5957   2.6502   2.6550
     2.7792   2.8822   2.9358   3.0074   3.0428   3.0612   3.0768   3.1448
     3.1940   3.2062   3.2353   3.2553   3.3382   3.3512   3.4402   3.4645
     3.4744   3.4871   3.5422   3.6198   3.6472   3.6802   3.7609   3.7970
     3.8716   3.8806   3.9678   3.9792   4.0453   4.1530   4.1651   4.2275
     4.2941   4.3591   4.3651   4.4601   4.4705   4.5267   4.5420   4.5565
     4.5658   4.6144   4.6691   4.7285   4.7560   4.7605   4.8206   4.8318
     4.8493   4.8672   4.8987   4.9150   4.9597   5.0339   5.0700   5.0906
     5.1001   5.1421   5.1695   5.1740   5.2110   5.2531   5.2733   5.3098
     5.3529   5.3877   5.4023   5.4247   5.4443   5.4949   5.4952   5.5399
     5.6584   5.6796   5.7691   5.8387   5.8696   5.9162   5.9268   5.9470
     5.9788   5.9948   6.0264   6.0441   6.0775   6.0906   6.0943   6.1206
     6.1217   6.1551   6.2065   6.2141   6.2788   6.2830   6.3236   6.3402
     6.3446   6.3684   6.3864   6.4155   6.4374   6.4539   6.4719   6.5098
     6.5372   6.5469   6.5729   6.5949   6.6405   6.6637   6.6806   6.6933
     6.7131   6.7306   6.7548   6.8165   6.8352   6.8483   6.8780   6.8975
     6.9251   6.9693   6.9939   7.0044   7.0266   7.0401   7.0645   7.0849
     7.0965   7.1405   7.1584   7.1784   7.2451   7.2879   7.2957   7.2964
     7.3181   7.3268   7.3382   7.3564   7.3667   7.3923   7.4139   7.4309
     7.4352   7.4655   7.4849   7.5207   7.5986   7.6243   7.6490   7.7011
     7.7030   7.7120   7.7412   7.7567   7.7645   7.7778   7.7869   7.8202
     7.8312   7.8634   7.8670   7.8714   7.9086   7.9189   7.9528   7.9697
     8.0238   8.0505   8.0855   8.0953   8.1357   8.1461   8.1529   8.2816
     8.3085   8.3136   8.3675   8.3784   8.4166   8.4177   8.4770   8.5050
     8.5114   8.5674   8.5788   8.5844   8.5925   8.6350   8.6526   8.6712
     8.6822   8.6922   8.7076   8.7174   8.7208   8.7357   8.7536   8.8009
     8.8310   8.8651   8.9029   8.9125   8.9431   8.9492   8.9575   9.0684
     9.0738   9.1090   9.1216   9.1258   9.1701   9.1770   9.2143   9.2396
     9.2465   9.2730   9.2871   9.3127   9.3228   9.3263   9.3383   9.3455
     9.3810   9.3883   9.4145   9.4438   9.4505   9.4898   9.5001   9.5259
     9.5381   9.5440   9.5745   9.5906   9.6056   9.6168   9.6193   9.6274
     9.6636   9.6709   9.7418   9.7701   9.8365   9.8394   9.8732   9.9016
     9.9043   9.9472   9.9641   9.9916  10.0001  10.0197  10.0378  10.0397
    10.0570  10.0634  10.0643  10.0872  10.1102  10.1176  10.1249  10.2023
    10.2386  10.2437  10.2447  10.2978  10.3229  10.3792  10.5098  10.5548
    10.5814  10.6046  10.6270  10.6923  10.6987  10.7184  10.7225  10.7429
    10.7693  10.7750  10.7811  10.7922  10.8247  10.8499  10.8514  10.8602
    10.8763  10.8915  10.9058  10.9110  10.9289  10.9318  10.9613  10.9820
    10.9903  11.0158  11.0651  11.0786

          k = 0.0000 0.0000 0.0035 (103427 PWs)   bands (ev):

   -21.1052 -20.7831 -20.6932 -20.6193 -20.3078 -20.2016 -19.8738 -19.7271
   -19.5763 -19.5504 -19.4361 -19.2501 -19.0708 -18.8314 -18.5790 -18.5231
   -18.4331 -18.1674 -17.9681 -17.7204 -17.6338 -17.5786 -17.4964 -17.4134
   -17.2926 -17.1850 -16.9620 -16.7540 -16.5590 -16.4039 -16.3257 -16.1612
   -16.0601 -15.9795 -15.8744 -15.7749 -15.4284 -15.1243 -14.8360 -14.7788
   -14.4948 -14.4376 -14.3192 -14.2614 -14.1388 -14.0660 -13.9910 -13.9369
   -13.6288 -13.0455 -12.9246 -12.8259 -12.8037 -12.7299 -12.6730 -12.5315
   -12.3989 -12.1652 -12.1323 -12.0017 -11.9427 -11.8600 -11.4112 -11.3812
   -11.3479 -11.2425 -10.9205 -10.8117 -10.7328 -10.5673 -10.5178 -10.4167
   -10.3036 -10.1811 -10.0129  -9.9437  -9.7879  -9.6557  -9.5814  -9.5173
    -9.4896  -9.3878  -9.3811  -9.2531  -9.1812  -9.0554  -9.0290  -8.8666
    -8.7957  -8.7278  -8.6911  -8.6239  -8.5419  -8.5194  -8.4876  -8.4370
    -8.3807  -8.3070  -8.2773  -8.2519  -8.2304  -8.2137  -8.1915  -8.1323
    -8.1120  -8.0851  -7.9783  -7.9679  -7.7970  -7.7751  -7.7735  -7.6797
    -7.6278  -7.5670  -7.5519  -7.4161  -7.3556  -7.2613  -7.2083  -7.0892
    -7.0654  -7.0103  -6.9782  -6.9525  -6.9034  -6.8155  -6.7478  -6.6135
    -6.5939  -6.4392  -6.3193  -6.2827  -6.2433  -6.1592  -6.1201  -5.9561
    -5.8906  -5.8813  -5.8481  -5.7755  -5.6556  -5.5878  -5.3289  -5.2987
    -5.2138  -5.1054  -5.0845  -5.0812  -5.0431  -4.9829  -4.7926  -4.6429
    -4.3748  -4.2908  -4.1502  -4.0104  -3.8796  -3.8708  -3.8404  -3.6876
    -3.4788  -3.2546  -2.4887  -2.3386  -1.2006  -1.0203  -0.4467  -0.2302
    -0.1012  -0.0474   0.0554   0.1252   0.2057   0.3368   0.5187   0.7313
     0.9301   1.1862   1.2320   1.3021   1.3979   1.4690   1.4965   1.5488
     1.6216   1.7117   1.7392   1.7808   1.9228   1.9661   1.9930   2.0476
     2.1024   2.1238   2.1561   2.5351   2.5408   2.5960   2.6652   2.6710
     2.7856   2.8795   2.9056   3.0096   3.0194   3.0420   3.1072   3.1627
     3.2047   3.2195   3.2205   3.2388   3.3508   3.3599   3.4236   3.4454
     3.4524   3.4940   3.5663   3.6328   3.6630   3.6877   3.7797   3.7818
     3.8681   3.8995   3.9511   3.9801   4.0300   4.1149   4.1969   4.2269
     4.2966   4.3548   4.4031   4.4431   4.4596   4.5217   4.5247   4.5440
     4.5829   4.6181   4.6673   4.7428   4.7536   4.7570   4.8191   4.8392
     4.8466   4.8695   4.8727   4.8982   4.9667   5.0449   5.0604   5.0799
     5.1078   5.1328   5.1473   5.1675   5.2387   5.2404   5.2613   5.3018
     5.3445   5.4128   5.4162   5.4473   5.4640   5.5052   5.5252   5.5467
     5.6668   5.6861   5.7685   5.8321   5.8412   5.8769   5.9028   5.9475
     5.9559   5.9966   6.0084   6.0420   6.0788   6.1035   6.1121   6.1328
     6.1354   6.1772   6.1984   6.2055   6.2576   6.2602   6.3275   6.3465
     6.3707   6.3761   6.3968   6.4124   6.4349   6.4593   6.4709   6.4991
     6.5133   6.5544   6.5762   6.5976   6.6538   6.6825   6.6906   6.7086
     6.7287   6.7338   6.7608   6.8088   6.8313   6.8527   6.8662   6.8976
     6.9306   6.9581   6.9846   7.0017   7.0261   7.0291   7.0694   7.0727
     7.0978   7.1452   7.1477   7.1892   7.2484   7.2602   7.2646   7.2851
     7.3106   7.3233   7.3531   7.3576   7.3744   7.4038   7.4143   7.4421
     7.4443   7.4821   7.4869   7.5126   7.5538   7.6251   7.6401   7.6746
     7.6966   7.7398   7.7463   7.7498   7.7637   7.7748   7.8108   7.8266
     7.8490   7.8720   7.8729   7.9019   7.9113   7.9278   7.9462   7.9634
     8.0259   8.0527   8.0915   8.1045   8.1338   8.1686   8.1797   8.2593
     8.2713   8.3088   8.3549   8.3883   8.3985   8.4049   8.4671   8.5109
     8.5337   8.5598   8.5630   8.5690   8.6117   8.6417   8.6616   8.6809
     8.6843   8.6890   8.6934   8.6975   8.7256   8.7330   8.7535   8.7952
     8.8307   8.8645   8.8910   8.9317   8.9583   8.9596   9.0020   9.0652
     9.0692   9.1151   9.1191   9.1403   9.1416   9.1711   9.1995   9.2254
     9.2349   9.2549   9.2709   9.2828   9.3018   9.3275   9.3413   9.3469
     9.3915   9.3918   9.4071   9.4369   9.4695   9.4942   9.5176   9.5329
     9.5455   9.5568   9.5638   9.5882   9.6125   9.6211   9.6266   9.6368
     9.6628   9.7165   9.7369   9.7792   9.7998   9.8359   9.8516   9.8986
     9.8994   9.9498   9.9624   9.9962   9.9995  10.0094  10.0149  10.0369
    10.0409  10.0499  10.0915  10.1179  10.1309  10.1336  10.1510  10.1897
    10.2385  10.2703  10.2752  10.2937  10.2947  10.3908  10.4757  10.5450
    10.5759  10.5947  10.6379  10.6760  10.6779  10.7078  10.7119  10.7307
    10.7550  10.7668  10.7804  10.7811  10.8173  10.8451  10.8555  10.8791
    10.8848  10.9036  10.9200  10.9274  10.9421  10.9438  10.9657  10.9744
    10.9969  11.0071  11.0604  11.0684

          k = 0.0000 0.0000 0.0047 (103427 PWs)   bands (ev):

   -21.1041 -20.7962 -20.6785 -20.6179 -20.3186 -20.1888 -19.8734 -19.7541
   -19.5803 -19.5261 -19.4273 -19.2710 -19.0473 -18.8302 -18.5954 -18.5279
   -18.4181 -18.1578 -18.0083 -17.6788 -17.6374 -17.6070 -17.5100 -17.3969
   -17.2902 -17.1579 -16.9684 -16.7737 -16.5290 -16.4170 -16.3158 -16.1571
   -16.0614 -16.0018 -15.8901 -15.7561 -15.4472 -15.1227 -14.8196 -14.7980
   -14.4929 -14.4226 -14.3201 -14.2425 -14.1474 -14.0666 -13.9823 -13.9269
   -13.6326 -13.0483 -12.9388 -12.8514 -12.7966 -12.7227 -12.6506 -12.5915
   -12.4412 -12.1313 -12.0972 -11.9952 -11.9164 -11.8502 -11.4250 -11.4041
   -11.3402 -11.2215 -10.9134 -10.8307 -10.7410 -10.5828 -10.4811 -10.4315
   -10.2872 -10.2030  -9.9919  -9.9660  -9.7755  -9.6550  -9.5729  -9.5376
    -9.4954  -9.4298  -9.3776  -9.2270  -9.1800  -9.0351  -9.0045  -8.8625
    -8.8115  -8.7333  -8.6739  -8.6217  -8.5664  -8.5515  -8.4873  -8.4638
    -8.3683  -8.3070  -8.2700  -8.2655  -8.2177  -8.2144  -8.1754  -8.1164
    -8.1119  -8.0896  -7.9658  -7.9607  -7.7911  -7.7832  -7.7727  -7.6606
    -7.6274  -7.5839  -7.5648  -7.4260  -7.3237  -7.2481  -7.2177  -7.0924
    -7.0743  -7.0388  -6.9875  -6.9394  -6.8948  -6.7854  -6.7711  -6.6118
    -6.5696  -6.4638  -6.3332  -6.2622  -6.2513  -6.1941  -6.1093  -5.9276
    -5.8939  -5.8659  -5.8535  -5.7884  -5.6337  -5.6310  -5.3087  -5.2816
    -5.2340  -5.1269  -5.0873  -5.0640  -5.0453  -4.9923  -4.7577  -4.6359
    -4.4022  -4.2963  -4.1450  -3.9851  -3.8863  -3.8711  -3.8384  -3.7106
    -3.4575  -3.2603  -2.4929  -2.3522  -1.1871  -1.0169  -0.4399  -0.2434
    -0.0951  -0.0303   0.0539   0.1207   0.2144   0.3367   0.4821   0.7582
     0.9273   1.1876   1.2262   1.2830   1.3573   1.4957   1.4978   1.5501
     1.6037   1.7199   1.7595   1.7644   1.9068   1.9639   1.9745   2.0660
     2.1083   2.1409   2.2179   2.5154   2.5196   2.5970   2.6777   2.6887
     2.7922   2.8748   2.8778   2.9955   3.0126   3.0235   3.1356   3.1797
     3.2001   3.2037   3.2284   3.2437   3.3508   3.3809   3.4089   3.4102
     3.4394   3.5111   3.5931   3.6356   3.6591   3.7286   3.7625   3.8032
     3.8629   3.9160   3.9297   3.9811   4.0233   4.0749   4.2253   4.2275
     4.3015   4.3502   4.4249   4.4417   4.4433   4.4992   4.5046   4.5563
     4.5970   4.6248   4.6577   4.7248   4.7418   4.7911   4.8181   4.8302
     4.8413   4.8577   4.8697   4.8926   4.9785   5.0235   5.0535   5.0809
     5.0865   5.1231   5.1555   5.1670   5.2222   5.2439   5.2739   5.3044
     5.3376   5.4310   5.4436   5.4619   5.4729   5.5267   5.5554   5.5705
     5.6729   5.6973   5.7664   5.7995   5.8235   5.8389   5.8883   5.9181
     5.9648   5.9910   5.9941   6.0422   6.0770   6.1070   6.1106   6.1311
     6.1460   6.1727   6.2213   6.2258   6.2333   6.2458   6.3292   6.3372
     6.3602   6.3968   6.4151   6.4299   6.4506   6.4512   6.4612   6.4792
     6.5262   6.5613   6.5775   6.6026   6.6578   6.6814   6.6931   6.7275
     6.7540   6.7631   6.7667   6.8029   6.8194   6.8438   6.8639   6.9009
     6.9368   6.9550   6.9676   6.9969   7.0095   7.0328   7.0508   7.0607
     7.1254   7.1410   7.1517   7.2012   7.2179   7.2326   7.2447   7.2724
     7.2949   7.3311   7.3552   7.3775   7.3833   7.4166   7.4177   7.4259
     7.4612   7.4679   7.5019   7.5124   7.5366   7.6178   7.6190   7.6579
     7.6848   7.7300   7.7542   7.7715   7.7777   7.7805   7.8256   7.8396
     7.8659   7.8754   7.8772   7.8928   7.9156   7.9489   7.9583   7.9922
     8.0264   8.0557   8.0977   8.1147   8.1307   8.1819   8.2089   8.2341
     8.2399   8.3093   8.3390   8.3743   8.3845   8.4029   8.4641   8.5037
     8.5274   8.5406   8.5652   8.5761   8.6200   8.6348   8.6534   8.6605
     8.6752   8.6949   8.7053   8.7133   8.7177   8.7347   8.7855   8.7938
     8.8303   8.8509   8.8844   8.9505   8.9633   8.9803   9.0466   9.0672
     9.0701   9.0875   9.1048   9.1293   9.1461   9.1679   9.1739   9.2136
     9.2187   9.2349   9.2563   9.2772   9.2869   9.3229   9.3330   9.3487
     9.3816   9.4097   9.4173   9.4420   9.4755   9.5124   9.5184   9.5322
     9.5474   9.5627   9.5659   9.5839   9.5992   9.6297   9.6387   9.6609
     9.6696   9.7142   9.7624   9.7864   9.7900   9.8331   9.8407   9.8905
     9.8971   9.9505   9.9616   9.9854   9.9894   9.9919  10.0044  10.0168
    10.0237  10.0607  10.1253  10.1427  10.1511  10.1533  10.1748  10.1957
    10.2321  10.2572  10.2889  10.3047  10.3099  10.4025  10.4405  10.5306
    10.5680  10.5810  10.6373  10.6508  10.6636  10.6841  10.7080  10.7113
    10.7429  10.7655  10.7727  10.7863  10.8139  10.8391  10.8605  10.8887
    10.8931  10.8936  10.9266  10.9374  10.9472  10.9601  10.9781  10.9904
    11.0057  11.0095  11.0336  11.0587

          k = 0.0000 0.0000 0.0059 (103441 PWs)   bands (ev):

   -21.1028 -20.8092 -20.6637 -20.6158 -20.3300 -20.1749 -19.8731 -19.7806
   -19.5884 -19.4991 -19.4178 -19.2913 -19.0229 -18.8287 -18.6129 -18.5332
   -18.4027 -18.1460 -18.0481 -17.6499 -17.6419 -17.6236 -17.5249 -17.3827
   -17.2851 -17.1280 -16.9780 -16.7894 -16.4994 -16.4294 -16.3066 -16.1518
   -16.0645 -16.0235 -15.9114 -15.7356 -15.4698 -15.1211 -14.8327 -14.7871
   -14.4926 -14.4028 -14.3205 -14.2211 -14.1579 -14.0625 -13.9764 -13.9137
   -13.6371 -13.0533 -12.9514 -12.8777 -12.7937 -12.7116 -12.6510 -12.6293
   -12.4856 -12.1254 -12.0386 -11.9871 -11.8858 -11.8362 -11.4406 -11.4262
   -11.3328 -11.2018 -10.9046 -10.8544 -10.7429 -10.6014 -10.4475 -10.4422
   -10.2740 -10.2213  -9.9956  -9.9666  -9.7642  -9.6550  -9.5803  -9.5466
    -9.5128  -9.4532  -9.3697  -9.1989  -9.1784  -9.0411  -8.9601  -8.8556
    -8.8272  -8.7414  -8.6574  -8.6180  -8.5911  -8.5827  -8.4959  -8.4843
    -8.3556  -8.3174  -8.2795  -8.2570  -8.2267  -8.1998  -8.1612  -8.1072
    -8.0995  -8.0895  -7.9537  -7.9517  -7.7909  -7.7804  -7.7717  -7.6433
    -7.6247  -7.6155  -7.5621  -7.4370  -7.2932  -7.2323  -7.2289  -7.1017
    -7.0774  -7.0666  -7.0000  -6.9254  -6.8847  -6.7931  -6.7555  -6.6092
    -6.5481  -6.4870  -6.3494  -6.2601  -6.2466  -6.2245  -6.0973  -5.9080
    -5.8996  -5.8529  -5.8474  -5.7976  -5.6741  -5.6118  -5.3170  -5.2527
    -5.2394  -5.1531  -5.0910  -5.0509  -5.0480  -4.9923  -4.7256  -4.6249
    -4.4325  -4.3022  -4.1393  -3.9597  -3.8944  -3.8703  -3.8354  -3.7347
    -3.4361  -3.2668  -2.4984  -2.3692  -1.1704  -1.0125  -0.4319  -0.2572
    -0.0860  -0.0128   0.0519   0.1171   0.2233   0.3361   0.4469   0.7783
     0.9284   1.1894   1.2107   1.2601   1.3315   1.4995   1.5242   1.5517
     1.5863   1.6596   1.7800   1.8162   1.8909   1.9564   1.9615   2.0848
     2.1122   2.1614   2.2795   2.4894   2.5035   2.5986   2.6877   2.7069
     2.7933   2.8583   2.8670   2.9738   3.0056   3.0164   3.1548   3.1748
     3.1963   3.2067   3.2269   3.2636   3.3489   3.3744   3.3976   3.4030
     3.4302   3.5304   3.6204   3.6209   3.6754   3.7457   3.7699   3.8247
     3.8559   3.8958   3.9417   3.9809   4.0217   4.0364   4.2287   4.2458
     4.3104   4.3482   4.4067   4.4188   4.4783   4.4830   4.4860   4.5680
     4.6026   4.6401   4.6469   4.7067   4.7189   4.7974   4.8154   4.8240
     4.8423   4.8562   4.8648   4.9067   4.9859   5.0066   5.0215   5.0505
     5.0951   5.1243   5.1428   5.2015   5.2042   5.2238   5.3052   5.3096
     5.3409   5.4463   5.4698   5.4708   5.4870   5.5563   5.5654   5.6208
     5.6769   5.7104   5.7505   5.7613   5.8068   5.8141   5.8770   5.8915
     5.9720   5.9741   5.9889   6.0399   6.0754   6.0829   6.1084   6.1155
     6.1641   6.1892   6.1964   6.2205   6.2523   6.2618   6.3031   6.3468
     6.3570   6.4108   6.4181   6.4324   6.4405   6.4671   6.4731   6.4936
     6.5409   6.5679   6.5789   6.6052   6.6462   6.6847   6.7116   6.7340
     6.7518   6.7846   6.7955   6.8030   6.8115   6.8412   6.8685   6.9014
     6.9294   6.9432   6.9657   6.9911   6.9958   7.0320   7.0420   7.0529
     7.1343   7.1441   7.1606   7.1770   7.2090   7.2103   7.2369   7.2621
     7.2808   7.3246   7.3645   7.3736   7.3923   7.4037   7.4257   7.4296
     7.4585   7.4805   7.4826   7.5239   7.5460   7.5915   7.6157   7.6526
     7.6657   7.7139   7.7614   7.7816   7.7909   7.8166   7.8226   7.8498
     7.8637   7.8738   7.8963   7.9006   7.9209   7.9602   8.0036   8.0240
     8.0247   8.0602   8.1064   8.1163   8.1343   8.1809   8.1873   8.2251
     8.2524   8.3123   8.3244   8.3495   8.3660   8.4171   8.4624   8.4856
     8.5064   8.5217   8.5532   8.5982   8.6060   8.6128   8.6415   8.6665
     8.6729   8.6985   8.7012   8.7217   8.7399   8.7611   8.7965   8.8151
     8.8247   8.8392   8.8840   8.9627   8.9695   8.9977   9.0486   9.0518
     9.0715   9.0730   9.1110   9.1179   9.1230   9.1489   9.1803   9.1857
     9.2117   9.2202   9.2656   9.2707   9.2931   9.3148   9.3194   9.3450
     9.3662   9.4285   9.4319   9.4601   9.4733   9.5055   9.5303   9.5332
     9.5408   9.5556   9.5657   9.5829   9.5964   9.6278   9.6696   9.6827
     9.6858   9.6989   9.7489   9.7888   9.8082   9.8329   9.8655   9.8887
     9.8946   9.9406   9.9589   9.9646   9.9737   9.9799  10.0043  10.0054
    10.0099  10.0661  10.1489  10.1611  10.1638  10.1693  10.1924  10.2155
    10.2281  10.2404  10.2837  10.3403  10.3446  10.4004  10.4189  10.5123
    10.5565  10.5639  10.6156  10.6320  10.6504  10.6565  10.6844  10.7106
    10.7377  10.7624  10.7705  10.7901  10.8129  10.8341  10.8659  10.8743
    10.9011  10.9038  10.9239  10.9270  10.9517  10.9742  10.9792  11.0016
    11.0130  11.0146  11.0340  11.0452

          k = 0.0000 0.0000 0.0070 (103457 PWs)   bands (ev):

   -21.1012 -20.8221 -20.6492 -20.6129 -20.3415 -20.1604 -19.8732 -19.8062
   -19.5977 -19.4727 -19.4082 -19.3094 -18.9986 -18.8266 -18.6309 -18.5390
   -18.3873 -18.1323 -18.0873 -17.6780 -17.6411 -17.5910 -17.5392 -17.3720
   -17.2766 -17.0969 -16.9909 -16.7998 -16.4749 -16.4370 -16.2982 -16.1454
   -16.0732 -16.0400 -15.9370 -15.7148 -15.4952 -15.1199 -14.8618 -14.7591
   -14.4938 -14.3792 -14.3205 -14.1985 -14.1686 -14.0547 -13.9726 -13.8987
   -13.6419 -13.0611 -12.9617 -12.9043 -12.7947 -12.7136 -12.6939 -12.6107
   -12.5293 -12.1247 -11.9831 -11.9731 -11.8561 -11.8153 -11.4587 -11.4468
   -11.3259 -11.1839 -10.8946 -10.8784 -10.7416 -10.6219 -10.4606 -10.4069
   -10.2702 -10.2294 -10.0204  -9.9492  -9.7539  -9.6618  -9.6064  -9.5528
    -9.5252  -9.4528  -9.3611  -9.1765  -9.1699  -9.0480  -8.9261  -8.8432
    -8.8426  -8.7523  -8.6429  -8.6217  -8.6117  -8.6039  -8.5268  -8.4823
    -8.3555  -8.3184  -8.2935  -8.2493  -8.2357  -8.1883  -8.1569  -8.0953
    -8.0820  -8.0818  -7.9433  -7.9405  -7.7925  -7.7707  -7.7702  -7.6467
    -7.6339  -7.6134  -7.5590  -7.4486  -7.2657  -7.2411  -7.2133  -7.1147
    -7.0929  -7.0781  -7.0130  -6.9153  -6.8713  -6.8134  -6.7264  -6.6053
    -6.5406  -6.4974  -6.3674  -6.2692  -6.2691  -6.2172  -6.0843  -5.9170
    -5.8944  -5.8419  -5.8263  -5.8011  -5.7170  -5.5900  -5.3310  -5.2696
    -5.1965  -5.1797  -5.0955  -5.0515  -5.0442  -4.9830  -4.6992  -4.6073
    -4.4642  -4.3087  -4.1330  -3.9399  -3.9024  -3.8669  -3.8305  -3.7585
    -3.4161  -3.2733  -2.5050  -2.3893  -1.1507  -1.0071  -0.4232  -0.2705
    -0.0742   0.0043   0.0498   0.1149   0.2315   0.3335   0.4149   0.7887
     0.9359   1.1883   1.1916   1.2239   1.3287   1.5015   1.5528   1.5530
     1.5699   1.5998   1.8002   1.8666   1.8758   1.9385   1.9600   2.1024
     2.1176   2.1831   2.3401   2.4640   2.4874   2.6006   2.6951   2.7250
     2.7805   2.8551   2.8555   2.9564   2.9882   3.0213   3.1521   3.1526
     3.2053   3.2254   3.2343   3.2756   3.3298   3.3576   3.3970   3.4053
     3.4389   3.5510   3.6031   3.6486   3.6955   3.7297   3.8115   3.8426
     3.8501   3.8665   3.9620   3.9732   4.0073   4.0230   4.2302   4.2549
     4.3187   4.3562   4.3883   4.3892   4.4604   4.4806   4.5102   4.5741
     4.6051   4.6405   4.6601   4.6882   4.6886   4.7600   4.8095   4.8283
     4.8505   4.8676   4.8751   4.9258   4.9687   4.9895   5.0132   5.0140
     5.0870   5.1324   5.1476   5.1849   5.2045   5.2385   5.2964   5.3463
     5.3579   5.4594   5.4781   5.4806   5.5201   5.5731   5.5910   5.6723
     5.6755   5.7039   5.7221   5.7503   5.7784   5.8067   5.8686   5.8688
     5.9572   5.9728   5.9861   6.0294   6.0556   6.0748   6.0889   6.1205
     6.1549   6.1771   6.2132   6.2172   6.2513   6.2851   6.2939   6.3405
     6.3649   6.3802   6.4300   6.4383   6.4499   6.4902   6.5050   6.5109
     6.5541   6.5735   6.5841   6.6023   6.6393   6.6923   6.7140   6.7389
     6.7414   6.7869   6.8061   6.8225   6.8291   6.8468   6.8769   6.8883
     6.9167   6.9389   6.9645   6.9782   6.9987   7.0205   7.0490   7.0496
     7.1119   7.1412   7.1531   7.1686   7.1967   7.2158   7.2341   7.2591
     7.2728   7.3160   7.3360   7.3681   7.3844   7.4008   7.4325   7.4440
     7.4487   7.4733   7.4993   7.5272   7.5594   7.5655   7.6242   7.6434
     7.6542   7.7002   7.7653   7.7896   7.7906   7.8196   7.8407   7.8580
     7.8609   7.9002   7.9122   7.9225   7.9314   7.9758   8.0209   8.0438
     8.0506   8.0718   8.1090   8.1179   8.1439   8.1441   8.1813   8.2167
     8.2718   8.3064   8.3209   8.3368   8.3546   8.4278   8.4474   8.4708
     8.4859   8.5031   8.5448   8.5732   8.5858   8.6129   8.6393   8.6549
     8.6852   8.7003   8.7125   8.7380   8.7629   8.7880   8.8023   8.8155
     8.8393   8.8408   8.8875   8.9593   8.9773   9.0084   9.0149   9.0191
     9.0586   9.0747   9.0834   9.1113   9.1172   9.1707   9.1777   9.1863
     9.2068   9.2161   9.2518   9.2638   9.2910   9.3051   9.3429   9.3430
     9.3497   9.4353   9.4381   9.4710   9.4818   9.5017   9.5227   9.5325
     9.5363   9.5425   9.5749   9.5877   9.6012   9.6225   9.6612   9.6982
     9.7010   9.7266   9.7514   9.7846   9.8072   9.8347   9.8737   9.8917
     9.9137   9.9201   9.9510   9.9579   9.9648   9.9749   9.9974  10.0018
    10.0075  10.0640  10.1499  10.1688  10.1748  10.1825  10.1890  10.2075
    10.2501  10.2701  10.2916  10.3731  10.3764  10.3796  10.4271  10.4911
    10.5392  10.5442  10.5831  10.6133  10.6174  10.6459  10.6677  10.7117
    10.7342  10.7515  10.7700  10.7890  10.8108  10.8325  10.8696  10.8710
    10.9024  10.9107  10.9109  10.9251  10.9480  10.9669  10.9830  10.9841
    11.0153  11.0197  11.0423  11.0536

          k = 0.0000 0.0000 0.0082 (103435 PWs)   bands (ev):

   -21.0993 -20.8346 -20.6359 -20.6082 -20.3529 -20.1453 -19.8748 -19.8298
   -19.6076 -19.4496 -19.3990 -19.3226 -18.9747 -18.8238 -18.6489 -18.5452
   -18.3722 -18.1268 -18.1160 -17.7101 -17.6478 -17.5557 -17.5454 -17.3652
   -17.2647 -17.0680 -17.0043 -16.8047 -16.4711 -16.4248 -16.2906 -16.1385
   -16.0903 -16.0476 -15.9658 -15.6951 -15.5221 -15.1191 -14.8940 -14.7267
   -14.4962 -14.3549 -14.3181 -14.1843 -14.1699 -14.0437 -13.9696 -13.8834
   -13.6464 -13.0718 -12.9697 -12.9315 -12.7986 -12.7698 -12.6805 -12.6053
   -12.5605 -12.1263 -11.9687 -11.9166 -11.8317 -11.7842 -11.4791 -11.4656
   -11.3197 -11.1683 -10.9041 -10.8798 -10.7398 -10.6426 -10.4750 -10.3735
   -10.2779 -10.2231 -10.0465  -9.9336  -9.7453  -9.6854  -9.6359  -9.5626
    -9.5148  -9.4438  -9.3515  -9.1742  -9.1409  -9.0552  -8.9071  -8.8576
    -8.8272  -8.7621  -8.6562  -8.6323  -8.6141  -8.6007  -8.5577  -8.4793
    -8.3700  -8.3082  -8.3074  -8.2531  -8.2361  -8.1827  -8.1598  -8.0821
    -8.0646  -8.0636  -7.9334  -7.9285  -7.7905  -7.7697  -7.7576  -7.6773
    -7.6304  -7.5958  -7.5554  -7.4606  -7.2539  -7.2439  -7.1907  -7.1296
    -7.1157  -7.0792  -7.0250  -6.9109  -6.8541  -6.8308  -6.6993  -6.5992
    -6.5589  -6.4833  -6.3865  -6.3033  -6.2786  -6.1985  -6.0706  -5.9352
    -5.8921  -5.8335  -5.8034  -5.7916  -5.7595  -5.5683  -5.3499  -5.2868
    -5.2036  -5.1533  -5.1007  -5.0555  -5.0424  -4.9674  -4.6809  -4.5817
    -4.4960  -4.3155  -4.1264  -3.9348  -3.9063  -3.8601  -3.8234  -3.7788
    -3.3996  -3.2777  -2.5128  -2.4121  -1.1283  -1.0008  -0.4151  -0.2816
    -0.0600   0.0188   0.0491   0.1148   0.2378   0.3259   0.3907   0.7888
     0.9500   1.1620   1.1829   1.1942   1.3384   1.5038   1.5387   1.5486
     1.5601   1.5832   1.8183   1.8634   1.9099   1.9211   1.9648   2.1126
     2.1309   2.2054   2.3932   2.4452   2.4713   2.6030   2.6985   2.7416
     2.7594   2.8398   2.8652   2.9439   2.9714   3.0271   3.1284   3.1377
     3.2142   3.2447   3.2526   3.2761   3.2988   3.3565   3.3860   3.4178
     3.4594   3.5721   3.5857   3.6741   3.7163   3.7167   3.8313   3.8372
     3.8541   3.8696   3.9484   3.9826   3.9995   4.0265   4.2320   4.2547
     4.3204   4.3556   4.3701   4.3802   4.4372   4.4799   4.5320   4.5703
     4.6124   4.6437   4.6513   4.6708   4.6781   4.7266   4.7927   4.8261
     4.8558   4.8708   4.9091   4.9446   4.9476   4.9638   4.9769   5.0224
     5.0688   5.1446   5.1530   5.1727   5.1909   5.2765   5.2842   5.3808
     5.3837   5.4679   5.4837   5.4955   5.5572   5.5786   5.6254   5.6406
     5.6932   5.7211   5.7238   5.7333   5.7589   5.8036   5.8501   5.8638
     5.9400   5.9617   5.9897   6.0111   6.0292   6.0643   6.0852   6.1189
     6.1277   6.1721   6.2229   6.2238   6.2462   6.2796   6.3145   6.3375
     6.3571   6.3580   6.4308   6.4653   6.4737   6.4942   6.5315   6.5439
     6.5623   6.5799   6.5934   6.6028   6.6409   6.6748   6.7041   6.7418
     6.7646   6.7867   6.8133   6.8303   6.8328   6.8525   6.8702   6.9031
     6.9046   6.9403   6.9610   6.9768   7.0044   7.0119   7.0449   7.0598
     7.0734   7.1306   7.1490   7.1492   7.2090   7.2218   7.2312   7.2527
     7.2834   7.2912   7.3093   7.3514   7.3679   7.4069   7.4335   7.4390
     7.4581   7.4705   7.5073   7.5213   7.5439   7.5916   7.6208   7.6273
     7.6642   7.6935   7.7528   7.7853   7.7949   7.8166   7.8480   7.8679
     7.9004   7.9130   7.9298   7.9500   7.9516   7.9926   8.0176   8.0584
     8.0657   8.0936   8.1024   8.1117   8.1436   8.1542   8.1751   8.2146
     8.2629   8.2834   8.3322   8.3515   8.3542   8.3973   8.4517   8.4665
     8.4679   8.4849   8.5362   8.5399   8.5591   8.6226   8.6286   8.6507
     8.6756   8.7215   8.7319   8.7531   8.7864   8.7875   8.8117   8.8246
     8.8493   8.8626   8.8971   8.9389   8.9600   8.9698   9.0065   9.0156
     9.0323   9.0697   9.0769   9.1080   9.1111   9.1698   9.1782   9.1872
     9.2108   9.2355   9.2533   9.2566   9.2660   9.3013   9.3303   9.3417
     9.3874   9.4230   9.4400   9.4795   9.4829   9.5055   9.5170   9.5242
     9.5352   9.5373   9.5830   9.5968   9.6077   9.6175   9.6387   9.7131
     9.7224   9.7543   9.7696   9.7745   9.8078   9.8332   9.8762   9.8808
     9.8906   9.9294   9.9412   9.9500   9.9619   9.9862   9.9912  10.0018
    10.0261  10.0599  10.1213  10.1429  10.1931  10.1998  10.2078  10.2174
    10.2527  10.2915  10.3299  10.3574  10.4117  10.4146  10.4369  10.4684
    10.5148  10.5231  10.5500  10.5764  10.5960  10.6294  10.6679  10.7105
    10.7265  10.7442  10.7559  10.7863  10.8047  10.8345  10.8701  10.8733
    10.8990  10.9058  10.9080  10.9350  10.9361  10.9430  10.9733  10.9877
    11.0018  11.0362  11.0576  11.0657

          k = 0.0000 0.0000 0.0094 (103429 PWs)   bands (ev):

   -21.0971 -20.8470 -20.6254 -20.6002 -20.3642 -20.1298 -19.8818 -19.8476
   -19.6177 -19.4365 -19.3868 -19.3274 -18.9521 -18.8201 -18.6664 -18.5518
   -18.3580 -18.1638 -18.0998 -17.7431 -17.6566 -17.5640 -17.5051 -17.3618
   -17.2499 -17.0560 -17.0036 -16.8045 -16.4819 -16.3992 -16.2839 -16.1344
   -16.1081 -16.0504 -15.9969 -15.6785 -15.5482 -15.1189 -14.9281 -14.6910
   -14.4992 -14.3396 -14.3044 -14.1916 -14.1486 -14.0299 -13.9668 -13.8688
   -13.6501 -13.0851 -12.9764 -12.9592 -12.8302 -12.8000 -12.6728 -12.6286
   -12.5565 -12.1290 -11.9570 -11.8575 -11.8103 -11.7461 -11.5005 -11.4840
   -11.3145 -11.1559 -10.9242 -10.8660 -10.7403 -10.6608 -10.4898 -10.3493
   -10.2840 -10.2106 -10.0727  -9.9205  -9.7430  -9.7269  -9.6561  -9.5593
    -9.5005  -9.4311  -9.3410  -9.1716  -9.1131  -9.0615  -8.9002  -8.8724
    -8.8271  -8.7573  -8.6921  -8.6256  -8.6134  -8.5878  -8.5852  -8.4757
    -8.3892  -8.3211  -8.3005  -8.2582  -8.2326  -8.1844  -8.1639  -8.0703
    -8.0449  -8.0418  -7.9246  -7.9153  -7.7843  -7.7694  -7.7428  -7.7067
    -7.6272  -7.5781  -7.5509  -7.4726  -7.2668  -7.2314  -7.1673  -7.1460
    -7.1289  -7.0825  -7.0348  -6.9125  -6.8445  -6.8336  -6.6759  -6.5898
    -6.5857  -6.4627  -6.4060  -6.3374  -6.2879  -6.1797  -6.0565  -5.9562
    -5.8921  -5.8353  -5.8034  -5.7772  -5.7685  -5.5469  -5.3726  -5.3069
    -5.2216  -5.1102  -5.1068  -5.0601  -5.0430  -4.9490  -4.6703  -4.5498
    -4.5258  -4.3225  -4.1196  -3.9441  -3.9073  -3.8530  -3.8245  -3.7808
    -3.3897  -3.2773  -2.5217  -2.4374  -1.1037  -0.9935  -0.4093  -0.2885
    -0.0437   0.0263   0.0532   0.1176   0.2392   0.3111   0.3794   0.7806
     0.9668   1.1293   1.1483   1.1972   1.3532   1.4796   1.5062   1.5344
     1.5612   1.6121   1.8262   1.8618   1.9040   1.9287   1.9935   2.1173
     2.1502   2.2283   2.3964   2.4554   2.4755   2.6059   2.6924   2.7436
     2.7531   2.8250   2.8796   2.9355   2.9555   3.0338   3.1036   3.1206
     3.2193   3.2487   3.2684   3.2743   3.2821   3.3592   3.3760   3.4373
     3.4825   3.5686   3.5929   3.6847   3.7163   3.7382   3.8117   3.8123
     3.8902   3.8959   3.9226   4.0005   4.0026   4.0325   4.2337   4.2478
     4.3203   4.3249   4.3520   4.4058   4.4139   4.4832   4.5397   4.5586
     4.6086   4.6304   4.6528   4.6561   4.6680   4.7223   4.7714   4.8271
     4.8507   4.8711   4.9222   4.9379   4.9435   4.9572   4.9695   5.0124
     5.0627   5.1393   5.1595   5.1641   5.1996   5.2719   5.3151   5.4055
     5.4207   5.4740   5.4901   5.5139   5.5686   5.5941   5.6026   5.6594
     5.6970   5.7085   5.7101   5.7564   5.7644   5.8069   5.8388   5.8620
     5.9220   5.9436   5.9879   5.9956   6.0058   6.0461   6.0880   6.0910
     6.1342   6.1578   6.2053   6.2439   6.2529   6.2772   6.2894   6.3418
     6.3457   6.3803   6.4303   6.4828   6.4945   6.4982   6.5551   6.5633
     6.5834   6.5905   6.6029   6.6143   6.6363   6.6487   6.7171   6.7431
     6.7847   6.7884   6.8074   6.8133   6.8410   6.8528   6.8644   6.9195
     6.9201   6.9268   6.9547   6.9925   7.0068   7.0165   7.0175   7.0566
     7.0688   7.1205   7.1254   7.1501   7.2097   7.2313   7.2364   7.2443
     7.2470   7.3023   7.3070   7.3143   7.3663   7.4021   7.4272   7.4356
     7.4575   7.4693   7.4994   7.5285   7.5349   7.6007   7.6148   7.6338
     7.6708   7.7029   7.7302   7.7860   7.7946   7.8153   7.8609   7.8841
     7.9067   7.9439   7.9560   7.9640   7.9833   8.0066   8.0271   8.0374
     8.0727   8.0924   8.0959   8.1282   8.1462   8.1830   8.1925   8.2126
     8.2447   8.2593   8.3324   8.3515   8.3654   8.3863   8.4484   8.4520
     8.4672   8.4678   8.5041   8.5251   8.5467   8.6175   8.6300   8.6376
     8.6784   8.7228   8.7642   8.7656   8.7829   8.8101   8.8102   8.8272
     8.8759   8.8815   8.8948   8.9155   8.9243   8.9391   8.9919   9.0220
     9.0263   9.0510   9.0793   9.1048   9.1206   9.1547   9.1740   9.1824
     9.2111   9.2323   9.2393   9.2511   9.2948   9.3033   9.3193   9.3406
     9.4064   9.4279   9.4393   9.4678   9.4909   9.4988   9.5084   9.5156
     9.5363   9.5562   9.5819   9.5950   9.6156   9.6181   9.6420   9.7252
     9.7349   9.7597   9.7608   9.8028   9.8157   9.8231   9.8515   9.8838
     9.8866   9.9251   9.9394   9.9422   9.9595   9.9764   9.9982  10.0042
    10.0335  10.0730  10.0910  10.1325  10.2078  10.2148  10.2272  10.2295
    10.2432  10.3189  10.3423  10.3816  10.4361  10.4409  10.4508  10.4556
    10.4867  10.5018  10.5162  10.5444  10.5696  10.6187  10.6689  10.7036
    10.7110  10.7424  10.7430  10.7796  10.7916  10.8377  10.8632  10.8708
    10.8979  10.9035  10.9049  10.9136  10.9430  10.9489  10.9655  10.9856
    10.9915  11.0534  11.0676  11.0733

          k = 0.0000 0.0000 0.0106 (103431 PWs)   bands (ev):

   -21.0946 -20.8590 -20.6185 -20.5880 -20.3753 -20.1140 -19.8987 -19.8551
   -19.6279 -19.4393 -19.3678 -19.3223 -18.9315 -18.8152 -18.6827 -18.5586
   -18.3452 -18.1997 -18.0823 -17.7764 -17.6674 -17.5723 -17.4622 -17.3609
   -17.2333 -17.0710 -16.9780 -16.7998 -16.4953 -16.3727 -16.2781 -16.1469
   -16.1097 -16.0535 -16.0274 -15.6699 -15.5686 -15.1192 -14.9636 -14.6528
   -14.5027 -14.3382 -14.2758 -14.1990 -14.1262 -14.0141 -13.9632 -13.8559
   -13.6522 -13.1002 -12.9897 -12.9813 -12.8858 -12.8045 -12.6998 -12.6292
   -12.5417 -12.1320 -11.9443 -11.8062 -11.7823 -11.7048 -11.5216 -11.5026
   -11.3108 -11.1472 -10.9404 -10.8503 -10.7474 -10.6725 -10.5048 -10.3438
   -10.2774 -10.1942 -10.0983  -9.9100  -9.7826  -9.7474  -9.6605  -9.5485
    -9.4849  -9.4160  -9.3296  -9.1686  -9.0919  -9.0618  -8.8998  -8.8868
    -8.8482  -8.7422  -8.7268  -8.6208  -8.6172  -8.6002  -8.5672  -8.4715
    -8.4097  -8.3345  -8.3035  -8.2537  -8.2296  -8.1930  -8.1659  -8.0603
    -8.0259  -8.0181  -7.9173  -7.9007  -7.7740  -7.7719  -7.7327  -7.7259
    -7.6231  -7.5634  -7.5442  -7.4847  -7.2794  -7.2323  -7.1641  -7.1540
    -7.1172  -7.0888  -7.0414  -6.9196  -6.8530  -6.8119  -6.6581  -6.6148
    -6.5758  -6.4440  -6.4250  -6.3686  -6.2971  -6.1614  -6.0422  -5.9788
    -5.8930  -5.8450  -5.8408  -5.7517  -5.7408  -5.5257  -5.3985  -5.3304
    -5.2335  -5.1137  -5.0672  -5.0653  -5.0447  -4.9297  -4.6673  -4.5532
    -4.5124  -4.3296  -4.1125  -3.9594  -3.9110  -3.8496  -3.8399  -3.7578
    -3.3887  -3.2697  -2.5318  -2.4646  -1.0773  -0.9851  -0.4081  -0.2890
    -0.0257   0.0260   0.0623   0.1240   0.2300   0.2973   0.3786   0.7670
     0.9784   1.0944   1.1237   1.2006   1.3706   1.4207   1.5071   1.5208
     1.5643   1.6415   1.8181   1.8766   1.8875   1.9286   2.0403   2.1213
     2.1711   2.2517   2.3718   2.4398   2.5321   2.6092   2.6724   2.7410
     2.7515   2.8202   2.8956   2.9287   2.9412   3.0416   3.0793   3.1030
     3.2172   3.2233   3.2666   3.2899   3.2901   3.3645   3.3731   3.4605
     3.5064   3.5518   3.6119   3.6748   3.7308   3.7581   3.7860   3.7969
     3.8937   3.9206   3.9381   4.0037   4.0198   4.0428   4.2352   4.2354
     4.2956   4.3209   4.3343   4.3909   4.4281   4.4912   4.5370   4.5453
     4.5646   4.6242   4.6367   4.6634   4.6712   4.7371   4.7492   4.8293
     4.8383   4.8659   4.9026   4.9045   4.9642   4.9693   4.9902   4.9930
     5.0637   5.1331   5.1508   5.1763   5.2153   5.2637   5.3541   5.4295
     5.4553   5.4798   5.4997   5.5248   5.5366   5.5892   5.6268   5.6849
     5.6865   5.6996   5.7023   5.7613   5.7778   5.8158   5.8503   5.8615
     5.9034   5.9214   5.9664   5.9875   5.9942   6.0275   6.0661   6.0949
     6.1417   6.1424   6.1872   6.2464   6.2536   6.2717   6.2734   6.3308
     6.3566   6.4161   6.4299   6.4631   6.5158   6.5230   6.5528   6.5717
     6.5954   6.6049   6.6210   6.6233   6.6428   6.6618   6.7294   6.7465
     6.7718   6.7833   6.7910   6.8280   6.8460   6.8533   6.8693   6.9040
     6.9295   6.9460   6.9515   6.9709   6.9979   7.0067   7.0387   7.0572
     7.0803   7.1034   7.1173   7.1526   7.1965   7.2029   7.2323   7.2441
     7.2526   7.2768   7.3110   7.3209   7.3643   7.3870   7.4137   7.4337
     7.4435   7.4739   7.4982   7.5117   7.5497   7.5848   7.6158   7.6467
     7.6872   7.7101   7.7211   7.7867   7.7930   7.8172   7.8743   7.8933
     7.9079   7.9613   7.9714   7.9881   7.9998   8.0206   8.0251   8.0521
     8.0802   8.0805   8.1008   8.1220   8.1795   8.1936   8.2053   8.2240
     8.2379   8.2487   8.2981   8.3510   8.3675   8.4202   8.4323   8.4364
     8.4506   8.4540   8.4810   8.5178   8.5429   8.6098   8.6199   8.6364
     8.6893   8.7172   8.7661   8.7736   8.7957   8.8094   8.8170   8.8337
     8.8526   8.8840   8.8946   8.9120   8.9258   8.9346   8.9662   9.0112
     9.0431   9.0515   9.0810   9.0995   9.1150   9.1401   9.1607   9.1889
     9.2022   9.2148   9.2331   9.2446   9.2825   9.3221   9.3392   9.3637
     9.4019   9.4020   9.4580   9.4692   9.4829   9.4832   9.5102   9.5285
     9.5402   9.5675   9.5798   9.5943   9.6210   9.6333   9.6507   9.7332
     9.7403   9.7417   9.7710   9.8006   9.8054   9.8241   9.8493   9.8830
     9.8941   9.9150   9.9347   9.9464   9.9608   9.9704  10.0033  10.0034
    10.0314  10.0318  10.1217  10.1345  10.1884  10.2384  10.2436  10.2467
    10.2612  10.3251  10.3620  10.4080  10.4155  10.4515  10.4542  10.4738
    10.4779  10.4814  10.4887  10.5324  10.5435  10.6128  10.6582  10.6903
    10.6924  10.7430  10.7454  10.7715  10.7719  10.8380  10.8448  10.8672
    10.8789  10.9021  10.9048  10.9135  10.9480  10.9616  10.9725  10.9736
    10.9930  11.0503  11.0514  11.0900

          k = 0.0000 0.0000 0.0117 (103457 PWs)   bands (ev):

   -21.0919 -20.8708 -20.6137 -20.5731 -20.3861 -20.0980 -19.9211 -19.8564
   -19.6383 -19.4524 -19.3460 -19.3086 -18.9141 -18.8092 -18.6967 -18.5656
   -18.3358 -18.2319 -18.0643 -17.8094 -17.6800 -17.5784 -17.4191 -17.3616
   -17.2156 -17.0951 -16.9452 -16.7910 -16.5095 -16.3482 -16.2731 -16.1690
   -16.1020 -16.0717 -16.0413 -15.6771 -15.5751 -15.1202 -15.0000 -14.6129
   -14.5060 -14.3418 -14.2421 -14.2039 -14.1049 -13.9979 -13.9570 -13.8457
   -13.6519 -13.1165 -13.0207 -12.9901 -12.9382 -12.8079 -12.7448 -12.6135
   -12.5267 -12.1344 -11.9306 -11.7785 -11.7316 -11.6622 -11.5413 -11.5217
   -11.3091 -11.1423 -10.9517 -10.8332 -10.7630 -10.6752 -10.5198 -10.3521
   -10.2660 -10.1732 -10.1216  -9.9027  -9.8375  -9.7654  -9.6508  -9.5343
    -9.4686  -9.3992  -9.3174  -9.1653  -9.0895  -9.0439  -8.9032  -8.9009
    -8.8775  -8.7691  -8.7239  -8.6449  -8.6166  -8.5763  -8.5480  -8.4667
    -8.4297  -8.3476  -8.3139  -8.2441  -8.2261  -8.2056  -8.1660  -8.0530
    -8.0065  -7.9958  -7.9115  -7.8845  -7.7846  -7.7602  -7.7480  -7.7066
    -7.6178  -7.5542  -7.5334  -7.4967  -7.2913  -7.2466  -7.1834  -7.1438
    -7.0978  -7.0879  -7.0455  -6.9304  -6.8577  -6.7890  -6.6463  -6.6449
    -6.5582  -6.4418  -6.4394  -6.3855  -6.3060  -6.1438  -6.0279  -6.0022
    -5.8944  -5.8866  -5.8477  -5.7247  -5.7118  -5.5048  -5.4271  -5.3558
    -5.2408  -5.1214  -5.0712  -5.0468  -5.0244  -4.9103  -4.6738  -4.5709
    -4.4743  -4.3367  -4.1054  -3.9775  -3.9189  -3.8616  -3.8434  -3.7259
    -3.3963  -3.2552  -2.5434  -2.4933  -1.0497  -0.9753  -0.4125  -0.2819
    -0.0068   0.0227   0.0713   0.1347   0.2078   0.2921   0.3836   0.7498
     0.9720   1.0683   1.1103   1.2043   1.3622   1.3897   1.4989   1.5170
     1.5679   1.6709   1.8050   1.8708   1.8978   1.9238   2.0910   2.1253
     2.1926   2.2755   2.3444   2.4246   2.5871   2.6128   2.6477   2.7343
     2.7466   2.8283   2.9122   2.9191   2.9320   3.0500   3.0562   3.0856
     3.1823   3.2272   3.2550   3.2935   3.3075   3.3724   3.3826   3.4849
     3.5304   3.5357   3.6255   3.6612   3.7355   3.7477   3.7835   3.8025
     3.8820   3.9413   3.9794   4.0079   4.0329   4.0595   4.2174   4.2359
     4.2701   4.3171   4.3227   4.3684   4.4407   4.4999   4.5159   4.5290
     4.5404   4.5900   4.6210   4.6852   4.6878   4.7276   4.7422   4.8320
     4.8361   4.8512   4.8672   4.8958   4.9522   4.9818   5.0001   5.0076
     5.0696   5.1301   5.1499   5.1943   5.2193   5.2687   5.3932   5.4464
     5.4704   5.4806   5.4997   5.5189   5.5556   5.5748   5.6334   5.6805
     5.6872   5.7055   5.7203   5.7711   5.7723   5.8184   5.8556   5.8721
     5.8945   5.9024   5.9412   5.9800   5.9837   6.0197   6.0476   6.0998
     6.1251   6.1507   6.1723   6.2087   6.2500   6.2668   6.2940   6.3188
     6.3725   6.4273   6.4435   6.4532   6.5210   6.5410   6.5479   6.5511
     6.6015   6.6136   6.6462   6.6633   6.6671   6.6819   6.7337   6.7348
     6.7544   6.7824   6.7924   6.8375   6.8514   6.8536   6.8834   6.8900
     6.9229   6.9249   6.9515   6.9736   7.0034   7.0060   7.0393   7.0595
     7.0838   7.1094   7.1240   7.1494   7.1563   7.1959   7.2265   7.2397
     7.2534   7.2612   7.3200   7.3273   7.3678   7.3766   7.3978   7.4058
     7.4487   7.4703   7.4872   7.5082   7.5644   7.5709   7.6167   7.6472
     7.6957   7.7138   7.7379   7.7871   7.7961   7.8206   7.8825   7.8844
     7.9269   7.9529   7.9583   7.9832   8.0361   8.0369   8.0575   8.0643
     8.0849   8.0884   8.1124   8.1272   8.1841   8.1976   8.2039   8.2203
     8.2402   8.2640   8.2951   8.3509   8.3704   8.4088   8.4149   8.4322
     8.4426   8.4532   8.4601   8.5179   8.5435   8.5878   8.6201   8.6423
     8.7039   8.7087   8.7228   8.7763   8.7904   8.8154   8.8248   8.8356
     8.8521   8.8715   8.8756   8.9216   8.9253   8.9563   8.9733   8.9973
     9.0557   9.0626   9.0800   9.0975   9.0992   9.1264   9.1477   9.1572
     9.1912   9.2242   9.2389   9.2393   9.2763   9.3315   9.3372   9.3703
     9.3979   9.4245   9.4403   9.4500   9.4728   9.4849   9.5403   9.5464
     9.5504   9.5715   9.5832   9.5980   9.6265   9.6496   9.6521   9.7218
     9.7353   9.7422   9.7797   9.7839   9.7955   9.8044   9.8701   9.8779
     9.8940   9.9167   9.9380   9.9390   9.9575   9.9758   9.9834  10.0092
    10.0257  10.0403  10.1138  10.1491  10.1789  10.2535  10.2634  10.2661
    10.2853  10.3405  10.3728  10.3859  10.4166  10.4381  10.4457  10.4506
    10.4552  10.4838  10.5212  10.5243  10.5515  10.6143  10.6276  10.6655
    10.6957  10.7441  10.7479  10.7525  10.7675  10.8111  10.8451  10.8608
    10.8643  10.8929  10.9045  10.9194  10.9538  10.9584  10.9798  10.9903
    10.9927  11.0377  11.0391  11.1021

          k = 0.0000 0.0000 0.0129 (103443 PWs)   bands (ev):

   -21.0888 -20.8823 -20.6097 -20.5570 -20.3966 -20.0818 -19.9451 -19.8556
   -19.6486 -19.4700 -19.3259 -19.2876 -18.9009 -18.8029 -18.7065 -18.5727
   -18.3351 -18.2551 -18.0468 -17.8414 -17.6937 -17.5826 -17.3783 -17.3613
   -17.1973 -17.1218 -16.9113 -16.7785 -16.5238 -16.3271 -16.2696 -16.1906
   -16.1136 -16.0838 -16.0390 -15.7006 -15.5672 -15.1219 -15.0370 -14.5726
   -14.5079 -14.3475 -14.2153 -14.1975 -14.0851 -13.9848 -13.9449 -13.8386
   -13.6484 -13.1333 -13.0574 -13.0062 -12.9790 -12.8150 -12.7875 -12.5954
   -12.5133 -12.1357 -11.9159 -11.7571 -11.6776 -11.6192 -11.5574 -11.5410
   -11.3102 -11.1406 -10.9586 -10.8149 -10.7843 -10.6713 -10.5345 -10.3644
   -10.2610 -10.1593 -10.1295  -9.9115  -9.8813  -9.7855  -9.6340  -9.5184
    -9.4517  -9.3812  -9.3045  -9.1616  -9.0957  -9.0180  -8.9148  -8.9147
    -8.9042  -8.8071  -8.7183  -8.6697  -8.6125  -8.5480  -8.5281  -8.4618
    -8.4453  -8.3602  -8.3260  -8.2395  -8.2204  -8.2172  -8.1648  -8.0485
    -7.9869  -7.9758  -7.9069  -7.8670  -7.8088  -7.7512  -7.7435  -7.6851
    -7.6110  -7.5485  -7.5213  -7.5086  -7.3026  -7.2680  -7.2032  -7.1296
    -7.1079  -7.0544  -7.0488  -6.9425  -6.8602  -6.7655  -6.6758  -6.6392
    -6.5424  -6.4616  -6.4523  -6.3759  -6.3144  -6.1268  -6.0262  -6.0145
    -5.9268  -5.8963  -5.8552  -5.6972  -5.6827  -5.4842  -5.4580  -5.3812
    -5.2453  -5.1299  -5.0777  -5.0493  -4.9818  -4.8914  -4.6914  -4.5778
    -4.4352  -4.3433  -4.0983  -3.9977  -3.9323  -3.8763  -3.8417  -3.6910
    -3.4097  -3.2363  -2.5569  -2.5224  -1.0221  -0.9635  -0.4217  -0.2682
     0.0088   0.0217   0.0792   0.1478   0.1797   0.2925   0.3922   0.7299
     0.9436   1.0465   1.1155   1.2085   1.3044   1.4099   1.4847   1.5198
     1.5721   1.7003   1.7909   1.8550   1.9173   1.9202   2.1296   2.1424
     2.2143   2.2996   2.3165   2.4098   2.6026   2.6168   2.6575   2.7094
     2.7573   2.8410   2.9063   2.9279   2.9287   3.0353   3.0568   3.0711
     3.1473   3.2310   3.2422   3.2865   3.3239   3.3835   3.4019   3.5087
     3.5198   3.5549   3.6262   3.6500   3.7122   3.7371   3.7998   3.8244
     3.8759   3.9640   4.0129   4.0162   4.0475   4.0803   4.1942   4.2349
     4.2495   4.3010   4.3255   4.3470   4.4422   4.4643   4.4981   4.5180
     4.5543   4.5549   4.6078   4.6960   4.6962   4.7152   4.7403   4.8285
     4.8326   4.8368   4.8533   4.8923   4.9227   4.9906   5.0044   5.0312
     5.0899   5.1195   5.1688   5.2106   5.2132   5.2866   5.4140   5.4322
     5.4670   5.4938   5.5149   5.5495   5.5542   5.5767   5.6117   5.6761
     5.7080   5.7104   5.7359   5.7655   5.7873   5.8222   5.8360   5.8572
     5.8906   5.9075   5.9200   5.9682   5.9957   6.0206   6.0315   6.1043
     6.1080   6.1552   6.1636   6.1698   6.2444   6.2577   6.3104   6.3188
     6.3782   6.4194   6.4358   6.4854   6.4897   6.5394   6.5509   6.5714
     6.6086   6.6222   6.6661   6.6826   6.6911   6.7094   6.7099   6.7406
     6.7643   6.7929   6.7964   6.8229   6.8546   6.8705   6.8750   6.8803
     6.8961   6.9226   6.9516   6.9988   7.0003   7.0134   7.0294   7.0581
     7.0726   7.1084   7.1210   7.1527   7.1607   7.1926   7.2036   7.2221
     7.2585   7.2729   7.3094   7.3383   7.3705   7.3711   7.3847   7.3863
     7.4444   7.4560   7.4694   7.5268   7.5556   7.5772   7.6204   7.6477
     7.6854   7.7336   7.7468   7.7870   7.8092   7.8226   7.8775   7.8846
     7.9268   7.9286   7.9563   7.9876   8.0409   8.0515   8.0824   8.0952
     8.1021   8.1149   8.1319   8.1362   8.1609   8.1785   8.2075   8.2255
     8.2452   8.2725   8.3428   8.3450   8.3665   8.3898   8.4017   8.4178
     8.4235   8.4344   8.4955   8.5121   8.5423   8.5673   8.6216   8.6479
     8.6615   8.7037   8.7268   8.7581   8.7732   8.8202   8.8277   8.8288
     8.8575   8.8623   8.8875   8.9017   8.9481   8.9653   8.9854   9.0132
     9.0576   9.0661   9.0808   9.0839   9.0996   9.1089   9.1339   9.1389
     9.1692   9.2310   9.2339   9.2478   9.2876   9.3296   9.3352   9.3413
     9.3985   9.4149   9.4361   9.4667   9.4750   9.4864   9.5571   9.5657
     9.5722   9.5735   9.5966   9.6093   9.6280   9.6410   9.6620   9.7033
     9.7288   9.7310   9.7617   9.7849   9.7976   9.8012   9.8673   9.8700
     9.8943   9.9095   9.9348   9.9436   9.9497   9.9622  10.0048  10.0144
    10.0359  10.0536  10.1093  10.1350  10.1951  10.2497  10.2848  10.2859
    10.3046  10.3478  10.3703  10.3856  10.4106  10.4128  10.4208  10.4252
    10.4557  10.4883  10.5136  10.5599  10.5824  10.5893  10.6264  10.6376
    10.7091  10.7237  10.7454  10.7462  10.7760  10.7805  10.8418  10.8558
    10.8601  10.8769  10.9000  10.9257  10.9522  10.9630  10.9763  10.9939
    11.0161  11.0292  11.0353  11.0891

          k = 0.0000 0.0000 0.0141 (103441 PWs)   bands (ev):

   -21.0854 -20.8935 -20.6060 -20.5403 -20.4067 -20.0656 -19.9690 -19.8540
   -19.6589 -19.4895 -19.3079 -19.2616 -18.8925 -18.7984 -18.7093 -18.5798
   -18.3504 -18.2620 -18.0312 -17.8711 -17.7079 -17.5855 -17.3701 -17.3293
   -17.1791 -17.1494 -16.8782 -16.7619 -16.5380 -16.3119 -16.2695 -16.2070
   -16.1490 -16.0761 -16.0303 -15.7327 -15.5523 -15.1248 -15.0741 -14.5394
   -14.5013 -14.3546 -14.2124 -14.1644 -14.0659 -13.9770 -13.9257 -13.8348
   -13.6416 -13.1503 -13.1019 -13.0370 -12.9990 -12.8515 -12.7997 -12.5771
   -12.5022 -12.1353 -11.9002 -11.7363 -11.6370 -11.5777 -11.5600 -11.5579
   -11.3144 -11.1405 -10.9627 -10.8080 -10.7955 -10.6640 -10.5482 -10.3774
   -10.2648 -10.1742 -10.1021  -9.9627  -9.8895  -9.8005  -9.6141  -9.5015
    -9.4347  -9.3622  -9.2911  -9.1575  -9.1035  -8.9918  -8.9465  -8.9281
    -8.9138  -8.8450  -8.7251  -8.6858  -8.6083  -8.5294  -8.5078  -8.4631
    -8.4405  -8.3723  -8.3373  -8.2414  -8.2358  -8.2042  -8.1621  -8.0464
    -7.9671  -7.9589  -7.9033  -7.8487  -7.8365  -7.7502  -7.7247  -7.6613
    -7.6028  -7.5439  -7.5203  -7.5111  -7.3140  -7.2922  -7.2219  -7.1181
    -7.1130  -7.0531  -7.0194  -6.9538  -6.8618  -6.7416  -6.7072  -6.6353
    -6.5372  -6.4938  -6.4493  -6.3566  -6.3222  -6.1106  -6.0504  -6.0069
    -5.9609  -5.8987  -5.8631  -5.6698  -5.6538  -5.4905  -5.4639  -5.4057
    -5.2481  -5.1392  -5.0847  -5.0520  -4.9394  -4.8734  -4.7171  -4.5759
    -4.3969  -4.3484  -4.0914  -4.0197  -3.9510  -3.8868  -3.8401  -3.6553
    -3.4266  -3.2151  -2.5752  -2.5490  -0.9961  -0.9481  -0.4341  -0.2497
     0.0084   0.0335   0.0881   0.1426   0.1714   0.2947   0.4032   0.7080
     0.9046   1.0229   1.1338   1.2131   1.2475   1.4308   1.4700   1.5239
     1.5767   1.7297   1.7767   1.8395   1.9101   1.9434   2.1342   2.1927
     2.2363   2.2896   2.3242   2.3956   2.5750   2.6212   2.6815   2.7015
     2.7765   2.8508   2.8933   2.9273   2.9453   3.0179   3.0471   3.0743
     3.1125   3.2290   3.2344   3.2751   3.3376   3.3981   3.4242   3.5050
     3.5302   3.5782   3.6107   3.6436   3.6758   3.7486   3.8105   3.8514
     3.8790   3.9863   4.0192   4.0367   4.0769   4.1032   4.1679   4.2304
     4.2328   4.2872   4.3274   4.3291   4.4105   4.4340   4.4940   4.5026
     4.5234   4.5680   4.6044   4.6780   4.6817   4.7276   4.7542   4.8005
     4.8060   4.8396   4.8815   4.8840   4.8974   4.9735   5.0302   5.0549
     5.0972   5.1284   5.1946   5.1985   5.2326   5.3082   5.3632   5.4708
     5.4723   5.5026   5.5268   5.5428   5.5679   5.5974   5.6009   5.6728
     5.7095   5.7197   5.7443   5.7720   5.7972   5.8128   5.8258   5.8418
     5.8720   5.9070   5.9198   5.9542   6.0147   6.0258   6.0326   6.0888
     6.1085   6.1352   6.1481   6.1678   6.2374   6.2472   6.3062   6.3441
     6.3616   6.4144   6.4286   6.4598   6.5235   6.5267   6.5641   6.5880
     6.6136   6.6317   6.6675   6.6804   6.6869   6.7261   6.7457   6.7609
     6.7784   6.8002   6.8014   6.8167   6.8279   6.8563   6.8733   6.8906
     6.8937   6.9319   6.9493   6.9965   7.0131   7.0172   7.0243   7.0420
     7.0713   7.0915   7.1252   7.1657   7.1659   7.1692   7.1997   7.2273
     7.2624   7.2872   7.2941   7.3377   7.3538   7.3691   7.3704   7.3951
     7.4211   7.4407   7.4747   7.5382   7.5502   7.5842   7.6288   7.6508
     7.6758   7.7418   7.7510   7.7835   7.8164   7.8273   7.8719   7.8868
     7.9019   7.9172   7.9655   7.9955   8.0369   8.0610   8.1009   8.1191
     8.1257   8.1309   8.1388   8.1426   8.1652   8.1716   8.2185   8.2248
     8.2501   8.3071   8.3241   8.3610   8.3771   8.3812   8.3955   8.4018
     8.4118   8.4268   8.5016   8.5273   8.5314   8.5605   8.5970   8.6165
     8.6529   8.7088   8.7240   8.7470   8.7630   8.8032   8.8191   8.8223
     8.8560   8.8835   8.8895   8.9111   8.9564   8.9721   8.9886   9.0432
     9.0549   9.0563   9.0665   9.0763   9.0909   9.1215   9.1262   9.1353
     9.1493   9.2216   9.2295   9.2562   9.2986   9.3108   9.3330   9.3339
     9.3853   9.3987   9.4391   9.4619   9.4742   9.5371   9.5654   9.5750
     9.5754   9.5872   9.6152   9.6178   9.6232   9.6481   9.6614   9.6847
     9.7068   9.7126   9.7477   9.7894   9.8035   9.8154   9.8519   9.8548
     9.8768   9.9075   9.9425   9.9451   9.9543   9.9613  10.0174  10.0260
    10.0483  10.0525  10.1172  10.1400  10.2043  10.2337  10.3015  10.3049
    10.3189  10.3223  10.3668  10.3765  10.3829  10.4062  10.4121  10.4273
    10.4654  10.4777  10.5284  10.5520  10.5920  10.6077  10.6167  10.6424
    10.7026  10.7184  10.7359  10.7483  10.7547  10.7873  10.8404  10.8518
    10.8530  10.8625  10.8925  10.9332  10.9470  10.9591  10.9756  11.0054
    11.0205  11.0363  11.0406  11.0712

          k = 0.0000 0.0000 0.0153 (103453 PWs)   bands (ev):

   -21.0818 -20.9044 -20.6022 -20.5234 -20.4162 -20.0504 -19.9919 -19.8519
   -19.6692 -19.5097 -19.2910 -19.2328 -18.8892 -18.7979 -18.7028 -18.5869
   -18.3777 -18.2564 -18.0205 -17.8960 -17.7218 -17.5875 -17.3743 -17.2859
   -17.1776 -17.1606 -16.8471 -16.7410 -16.5521 -16.3071 -16.2732 -16.2130
   -16.1868 -16.0698 -16.0154 -15.7687 -15.5349 -15.1311 -15.1085 -14.5298
   -14.4699 -14.3622 -14.2113 -14.1287 -14.0459 -13.9723 -13.9025 -13.8332
   -13.6314 -13.1676 -13.1527 -13.0686 -13.0134 -12.9008 -12.7971 -12.5593
   -12.4936 -12.1327 -11.8836 -11.7161 -11.6304 -11.5805 -11.5376 -11.5211
   -11.3220 -11.1402 -10.9663 -10.8313 -10.7755 -10.6550 -10.5603 -10.3902
   -10.2759 -10.1923 -10.0682 -10.0216  -9.8991  -9.8045  -9.5933  -9.4835
    -9.4179  -9.3425  -9.2774  -9.1532  -9.1115  -8.9831  -8.9650  -8.9412
    -8.9238  -8.8800  -8.7455  -8.6911  -8.6040  -8.5334  -8.4875  -8.4611
    -8.4158  -8.3837  -8.3456  -8.2539  -8.2442  -8.1912  -8.1575  -8.0461
    -7.9473  -7.9453  -7.9004  -7.8646  -7.8302  -7.7480  -7.7046  -7.6353
    -7.5936  -7.5392  -7.5319  -7.5041  -7.3274  -7.3174  -7.2370  -7.1276
    -7.0951  -7.0596  -6.9836  -6.9630  -6.8632  -6.7395  -6.7169  -6.6339
    -6.5447  -6.5280  -6.4317  -6.3358  -6.3290  -6.0954  -6.0745  -6.0253
    -5.9685  -5.9019  -5.8712  -5.6438  -5.6253  -5.5230  -5.4440  -5.4287
    -5.2498  -5.1493  -5.0924  -5.0549  -4.8974  -4.8568  -4.7464  -4.5689
    -4.3693  -4.3421  -4.0851  -4.0428  -3.9730  -3.8943  -3.8387  -3.6205
    -3.4446  -3.1928  -2.6016  -2.5693  -0.9745  -0.9268  -0.4481  -0.2281
     0.0026   0.0420   0.1019   0.1174   0.1882   0.2974   0.4161   0.6842
     0.8624   0.9979   1.1544   1.1943   1.2180   1.4523   1.4555   1.5285
     1.5817   1.7589   1.7627   1.8244   1.9024   1.9671   2.1391   2.2329
     2.2583   2.2728   2.3487   2.3823   2.5435   2.6260   2.6525   2.7328
     2.8112   2.8522   2.8806   2.9328   2.9621   3.0051   3.0308   3.0783
     3.0851   3.2158   3.2363   3.2637   3.3488   3.4162   3.4435   3.4926
     3.5464   3.5876   3.5965   3.6403   3.6459   3.7691   3.8132   3.8794
     3.8921   4.0063   4.0284   4.0455   4.1140   4.1292   4.1419   4.2189
     4.2204   4.2761   4.3107   4.3334   4.3557   4.4188   4.4766   4.4934
     4.5028   4.5622   4.6131   4.6480   4.6735   4.7422   4.7531   4.7827
     4.7917   4.8431   4.8579   4.8882   4.9136   4.9595   5.0581   5.0752
     5.0889   5.1555   5.1863   5.2256   5.2521   5.3080   5.3343   5.4700
     5.5057   5.5085   5.5133   5.5449   5.5680   5.6165   5.6298   5.6676
     5.7117   5.7129   5.7441   5.7778   5.7830   5.8026   5.8218   5.8448
     5.8615   5.9042   5.9333   5.9443   6.0009   6.0302   6.0602   6.0674
     6.1123   6.1213   6.1405   6.1722   6.2274   6.2378   6.3047   6.3367
     6.3698   6.3803   6.4293   6.4600   6.5125   6.5443   6.5779   6.5908
     6.6173   6.6413   6.6673   6.6754   6.7030   6.7379   6.7684   6.7695
     6.7880   6.7920   6.7972   6.8173   6.8349   6.8582   6.8704   6.8838
     6.9107   6.9368   6.9505   6.9813   6.9947   7.0123   7.0350   7.0490
     7.0795   7.0919   7.1272   7.1401   7.1616   7.1725   7.2006   7.2365
     7.2682   7.2913   7.3035   7.3085   7.3532   7.3589   7.3737   7.3853
     7.3953   7.4461   7.4892   7.5195   7.5707   7.5882   7.6432   7.6545
     7.6638   7.7391   7.7580   7.7713   7.8101   7.8332   7.8575   7.8786
     7.8879   7.9306   7.9668   8.0098   8.0402   8.0569   8.0819   8.1070
     8.1401   8.1456   8.1491   8.1737   8.1882   8.2044   8.2059   8.2514
     8.2680   8.3067   8.3359   8.3486   8.3693   8.3709   8.3800   8.4004
[...]
    -5.2730  -5.2525  -5.1840  -5.1343  -5.0043  -4.7450  -4.5314  -4.4741
    -4.3543  -4.3106  -4.2137  -4.0412  -3.9737  -3.9288  -3.8333  -3.7402
    -3.2474  -3.0277  -2.9079  -2.6932  -0.8765  -0.6558  -0.5374  -0.2845
    -0.0183   0.0770   0.1160   0.2773   0.3410   0.4125   0.4439   0.5434
     0.5740   0.7080   0.7909   1.2804   1.3405   1.3513   1.5872   1.6331
     1.6445   1.6531   1.7069   1.8539   1.9409   2.0933   2.1932   2.1983
     2.2584   2.2671   2.3697   2.4929   2.5921   2.6659   2.6861   2.6866
     2.7534   2.7908   2.8461   2.8880   2.9963   3.0084   3.0874   3.1154
     3.1493   3.1552   3.2667   3.3173   3.3195   3.3713   3.4215   3.4216
     3.4860   3.6475   3.6591   3.7568   3.7900   3.7992   3.8359   3.8553
     4.0187   4.0227   4.0935   4.1003   4.1189   4.1319   4.1432   4.1707
     4.2069   4.2823   4.2824   4.3034   4.3339   4.3584   4.3949   4.3983
     4.4178   4.4579   4.4669   4.5235   4.5408   4.5602   4.5809   4.6607
     4.8419   4.9018   4.9434   4.9698   5.0036   5.0155   5.0601   5.0818
     5.1640   5.2012   5.2745   5.3090   5.3508   5.3806   5.4039   5.4140
     5.5051   5.5091   5.5111   5.5394   5.5672   5.5887   5.5982   5.6293
     5.6644   5.7009   5.7458   5.7593   5.7803   5.8435   5.8589   5.8936
     5.9184   5.9229   5.9516   5.9733   6.0215   6.0383   6.0428   6.0516
     6.1178   6.1235   6.1341   6.1718   6.1941   6.1970   6.2479   6.2617
     6.2968   6.3234   6.3919   6.4340   6.5116   6.5352   6.5610   6.5781
     6.6043   6.6326   6.6644   6.6651   6.7285   6.7499   6.7709   6.7812
     6.7854   6.8199   6.8475   6.8571   6.8623   6.8642   6.8858   6.8975
     6.9157   6.9308   6.9556   6.9985   7.0192   7.0305   7.0413   7.0758
     7.1372   7.1389   7.1525   7.1620   7.1906   7.2007   7.2081   7.2120
     7.2274   7.2835   7.3107   7.3520   7.3623   7.3738   7.4203   7.4286
     7.4375   7.4655   7.4948   7.5300   7.5376   7.5605   7.6054   7.6088
     7.6451   7.6866   7.7319   7.7538   7.7841   7.8345   7.8534   7.8607
     7.8797   7.9112   7.9429   7.9460   7.9948   8.0411   8.0689   8.0797
     8.1180   8.1332   8.1652   8.1941   8.1973   8.2262   8.2289   8.2503
     8.2705   8.3010   8.3647   8.3678   8.3886   8.4191   8.4398   8.4427
     8.4571   8.4687   8.5253   8.5443   8.5518   8.5809   8.5887   8.6407
     8.6673   8.6970   8.7212   8.7220   8.7479   8.7898   8.7981   8.8293
     8.8361   8.8929   8.9102   8.9180   8.9578   8.9735   8.9769   8.9912
     9.0121   9.0233   9.0655   9.0998   9.1289   9.1401   9.1639   9.1688
     9.1825   9.2007   9.2045   9.2314   9.2384   9.2581   9.2736   9.2752
     9.3082   9.3590   9.3720   9.3838   9.3838   9.4889   9.5248   9.5256
     9.5619   9.5708   9.6012   9.6153   9.6366   9.6707   9.7044   9.7098
     9.7152   9.7306   9.7538   9.7754   9.7945   9.8258   9.8326   9.8714
     9.8909   9.9238   9.9550   9.9639   9.9784  10.0459  10.0525  10.0689
    10.0692  10.1081  10.1419  10.1625  10.1704  10.2327  10.2335  10.2815
    10.2967  10.3066  10.3228  10.3657  10.4035  10.4242  10.4320  10.4502
    10.4895  10.5227  10.5653  10.5871  10.6019  10.6121  10.6234  10.6412
    10.6467  10.6864  10.7056  10.7100  10.7455  10.7542  10.7697  10.7773
    10.7971  10.8687  10.8778  10.8912  10.9064  10.9312  10.9552  10.9666
    10.9838  11.0037  11.0127  11.0374

          k = 0.0000 0.0000 0.0270 (103398 PWs)   bands (ev):

   -21.0311 -20.9960 -20.5607 -20.5028 -20.3215 -20.2318 -19.8641 -19.8289
   -19.7935 -19.6585 -19.1281 -19.0191 -18.9003 -18.8111 -18.7686 -18.6058
   -18.4176 -18.2860 -18.1433 -17.9136 -17.6614 -17.5911 -17.5400 -17.3331
   -17.0316 -16.8401 -16.6761 -16.6446 -16.6058 -16.5109 -16.3666 -16.2574
   -16.1970 -16.1452 -16.0559 -15.6988 -15.5302 -15.3611 -15.1668 -14.5512
   -14.4351 -14.1747 -14.0172 -13.9680 -13.9539 -13.8854 -13.7263 -13.6254
   -13.6037 -13.5155 -13.4202 -13.2788 -13.2554 -13.2007 -12.6942 -12.5458
   -12.4260 -11.9995 -11.8285 -11.7406 -11.6807 -11.5845 -11.4074 -11.2507
   -11.1477 -11.0583 -10.9950 -10.8825 -10.6438 -10.6166 -10.5791 -10.5089
   -10.4600 -10.4479 -10.3455 -10.1783  -9.6978  -9.5669  -9.4456  -9.3871
    -9.3311  -9.2976  -9.2781  -9.1795  -9.1143  -9.0920  -9.0511  -9.0295
    -8.9960  -8.9599  -8.8594  -8.7772  -8.6167  -8.5543  -8.4858  -8.4851
    -8.3943  -8.3454  -8.3041  -8.2485  -8.1885  -8.1440  -8.0888  -8.0260
    -7.9837  -7.9272  -7.8583  -7.7361  -7.7255  -7.7163  -7.6544  -7.6378
    -7.5902  -7.5705  -7.5194  -7.4507  -7.4058  -7.3056  -7.2775  -7.2200
    -7.1051  -7.0054  -6.9334  -6.8979  -6.8936  -6.8550  -6.7840  -6.6068
    -6.5902  -6.4626  -6.4585  -6.3594  -6.3479  -6.1339  -6.0719  -5.9993
    -5.9751  -5.9236  -5.9201  -5.8339  -5.6224  -5.3748  -5.3005  -5.2955
    -5.2702  -5.2525  -5.1949  -5.1579  -5.0129  -4.7409  -4.4937  -4.4707
    -4.3524  -4.3323  -4.2359  -4.0360  -3.9468  -3.9247  -3.8338  -3.7723
    -3.2176  -3.0255  -2.9293  -2.7011  -0.8715  -0.6425  -0.5297  -0.3113
    -0.0197   0.0838   0.1447   0.2783   0.3164   0.4282   0.4786   0.5244
     0.5809   0.6594   0.7764   1.2892   1.3297   1.3603   1.5945   1.6438
     1.6440   1.6533   1.6963   1.8564   1.9331   2.1096   2.2050   2.2163
     2.2299   2.2607   2.3459   2.5110   2.6185   2.6486   2.6889   2.7236
     2.7336   2.7728   2.8467   2.8881   2.9780   3.0114   3.0868   3.1121
     3.1538   3.1748   3.2592   3.2879   3.3243   3.3621   3.4293   3.4772
     3.4808   3.6616   3.6743   3.7341   3.7587   3.8056   3.8136   3.8678
     4.0141   4.0356   4.0974   4.1047   4.1254   4.1359   4.1484   4.1662
     4.2128   4.2660   4.2857   4.3159   4.3341   4.3529   4.3875   4.4051
     4.4241   4.4384   4.4492   4.5089   4.5373   4.5683   4.5928   4.6520
     4.7927   4.9097   4.9499   4.9715   5.0055   5.0349   5.0765   5.1073
     5.1730   5.1782   5.2659   5.2820   5.3622   5.3831   5.4342   5.4353
     5.4780   5.5049   5.5192   5.5483   5.5531   5.5827   5.6046   5.6173
     5.6762   5.6843   5.7474   5.7527   5.7818   5.8546   5.8634   5.8745
     5.9180   5.9228   5.9729   5.9909   6.0103   6.0294   6.0582   6.0807
     6.1116   6.1226   6.1350   6.1581   6.1694   6.1777   6.2524   6.2781
     6.2956   6.3273   6.3914   6.4363   6.4872   6.5197   6.5564   6.5969
     6.6055   6.6140   6.6665   6.7001   6.7307   6.7510   6.7571   6.7770
     6.7841   6.8262   6.8462   6.8610   6.8662   6.8700   6.8887   6.8895
     6.9004   6.9292   6.9587   7.0019   7.0101   7.0162   7.0528   7.0719
     7.1345   7.1477   7.1559   7.1806   7.1938   7.1955   7.2074   7.2236
     7.2422   7.2640   7.3322   7.3607   7.3653   7.3725   7.4106   7.4273
     7.4394   7.4683   7.5109   7.5193   7.5407   7.5628   7.5961   7.6019
     7.6507   7.6700   7.7314   7.7537   7.7681   7.8202   7.8568   7.8768
     7.8952   7.9079   7.9512   7.9592   7.9959   8.0358   8.0432   8.0817
     8.1046   8.1300   8.1739   8.1747   8.1954   8.2036   8.2277   8.2601
     8.2770   8.2876   8.3665   8.3758   8.3837   8.4161   8.4237   8.4449
     8.4630   8.4822   8.5371   8.5463   8.5725   8.5833   8.5926   8.6457
     8.6564   8.7021   8.7392   8.7430   8.7872   8.7902   8.7914   8.8016
     8.8631   8.8727   8.9165   8.9322   8.9514   8.9568   8.9655   8.9893
     9.0069   9.0295   9.0409   9.0844   9.1022   9.1393   9.1767   9.1799
     9.1954   9.2001   9.2072   9.2216   9.2331   9.2589   9.2755   9.2970
     9.3311   9.3479   9.3509   9.3578   9.3833   9.4801   9.5247   9.5464
     9.5546   9.5564   9.5938   9.6236   9.6480   9.6638   9.7082   9.7111
     9.7181   9.7260   9.7445   9.7760   9.7926   9.8228   9.8485   9.8860
     9.9111   9.9300   9.9476   9.9544   9.9588  10.0138  10.0419  10.0453
    10.0615  10.1271  10.1575  10.1579  10.1851  10.2506  10.2676  10.2925
    10.3092  10.3122  10.3306  10.3527  10.4084  10.4104  10.4362  10.4573
    10.4694  10.5237  10.5749  10.5914  10.6068  10.6164  10.6196  10.6337
    10.6542  10.6720  10.6961  10.7074  10.7348  10.7355  10.7632  10.7798
    10.7807  10.8579  10.8604  10.8919  10.9104  10.9158  10.9601  10.9709
    11.0026  11.0029  11.0179  11.0269

          k = 0.0000 0.0000 0.0282 (103420 PWs)   bands (ev):

   -21.0261 -21.0019 -20.5583 -20.5058 -20.3020 -20.2523 -19.8461 -19.8281
   -19.8101 -19.6623 -19.1178 -19.0285 -18.8678 -18.8110 -18.8013 -18.6078
   -18.3867 -18.3181 -18.1393 -17.9168 -17.6397 -17.5927 -17.5611 -17.3351
   -17.0280 -16.7959 -16.7108 -16.6517 -16.5888 -16.5338 -16.3263 -16.2575
   -16.2357 -16.1458 -16.0557 -15.6686 -15.5591 -15.3590 -15.1688 -14.5518
   -14.4369 -14.1722 -14.0161 -13.9691 -13.9139 -13.8729 -13.7801 -13.5890
   -13.5739 -13.5204 -13.4702 -13.2821 -13.2534 -13.2145 -12.6883 -12.5508
   -12.4229 -11.9888 -11.8400 -11.7441 -11.6617 -11.6018 -11.3933 -11.2626
   -11.1341 -11.0519 -11.0100 -10.8238 -10.7026 -10.6100 -10.5852 -10.4937
   -10.4665 -10.4519 -10.3514 -10.1895  -9.6874  -9.5303  -9.4572  -9.3988
    -9.3457  -9.2950  -9.2798  -9.1614  -9.1254  -9.0858  -9.0585  -9.0240
    -9.0023  -8.9525  -8.8756  -8.7798  -8.6096  -8.5515  -8.4939  -8.4895
    -8.3936  -8.3435  -8.3071  -8.2243  -8.1905  -8.1692  -8.0864  -8.0140
    -7.9921  -7.8997  -7.8635  -7.7345  -7.7235  -7.7083  -7.6707  -7.6446
    -7.5895  -7.5747  -7.5256  -7.4470  -7.3956  -7.2937  -7.2759  -7.2195
    -7.1311  -6.9807  -6.9368  -6.9062  -6.8829  -6.8677  -6.7992  -6.5925
    -6.5666  -6.4924  -6.4409  -6.3691  -6.3651  -6.1269  -6.0343  -6.0024
    -5.9739  -5.9583  -5.9259  -5.8283  -5.6288  -5.3541  -5.3132  -5.2739
    -5.2606  -5.2529  -5.2038  -5.1807  -5.0176  -4.7384  -4.4704  -4.4552
    -4.3834  -4.3220  -4.2547  -4.0333  -3.9387  -3.9032  -3.8360  -3.8000
    -3.1957  -3.0288  -2.9413  -2.7061  -0.8683  -0.6359  -0.5206  -0.3307
    -0.0205   0.0859   0.1745   0.2787   0.2870   0.4487   0.4981   0.5231
     0.5881   0.6125   0.7667   1.2981   1.3196   1.3659   1.6006   1.6366
     1.6509   1.6616   1.6867   1.8597   1.9248   2.1285   2.2049   2.2110
     2.2307   2.2616   2.3238   2.5265   2.6252   2.6536   2.6917   2.7091
     2.7528   2.7632   2.8360   2.9020   2.9557   3.0133   3.0886   3.1093
     3.1514   3.2021   3.2547   3.2589   3.3308   3.3530   3.4357   3.4700
     3.5418   3.6530   3.6830   3.7008   3.7490   3.8009   3.8135   3.8758
     4.0087   4.0462   4.1015   4.1063   4.1139   4.1424   4.1530   4.1781
     4.2269   4.2443   4.2703   4.3272   4.3451   4.3585   4.3778   4.4132
     4.4153   4.4301   4.4449   4.4957   4.5160   4.5756   4.6196   4.6590
     4.7447   4.9163   4.9464   4.9814   5.0014   5.0487   5.0891   5.1355
     5.1658   5.1752   5.2433   5.2625   5.3809   5.3865   5.4431   5.4587
     5.4653   5.5087   5.5248   5.5380   5.5560   5.5594   5.6017   5.6152
     5.6616   5.7178   5.7481   5.7491   5.7810   5.8233   5.8597   5.8864
     5.9186   5.9344   5.9830   5.9914   6.0188   6.0294   6.0690   6.0943
     6.1021   6.1276   6.1356   6.1487   6.1536   6.1725   6.2361   6.2477
     6.3419   6.3492   6.3959   6.4336   6.4393   6.5286   6.5357   6.5953
     6.5991   6.6471   6.6677   6.7228   6.7306   6.7404   6.7527   6.7793
     6.7884   6.8269   6.8291   6.8429   6.8603   6.8746   6.8905   6.9044
     6.9154   6.9270   6.9602   6.9804   7.0029   7.0059   7.0691   7.0842
     7.1336   7.1500   7.1578   7.1802   7.1936   7.1982   7.2055   7.2232
     7.2637   7.2728   7.3161   7.3391   7.3728   7.4019   7.4174   7.4320
     7.4399   7.4591   7.4910   7.5011   7.5503   7.5902   7.6010   7.6129
     7.6507   7.6574   7.7095   7.7502   7.7682   7.7837   7.8640   7.8933
     7.9135   7.9219   7.9544   7.9675   7.9941   8.0133   8.0477   8.0783
     8.0859   8.1399   8.1566   8.1823   8.1897   8.1941   8.2220   8.2566
     8.2765   8.3094   8.3392   8.3749   8.3983   8.3996   8.4212   8.4337
     8.4913   8.5053   8.5279   8.5512   8.5746   8.5751   8.6126   8.6394
     8.6552   8.7130   8.7390   8.7482   8.7724   8.7964   8.8240   8.8279
     8.8513   8.8849   8.9098   8.9231   8.9474   8.9530   8.9588   8.9845
     8.9852   9.0180   9.0500   9.0871   9.0876   9.1378   9.1587   9.1831
     9.1859   9.2058   9.2176   9.2404   9.2456   9.2647   9.2747   9.3012
     9.3047   9.3300   9.3373   9.3803   9.4065   9.4665   9.5086   9.5246
     9.5503   9.5681   9.6033   9.6346   9.6537   9.6630   9.6990   9.7141
     9.7183   9.7354   9.7358   9.7612   9.7927   9.8318   9.8690   9.9020
     9.9142   9.9282   9.9330   9.9519   9.9598   9.9933  10.0242  10.0297
    10.0581  10.1346  10.1610  10.1736  10.1913  10.2404  10.2682  10.3200
    10.3281  10.3342  10.3434  10.3692  10.3913  10.3977  10.4158  10.4701
    10.4770  10.4892  10.5632  10.5884  10.6206  10.6240  10.6275  10.6520
    10.6578  10.6700  10.6776  10.6940  10.7173  10.7266  10.7562  10.7815
    10.7935  10.8400  10.8546  10.8747  10.9023  10.9405  10.9624  10.9733
    10.9999  11.0072  11.0129  11.0310

          k = 0.0000 0.0000-0.0293 (103456 PWs)   bands (ev):

   -21.0238 -21.0045 -20.5575 -20.5069 -20.2897 -20.2649 -19.8318 -19.8276
   -19.8242 -19.6635 -19.1138 -19.0323 -18.8377 -18.8315 -18.8109 -18.6085
   -18.3635 -18.3416 -18.1380 -17.9179 -17.6281 -17.5953 -17.5705 -17.3357
   -17.0268 -16.7547 -16.7501 -16.6537 -16.5762 -16.5477 -16.2973 -16.2664
   -16.2554 -16.1458 -16.0556 -15.6537 -15.5737 -15.3582 -15.1696 -14.5519
   -14.4375 -14.1714 -14.0158 -13.9697 -13.9029 -13.8336 -13.8308 -13.5810
   -13.5373 -13.5218 -13.5096 -13.2832 -13.2513 -13.2205 -12.6862 -12.5526
   -12.4218 -11.9848 -11.8443 -11.7452 -11.6516 -11.6114 -11.3876 -11.2678
   -11.1287 -11.0483 -11.0172 -10.7680 -10.7587 -10.6059 -10.5886 -10.4850
   -10.4720 -10.4534 -10.3534 -10.1934  -9.6840  -9.5046  -9.4769  -9.3992
    -9.3522  -9.2942  -9.2801  -9.1481  -9.1363  -9.0827  -9.0619  -9.0231
    -9.0036  -8.9479  -8.8830  -8.7806  -8.6068  -8.5505  -8.4973  -8.4909
    -8.3934  -8.3427  -8.3082  -8.2071  -8.1912  -8.1867  -8.0856  -8.0040
    -8.0012  -7.8817  -7.8727  -7.7391  -7.7209  -7.6976  -7.6825  -7.6464
    -7.5893  -7.5761  -7.5276  -7.4456  -7.3920  -7.2905  -7.2762  -7.2146
    -7.1435  -6.9647  -6.9441  -6.9128  -6.8765  -6.8710  -6.8057  -6.5921
    -6.5348  -6.5237  -6.4298  -6.3800  -6.3667  -6.1244  -6.0038  -5.9964
    -5.9963  -5.9732  -5.9268  -5.8263  -5.6310  -5.3382  -5.3282  -5.2600
    -5.2564  -5.2542  -5.2077  -5.1923  -5.0190  -4.7376  -4.4695  -4.4229
    -4.4151  -4.3151  -4.2635  -4.0324  -3.9381  -3.8881  -3.8399  -3.8120
    -3.1873  -3.0315  -2.9448  -2.7078  -0.8672  -0.6341  -0.5164  -0.3380
    -0.0207   0.0865   0.1900   0.2712   0.2790   0.4634   0.4845   0.5576
     0.5744   0.5910   0.7633   1.3044   1.3129   1.3677   1.6032   1.6336
     1.6532   1.6665   1.6813   1.8614   1.9213   2.1393   2.1923   2.2136
     2.2335   2.2673   2.3124   2.5330   2.6197   2.6783   2.6806   2.6960
     2.7602   2.7657   2.8288   2.9145   2.9407   3.0140   3.0896   3.1082
     3.1502   3.2289   3.2316   3.2533   3.3350   3.3479   3.4386   3.4669
     3.5996   3.6055   3.6730   3.7209   3.7332   3.7979   3.8165   3.8785
     4.0070   4.0498   4.1050   4.1071   4.1075   4.1441   4.1508   4.1918
     4.2302   4.2464   4.2491   4.3318   4.3556   4.3630   4.3717   4.4000
     4.4208   4.4304   4.4446   4.4973   4.5005   4.5780   4.6245   4.6877
     4.7068   4.9194   4.9439   4.9891   4.9958   5.0538   5.0969   5.1360
     5.1749   5.1808   5.2167   5.2621   5.3796   5.4049   5.4273   5.4629
     5.4770   5.5266   5.5275   5.5300   5.5323   5.5593   5.5993   5.6157
     5.6569   5.7390   5.7465   5.7534   5.7754   5.8019   5.8607   5.8918
     5.9151   5.9520   5.9641   5.9972   6.0282   6.0385   6.0768   6.0799
     6.0955   6.1357   6.1363   6.1394   6.1687   6.1721   6.2081   6.2463
     6.3564   6.3814   6.3994   6.4017   6.4296   6.5268   6.5336   6.5927
     6.5951   6.6681   6.6797   6.6938   6.7303   6.7534   6.7750   6.7798
     6.7897   6.7906   6.8296   6.8414   6.8601   6.8781   6.8911   6.9069
     6.9256   6.9350   6.9599   6.9603   7.0006   7.0045   7.0681   7.1005
     7.1335   7.1461   7.1583   7.1765   7.1989   7.1997   7.2038   7.2145
     7.2809   7.2957   7.3000   7.3149   7.3749   7.4183   7.4223   7.4398
     7.4528   7.4535   7.4662   7.4828   7.5788   7.5835   7.5882   7.6432
     7.6537   7.6651   7.6754   7.7452   7.7700   7.7723   7.8650   7.9057
     7.9126   7.9344   7.9555   7.9781   7.9815   8.0035   8.0622   8.0627
     8.0838   8.1459   8.1468   8.1855   8.1862   8.1936   8.2191   8.2482
     8.2900   8.3211   8.3221   8.3664   8.3955   8.4140   8.4157   8.4258
     8.5050   8.5183   8.5349   8.5469   8.5503   8.5784   8.6322   8.6413
     8.6449   8.7216   8.7336   8.7482   8.7603   8.8123   8.8296   8.8425
     8.8698   8.8720   8.8924   8.9258   8.9510   8.9529   8.9534   8.9752
     8.9823   9.0083   9.0500   9.0824   9.1136   9.1292   9.1370   9.1841
     9.1865   9.2095   9.2179   9.2531   9.2652   9.2672   9.2700   9.2869
     9.2978   9.3259   9.3267   9.3891   9.4430   9.4471   9.4839   9.5246
     9.5489   9.5664   9.6265   9.6277   9.6518   9.6632   9.6989   9.7135
     9.7239   9.7297   9.7375   9.7498   9.8004   9.8319   9.8763   9.9117
     9.9176   9.9239   9.9362   9.9377   9.9587   9.9948  10.0124  10.0246
    10.0568  10.1323  10.1789  10.1798  10.1820  10.2325  10.2678  10.3275
    10.3316  10.3433  10.3699  10.3777  10.3886  10.3924  10.4092  10.4403
    10.4738  10.4974  10.5665  10.5726  10.6238  10.6390  10.6436  10.6436
    10.6602  10.6664  10.6745  10.6907  10.7074  10.7221  10.7499  10.7822
    10.8092  10.8308  10.8525  10.8624  10.9008  10.9599  10.9630  10.9723
    10.9883  11.0076  11.0110  11.0384

     the Fermi energy is    -2.2676 ev

     Writing output data file AGNR_10_Defect_C.save/

     init_run     :     16.02s CPU     16.69s WALL (       1 calls)
     electrons    :  10497.51s CPU  10623.73s WALL (       1 calls)

     Called by init_run:
     wfcinit      :      0.00s CPU      0.00s WALL (       1 calls)
     potinit      :      0.98s CPU      1.09s WALL (       1 calls)
     hinit0       :     12.33s CPU     12.42s WALL (       1 calls)

     Called by electrons:
     c_bands      :  10497.49s CPU  10623.08s WALL (       1 calls)
     v_of_rho     :      0.77s CPU      0.82s WALL (       1 calls)
     newd         :      0.67s CPU      0.97s WALL (       1 calls)

     Called by c_bands:
     init_us_2    :      1.09s CPU      1.19s WALL (      26 calls)
     cegterg      :  10327.17s CPU  10441.97s WALL (     145 calls)

     Called by sum_band:

     Called by *egterg:
     h_psi        :   2761.54s CPU   2805.41s WALL (    2857 calls)
     s_psi        :    401.00s CPU    403.01s WALL (    2857 calls)
     g_psi        :     13.86s CPU     13.96s WALL (    2686 calls)
     cdiaghg      :   4416.03s CPU   4434.48s WALL (    2712 calls)

     Called by h_psi:
     h_psi:pot    :   2743.40s CPU   2779.73s WALL (    2857 calls)
     h_psi:calbec :    387.28s CPU    394.29s WALL (    2857 calls)
     vloc_psi     :   1956.80s CPU   1983.78s WALL (    2857 calls)
     add_vuspsi   :    399.28s CPU    401.57s WALL (    2857 calls)

     General routines
     calbec       :    387.26s CPU    394.20s WALL (    2857 calls)
     fft          :      0.84s CPU      0.91s WALL (      14 calls)
     ffts         :      0.00s CPU      0.01s WALL (       1 calls)
     fftw         :   1542.03s CPU   1563.67s WALL (  681262 calls)
     interpolate  :      0.05s CPU      0.05s WALL (       1 calls)
     davcio       :      0.00s CPU      7.01s WALL (      52 calls)

     Parallel routines
     fft_scatt_xy :    261.07s CPU    263.61s WALL (  681277 calls)
     fft_scatt_yz :    256.48s CPU    261.91s WALL (  681277 calls)

     PWSCF        :     2h55m CPU       55h 3m WALL

       2h

   This run was terminated on:  17:40:37  16Apr2021            

=------------------------------------------------------------------------------=
   JOB DONE.
=------------------------------------------------------------------------------=
