
     Program PWSCF v.6.3 starts on 16Apr2021 at 17: 4:46 

     This program is part of the open-source Quantum ESPRESSO suite
     for quantum simulation of materials; please cite
         "P. Giannozzi et al., J. Phys.:Condens. Matter 21 395502 (2009);
         "P. Giannozzi et al., J. Phys.:Condens. Matter 29 465901 (2017);
          URL http://www.quantum-espresso.org", 
     in publications or presentations arising from this work. More details at
     http://www.quantum-espresso.org/quote

     Parallel version (MPI), running on    16 processors
     R & G space division:  proc/nbgrp/npool/nimage =      16
     Waiting for input...
     Reading input from standard input
     Message from routine read_cards :
     DEPRECATED: no units specified in CELL_PARAMETERS card

     Current dimensions of program PWSCF are:
     Max number of different atomic species (ntypx) = 10
     Max number of k-points (npk) =  40000
     Max angular momentum in pseudopotentials (lmaxx) =  3

     Atomic positions and unit cell read from directory:
     /home/zfwang/scratch/GNRDATASET/AGNR/AGNR_10_Defect_D/AGNR_10_Defect_D.save/


     Subspace diagonalization in iterative solution of the eigenvalue problem:
     a serial algorithm will be used


     Parallelization info
     --------------------
     sticks:   dense  smooth     PW     G-vecs:    dense   smooth      PW
     Min        1795     598    154               268889    51736    6769
     Max        1797     599    155               268893    51739    6771
     Sum       28723    9573   2475              4302255   827793  108323



     bravais-lattice index     =            0
     lattice parameter (alat)  =       1.8897  a.u.
     unit-cell volume          =   24226.2045 (a.u.)^3
     number of atoms/cell      =           96
     number of atomic types    =            2
     number of electrons       =       330.00
     number of Kohn-Sham states=          500
     kinetic-energy cutoff     =      40.0000  Ry
     charge density cutoff     =     480.0000  Ry
     Exchange-correlation      = PBE ( 1  4  3  4 0 0)

     celldm(1)=  18.897261  celldm(2)=   2.106780  celldm(3)=   1.704000
     celldm(4)=   0.000000  celldm(5)=   0.000000  celldm(6)=   0.000000

     crystal axes: (cart. coord. in units of alat)
               a(1) = (  10.000000   0.000000   0.000000 )  
               a(2) = (   0.000000  21.067800   0.000000 )  
               a(3) = (   0.000000   0.000000  17.040000 )  

     reciprocal axes: (cart. coord. in units 2 pi/alat)
               b(1) = (  0.100000  0.000000  0.000000 )  
               b(2) = (  0.000000  0.047466  0.000000 )  
               b(3) = (  0.000000  0.000000  0.058685 )  


     PseudoPot. # 1 for C  read from file:
     /home/zfwang/hp_home/MySoftware/qe-6.3/pseudo/C.pbe-n-rrkjus_psl.0.1.UPF
     MD5 check sum: fff530ed632a789b3b184014e67dd7f1
     Pseudo is Ultrasoft + core correction, Zval =  4.0
     Generated using "atomic" code by A. Dal Corso v.5.0.2 svn rev. 9415
     Using radial grid of 1073 points,  4 beta functions with: 
                l(1) =   0
                l(2) =   0
                l(3) =   1
                l(4) =   1
     Q(r) pseudized with 0 coefficients 


     PseudoPot. # 2 for H  read from file:
     /home/zfwang/hp_home/MySoftware/qe-6.3/pseudo/H.pbe-rrkjus_psl.0.1.UPF
     MD5 check sum: e164a6907b691c6980f16942be34de84
     Pseudo is Ultrasoft, Zval =  1.0
     Generated using "atomic" code by A. Dal Corso v.5.0.2 svn rev. 9415
     Using radial grid of  929 points,  2 beta functions with: 
                l(1) =   0
                l(2) =   0
     Q(r) pseudized with 0 coefficients 


     atomic species   valence    mass     pseudopotential
        C              4.00    12.01070     C ( 1.00)
        H              1.00     1.00794     H ( 1.00)

     No symmetry found



   Cartesian axes

     site n.     atom                  positions (alat units)
         1           C   tau(   1) = (   5.0000005   4.9902467   2.7863255  )
         2           C   tau(   2) = (   4.9999995   4.9811338   7.0591717  )
         3           C   tau(   3) = (   4.9999999   5.0122145  11.3283771  )
         4           C   tau(   4) = (   5.0000008   5.0136393  15.5716218  )
         5           C   tau(   5) = (   5.0000002   6.1941749   3.5268273  )
         6           C   tau(   6) = (   4.9999995   6.1894123   7.7950338  )
         7           C   tau(   7) = (   4.9999999   6.2269201  12.0533153  )
         8           C   tau(   8) = (   5.0000005   6.2208367  16.3044127  )
         9           C   tau(   9) = (   5.0000006   4.9988541   1.4218774  )
        10           C   tau(  10) = (   4.9999997   4.9806694   5.6935765  )
        11           C   tau(  11) = (   4.9999996   4.9954242   9.9648537  )
        12           C   tau(  12) = (   5.0000006   5.0190185  14.2089658  )
        13           C   tau(  13) = (   5.0000003   7.4271317   2.8230488  )
        14           C   tau(  14) = (   4.9999997   7.4169128   7.0871375  )
        15           C   tau(  15) = (   4.9999997   7.4559457  11.3485630  )
        16           C   tau(  16) = (   5.0000003   7.4538296  15.6025744  )
        17           C   tau(  17) = (   5.0000002   8.6590059   3.5353659  )
        18           C   tau(  18) = (   4.9999998   8.6530622   7.7980727  )
        19           C   tau(  19) = (   4.9999997   8.7032919  12.0568746  )
        20           C   tau(  20) = (   5.0000001   8.6887311  16.3134229  )
        21           C   tau(  21) = (   5.0000005   6.2110712   0.6921704  )
        22           C   tau(  22) = (   5.0000000   6.1881822   4.9565814  )
        23           C   tau(  23) = (   4.9999995   6.1977925   9.2241489  )
        24           C   tau(  24) = (   5.0000003   6.2295555  13.4791906  )
        25           C   tau(  25) = (   5.0000004   7.4371111   1.3982519  )
        26           C   tau(  26) = (   4.9999999   7.4171218   5.6624391  )
        27           C   tau(  27) = (   4.9999996   7.4328544   9.9260237  )
        28           C   tau(  28) = (   5.0000003   7.4623446  14.1799262  )
        29           C   tau(  29) = (   5.0000001   9.8957111   2.8220249  )
        30           C   tau(  30) = (   5.0000001   9.8797984   7.0793845  )
        31           C   tau(  31) = (   4.9999996   9.9403033  11.3443013  )
        32           C   tau(  32) = (   4.9999999   9.9281554  15.6026503  )
        33           C   tau(  33) = (   5.0000001  11.1196166   3.5291334  )
        34           C   tau(  34) = (   5.0000001  11.1101024   7.7859875  )
        35           C   tau(  35) = (   4.9999997  11.2002674  12.0454017  )
        36           C   tau(  36) = (   4.9999997  11.1531909  16.3161004  )
        37           C   tau(  37) = (   5.0000002   8.6764011   0.6871402  )
        38           C   tau(  38) = (   5.0000002   8.6529424   4.9490405  )
        39           C   tau(  39) = (   4.9999997   8.6621287   9.2128661  )
        40           C   tau(  40) = (   5.0000000   8.7022652  13.4700520  )
        41           C   tau(  41) = (   4.9999999   9.9054472   1.4022078  )
        42           C   tau(  42) = (   5.0000002   9.8832460   5.6621709  )
        43           C   tau(  43) = (   4.9999997   9.8976631   9.9258275  )
        44           C   tau(  44) = (   4.9999999   9.9431131  14.1793180  )
        45           C   tau(  45) = (   4.9999999  12.3571520   2.8331037  )
        46           C   tau(  46) = (   5.0000005  12.3250109   7.0497557  )
        47           C   tau(  47) = (   4.9999998  12.4388536  11.3359888  )
        48           C   tau(  48) = (   4.9999996  12.3896112  15.6138056  )
        49           C   tau(  49) = (   4.9999999  13.5947283   3.5485105  )
        50           C   tau(  50) = (   5.0000001  13.5476884   7.7568498  )
        51           C   tau(  51) = (   5.0000001  13.7173623  12.0735530  )
        52           C   tau(  52) = (   4.9999996  13.6151900  16.3491354  )
        53           C   tau(  53) = (   4.9999997  11.1394150   0.7022964  )
        54           C   tau(  54) = (   5.0000004  11.1149998   4.9488573  )
        55           C   tau(  55) = (   4.9999999  11.1131685   9.2097895  )
        56           C   tau(  56) = (   4.9999997  11.1822036  13.4764051  )
        57           C   tau(  57) = (   4.9999996  12.3623534   1.4235169  )
        58           C   tau(  58) = (   5.0000004  12.3363956   5.6500533  )
        59           C   tau(  59) = (   4.9999997  12.3529483   9.9097049  )
        60           C   tau(  60) = (   4.9999996  12.4126588  14.1972112  )
        61           C   tau(  61) = (   4.9999998  14.8260306   2.8546923  )
        62           C   tau(  62) = (   5.0000002  14.8619976   7.1053784  )
        63           C   tau(  63) = (   5.0000011  15.0304775  11.5381239  )
        64           C   tau(  64) = (   4.9999997  14.8514982  15.6793804  )
        65           C   tau(  65) = (   4.9999999  16.0340482   3.5682587  )
        66           C   tau(  66) = (   5.0000004  16.0374220   7.7853616  )
        67           C   tau(  67) = (   5.0000004  16.1999535  12.2707697  )
        68           C   tau(  68) = (   4.9999999  16.0518282  16.4115971  )
        69           C   tau(  69) = (   4.9999996  13.6036644   0.7247669  )
        70           C   tau(  70) = (   5.0000003  13.5992792   4.9626586  )
        71           C   tau(  71) = (   4.9999993  13.4925249   9.1101021  )
        72           C   tau(  72) = (   4.9999996  13.6690556  13.5031961  )
        73           C   tau(  73) = (   4.9999997  14.8266137   1.4308448  )
        74           C   tau(  74) = (   5.0000003  14.8317008   5.6533138  )
        75           C   tau(  75) = (   4.9999995  14.8868776  14.2518798  )
        76           C   tau(  76) = (   5.0000000  16.0416607   0.7307962  )
        77           C   tau(  77) = (   5.0000002  16.0314297   4.9330232  )
        78           C   tau(  78) = (   4.9999994  16.1402953  13.6334915  )
        79           H   tau(  79) = (   5.0000004   4.0318763   3.2990000  )
        80           H   tau(  80) = (   4.9999993   4.0250872   7.5761887  )
        81           H   tau(  81) = (   5.0000000   4.0624563  11.8556167  )
        82           H   tau(  82) = (   5.0000011   4.0575647  16.0880714  )
        83           H   tau(  83) = (   5.0000006   4.0452978   0.9012318  )
        84           H   tau(  84) = (   4.9999996   4.0243806   5.1768471  )
        85           H   tau(  85) = (   4.9999995   4.0345269   9.4564462  )
        86           H   tau(  86) = (   5.0000007   4.0645984  13.6906752  )
        87           H   tau(  87) = (   5.0000001  16.9889710   3.0518326  )
        88           H   tau(  88) = (   5.0000004  16.9974601   7.2801676  )
        89           H   tau(  89) = (   5.0000007  17.1538932  11.7426914  )
        90           H   tau(  90) = (   5.0000002  17.0146306  15.9148947  )
        91           H   tau(  91) = (   5.0000003  16.9915671   1.2556112  )
        92           H   tau(  92) = (   5.0000003  16.9843690   5.4541369  )
        93           H   tau(  93) = (   4.9999992  17.0602954  14.2041707  )
        94           H   tau(  94) = (   5.0000032  15.2841014  10.5057731  )
        95           H   tau(  95) = (   5.0000005  16.1115487   8.8672695  )
        96           H   tau(  96) = (   4.9999976  14.4393786   9.5614927  )

     number of k points=    26  Marzari-Vanderbilt smearing, width (Ry)=  0.0100
                       cart. coord. in units 2pi/alat
        k(    1) = (   0.0000000   0.0000000   0.0000000), wk =   0.0400000
        k(    2) = (   0.0000000   0.0000000   0.0011737), wk =   0.0800000
        k(    3) = (   0.0000000   0.0000000   0.0023474), wk =   0.0800000
        k(    4) = (   0.0000000   0.0000000   0.0035211), wk =   0.0800000
        k(    5) = (   0.0000000   0.0000000   0.0046948), wk =   0.0800000
        k(    6) = (   0.0000000   0.0000000   0.0058685), wk =   0.0800000
        k(    7) = (   0.0000000   0.0000000   0.0070423), wk =   0.0800000
        k(    8) = (   0.0000000   0.0000000   0.0082160), wk =   0.0800000
        k(    9) = (   0.0000000   0.0000000   0.0093897), wk =   0.0800000
        k(   10) = (   0.0000000   0.0000000   0.0105634), wk =   0.0800000
        k(   11) = (   0.0000000   0.0000000   0.0117371), wk =   0.0800000
        k(   12) = (   0.0000000   0.0000000   0.0129108), wk =   0.0800000
        k(   13) = (   0.0000000   0.0000000   0.0140845), wk =   0.0800000
        k(   14) = (   0.0000000   0.0000000   0.0152582), wk =   0.0800000
        k(   15) = (   0.0000000   0.0000000   0.0164319), wk =   0.0800000
        k(   16) = (   0.0000000   0.0000000   0.0176056), wk =   0.0800000
        k(   17) = (   0.0000000   0.0000000   0.0187793), wk =   0.0800000
        k(   18) = (   0.0000000   0.0000000   0.0199531), wk =   0.0800000
        k(   19) = (   0.0000000   0.0000000   0.0211268), wk =   0.0800000
        k(   20) = (   0.0000000   0.0000000   0.0223005), wk =   0.0800000
        k(   21) = (   0.0000000   0.0000000   0.0234742), wk =   0.0800000
        k(   22) = (   0.0000000   0.0000000   0.0246479), wk =   0.0800000
        k(   23) = (   0.0000000   0.0000000   0.0258216), wk =   0.0800000
        k(   24) = (   0.0000000   0.0000000   0.0269953), wk =   0.0800000
        k(   25) = (   0.0000000   0.0000000   0.0281690), wk =   0.0800000
        k(   26) = (   0.0000000   0.0000000  -0.0293427), wk =   0.0400000

     Dense  grid:  4302255 G-vectors     FFT dimensions: ( 135, 288, 225)

     Smooth grid:   827793 G-vectors     FFT dimensions: (  80, 162, 135)

     Estimated max dynamical RAM per process >     979.29 MB

     Estimated total dynamical RAM >      15.30 GB

     The potential is recalculated from file :
     /home/zfwang/scratch/GNRDATASET/AGNR/AGNR_10_Defect_D/AGNR_10_Defect_D.save/charge-density.dat


     negative rho (up, down):  1.319E-04 0.000E+00
     Starting wfcs are  330 randomized atomic wfcs +  170 random wfcs

     Band Structure Calculation
     Davidson diagonalization with overlap
     c_bands:  1 eigenvalues not converged
     c_bands:  1 eigenvalues not converged
     c_bands:  2 eigenvalues not converged
     c_bands:  3 eigenvalues not converged
     c_bands:  1 eigenvalues not converged
     c_bands:  1 eigenvalues not converged
     c_bands:  1 eigenvalues not converged
     c_bands:  2 eigenvalues not converged
     c_bands:  2 eigenvalues not converged

     ethr =  3.03E-09,  avg # of iterations =102.0

     total cpu time spent up to now is    10682.0 secs

     End of band structure calculation

          k = 0.0000 0.0000 0.0000 (103407 PWs)   bands (ev):

   -21.1003 -20.7509 -20.7201 -20.5945 -20.2802 -20.1784 -19.8784 -19.6498
   -19.6205 -19.5681 -19.4096 -19.1681 -19.0509 -18.8566 -18.5877 -18.5432
   -18.4213 -18.1019 -17.8304 -17.7926 -17.6628 -17.5128 -17.4975 -17.3585
   -17.2985 -17.2526 -17.0004 -16.6411 -16.4933 -16.4080 -16.2863 -16.1840
   -16.0998 -15.9517 -15.8387 -15.7571 -15.4849 -15.0757 -14.9028 -14.7887
   -14.4531 -14.3878 -14.3635 -14.2933 -14.0848 -14.0633 -14.0294 -13.9401
   -13.7217 -13.1879 -12.9457 -12.8834 -12.7905 -12.7306 -12.6756 -12.4620
   -12.3332 -12.3144 -12.2173 -11.9813 -11.9067 -11.8432 -11.5900 -11.3576
   -11.3293 -11.2303 -11.0697 -10.9193 -10.7595 -10.5978 -10.5477 -10.4010
   -10.3625 -10.2145 -10.0283  -9.9465  -9.8047  -9.7296  -9.6347  -9.5999
    -9.5152  -9.4287  -9.3091  -9.2594  -9.1724  -9.1465  -9.1021  -9.0748
    -8.8027  -8.7514  -8.7284  -8.6814  -8.5899  -8.5458  -8.4425  -8.4278
    -8.4072  -8.3296  -8.2981  -8.2683  -8.2518  -8.2195  -8.1697  -8.1579
    -8.1057  -8.0983  -8.0485  -7.9679  -7.8285  -7.8087  -7.7744  -7.7638
    -7.5548  -7.4978  -7.4591  -7.4374  -7.4107  -7.4031  -7.2172  -7.2158
    -7.0816  -7.0418  -6.9301  -6.9275  -6.9016  -6.8673  -6.8029  -6.7262
    -6.6120  -6.5313  -6.3266  -6.2799  -6.2617  -6.2100  -6.1206  -6.1069
    -5.9976  -5.8513  -5.7653  -5.7643  -5.7472  -5.4843  -5.4390  -5.4085
    -5.3085  -5.1715  -5.1335  -5.0736  -5.0463  -4.9547  -4.9176  -4.8929
    -4.5821  -4.3369  -4.3074  -4.1601  -3.9171  -3.8931  -3.8569  -3.7585
    -3.6662  -3.3981  -3.2133  -2.6274  -2.1396  -1.4590  -0.9394  -0.5040
    -0.2781  -0.0848  -0.0449   0.0345   0.1088   0.1991   0.3242   0.3318
     0.7316   0.9827   1.1802   1.2794   1.3472   1.3857   1.5040   1.5196
     1.5514   1.6275   1.6756   1.6838   1.8912   1.9683   1.9816   2.0097
     2.0508   2.0552   2.0892   2.1161   2.3977   2.5599   2.5889   2.6452
     2.7128   2.8625   2.9179   2.9777   3.0158   3.0643   3.0696   3.1061
     3.1102   3.1205   3.2078   3.2556   3.3046   3.3146   3.3544   3.4624
     3.4742   3.4938   3.5078   3.5754   3.5880   3.5998   3.6828   3.7208
     3.7743   3.8011   3.8112   3.9394   3.9862   4.0592   4.0809   4.1083
     4.2040   4.2598   4.2982   4.3146   4.4848   4.4896   4.5038   4.5378
     4.5808   4.5968   4.6129   4.6360   4.6786   4.8010   4.8065   4.8119
     4.8380   4.8547   4.9061   4.9399   4.9502   4.9568   4.9708   4.9861
     5.0574   5.0694   5.1145   5.1653   5.2090   5.2262   5.2756   5.2793
     5.3231   5.3386   5.3746   5.3941   5.4103   5.4247   5.4639   5.4656
     5.4870   5.6332   5.7287   5.7333   5.7902   5.7903   5.8745   5.9201
     5.9711   5.9823   6.0053   6.0281   6.0430   6.0439   6.0529   6.0621
     6.0814   6.1177   6.1274   6.1604   6.1907   6.2753   6.2911   6.2940
     6.3104   6.3198   6.3203   6.3529   6.4049   6.4373   6.4548   6.4751
     6.4844   6.4971   6.5301   6.5664   6.5918   6.6023   6.6265   6.6340
     6.6776   6.7276   6.7425   6.7986   6.8087   6.8181   6.8563   6.8694
     6.9307   6.9430   6.9552   6.9862   7.0283   7.0284   7.0407   7.0408
     7.0691   7.0940   7.1021   7.1126   7.1297   7.2532   7.2614   7.2745
     7.3142   7.3239   7.3310   7.3423   7.3603   7.3783   7.3906   7.4042
     7.4139   7.4504   7.5001   7.5255   7.5673   7.6049   7.6292   7.6439
     7.6789   7.6912   7.7044   7.7217   7.7400   7.7500   7.7741   7.7837
     7.7897   7.8086   7.8172   7.8318   7.8996   7.9324   7.9347   7.9748
     7.9797   8.0045   8.0341   8.0618   8.0852   8.0915   8.2067   8.2375
     8.2990   8.3406   8.3576   8.3671   8.3756   8.4245   8.4574   8.4669
     8.4935   8.5068   8.5371   8.5657   8.5804   8.5994   8.6171   8.6192
     8.6313   8.6420   8.6510   8.6640   8.6642   8.7045   8.7676   8.7905
     8.8022   8.8091   8.8189   8.8337   8.8414   8.8619   8.8877   8.9149
     9.0305   9.0508   9.0788   9.1121   9.1447   9.1725   9.1871   9.2024
     9.2323   9.2383   9.2558   9.2669   9.2853   9.3083   9.3205   9.3457
     9.3688   9.3860   9.3959   9.4015   9.4431   9.4467   9.4739   9.4967
     9.5460   9.5526   9.5709   9.5855   9.5891   9.6006   9.6092   9.6439
     9.6558   9.6963   9.7038   9.7692   9.8004   9.8108   9.8674   9.8699
     9.9027   9.9406   9.9411   9.9694   9.9814   9.9967  10.0227  10.0289
    10.0443  10.0580  10.0778  10.0779  10.0809  10.0984  10.1040  10.1099
    10.1699  10.1940  10.2053  10.3251  10.3294  10.3573  10.5107  10.5310
    10.5659  10.5815  10.5993  10.6346  10.6883  10.7061  10.7332  10.7366
    10.7433  10.7727  10.8031  10.8053  10.8216  10.8343  10.8444  10.8506
    10.8598  10.8731  10.8852  10.8864  10.9029  10.9401  10.9475  10.9554
    10.9961  11.0089  11.0094  11.0648

          k = 0.0000 0.0000 0.0012 (103433 PWs)   bands (ev):

   -21.1002 -20.7555 -20.7154 -20.5941 -20.2817 -20.1767 -19.8784 -19.6651
   -19.6056 -19.5687 -19.4087 -19.1708 -19.0477 -18.8563 -18.5904 -18.5419
   -18.4202 -18.1018 -17.8530 -17.7694 -17.6629 -17.5293 -17.4828 -17.3603
   -17.3044 -17.2435 -16.9999 -16.6435 -16.4923 -16.4068 -16.2865 -16.1831
   -16.0998 -15.9539 -15.8398 -15.7568 -15.4853 -15.0778 -14.9019 -14.7870
   -14.4525 -14.3908 -14.3617 -14.2923 -14.0822 -14.0685 -14.0250 -13.9384
   -13.7214 -13.1885 -12.9521 -12.8783 -12.7950 -12.7290 -12.6730 -12.4658
   -12.3802 -12.2661 -12.2175 -11.9786 -11.9058 -11.8433 -11.5892 -11.3629
   -11.3283 -11.2276 -11.0686 -10.9179 -10.7608 -10.6141 -10.5305 -10.4036
   -10.3621 -10.2143 -10.0303  -9.9433  -9.8094  -9.7285  -9.6363  -9.5952
    -9.5148  -9.4289  -9.3255  -9.2487  -9.1722  -9.1551  -9.1038  -9.0581
    -8.8025  -8.7591  -8.7207  -8.6812  -8.5894  -8.5470  -8.4594  -8.4288
    -8.3978  -8.3261  -8.3094  -8.2625  -8.2439  -8.2214  -8.1713  -8.1576
    -8.1035  -8.0986  -8.0481  -7.9652  -7.8319  -7.8109  -7.7674  -7.7637
    -7.5561  -7.4969  -7.4802  -7.4205  -7.4111  -7.4000  -7.2173  -7.2149
    -7.0861  -7.0373  -6.9315  -6.9301  -6.9058  -6.8636  -6.7986  -6.7261
    -6.6116  -6.5320  -6.3292  -6.2816  -6.2609  -6.2100  -6.1192  -6.1118
    -5.9914  -5.8519  -5.7694  -5.7650  -5.7420  -5.4833  -5.4656  -5.3819
    -5.3086  -5.1808  -5.1257  -5.0740  -5.0461  -4.9550  -4.9320  -4.8776
    -4.5815  -4.3449  -4.3006  -4.1597  -3.9165  -3.8935  -3.8567  -3.7613
    -3.6641  -3.3987  -3.2126  -2.6284  -2.1408  -1.4582  -0.9383  -0.5045
    -0.2767  -0.0860  -0.0434   0.0344   0.1090   0.2000   0.3203   0.3359
     0.7288   0.9841   1.1804   1.2773   1.3401   1.3931   1.5042   1.5110
     1.5516   1.6368   1.6598   1.7000   1.8727   1.9720   1.9821   2.0195
     2.0346   2.0706   2.0948   2.1177   2.3993   2.5570   2.5872   2.6502
     2.7130   2.8602   2.9175   2.9713   3.0211   3.0539   3.0627   3.1088
     3.1165   3.1288   3.2078   3.2508   3.3053   3.3201   3.3543   3.4457
     3.4869   3.4922   3.5080   3.5522   3.6017   3.6189   3.6798   3.7209
     3.7780   3.7886   3.8237   3.9403   3.9864   4.0566   4.0569   4.1310
     4.2058   4.2564   4.3020   4.3147   4.4771   4.4882   4.5115   4.5339
     4.5783   4.5821   4.6155   4.6577   4.6771   4.7873   4.8012   4.8245
     4.8396   4.8526   4.9013   4.9275   4.9433   4.9609   4.9627   5.0041
     5.0694   5.0715   5.1171   5.1643   5.1938   5.2285   5.2705   5.2775
     5.2996   5.3593   5.3752   5.3980   5.3997   5.4497   5.4647   5.4673
     5.4914   5.6341   5.7287   5.7328   5.7907   5.7907   5.8717   5.9191
     5.9704   5.9805   5.9819   6.0139   6.0261   6.0380   6.0674   6.0800
     6.1012   6.1173   6.1356   6.1600   6.1936   6.2516   6.2832   6.3061
     6.3065   6.3205   6.3392   6.3590   6.4017   6.4345   6.4513   6.4713
     6.4781   6.4856   6.5329   6.5813   6.5985   6.6045   6.6318   6.6371
     6.6794   6.7231   6.7440   6.7980   6.8069   6.8203   6.8561   6.8692
     6.9246   6.9319   6.9687   6.9868   7.0208   7.0273   7.0389   7.0394
     7.0686   7.0990   7.1042   7.1120   7.1343   7.2538   7.2549   7.2729
     7.3090   7.3192   7.3350   7.3469   7.3510   7.3704   7.3949   7.4017
     7.4301   7.4509   7.5031   7.5187   7.5686   7.6006   7.6291   7.6480
     7.6536   7.7012   7.7060   7.7210   7.7418   7.7481   7.7690   7.7858
     7.7928   7.8189   7.8201   7.8417   7.9067   7.9330   7.9362   7.9720
     7.9805   7.9947   8.0292   8.0618   8.0965   8.1023   8.2045   8.2374
     8.2960   8.3398   8.3445   8.3629   8.3757   8.4181   8.4526   8.4724
     8.4888   8.5103   8.5401   8.5777   8.5847   8.5904   8.6061   8.6197
     8.6231   8.6480   8.6589   8.6652   8.6825   8.7064   8.7576   8.7775
     8.7919   8.8083   8.8121   8.8191   8.8605   8.8893   8.8916   8.9196
     9.0017   9.0784   9.0844   9.1122   9.1430   9.1745   9.1761   9.1983
     9.2262   9.2370   9.2575   9.2698   9.2834   9.2997   9.3219   9.3393
     9.3563   9.3889   9.3906   9.4196   9.4351   9.4472   9.4758   9.5022
     9.5420   9.5489   9.5676   9.5894   9.5959   9.6112   9.6140   9.6429
     9.6467   9.6927   9.7154   9.7709   9.8033   9.8039   9.8624   9.8668
     9.8941   9.9408   9.9455   9.9728   9.9800  10.0007  10.0229  10.0268
    10.0437  10.0644  10.0689  10.0756  10.0840  10.1020  10.1047  10.1141
    10.1738  10.1958  10.2207  10.3237  10.3244  10.3562  10.5074  10.5311
    10.5541  10.5756  10.6004  10.6360  10.6882  10.7082  10.7277  10.7377
    10.7438  10.7711  10.7774  10.8175  10.8261  10.8263  10.8460  10.8577
    10.8582  10.8728  10.8886  10.8919  10.9038  10.9421  10.9486  10.9576
    10.9980  10.9983  11.0195  11.0566

          k = 0.0000 0.0000 0.0023 (103431 PWs)   bands (ev):

   -21.0998 -20.7653 -20.7056 -20.5930 -20.2858 -20.1718 -19.8784 -19.6894
   -19.5844 -19.5682 -19.4062 -19.1783 -19.0391 -18.8555 -18.5976 -18.5388
   -18.4170 -18.1016 -17.8867 -17.7338 -17.6630 -17.5527 -17.4651 -17.3663
   -17.3129 -17.2245 -16.9985 -16.6502 -16.4902 -16.4028 -16.2869 -16.1807
   -16.1000 -15.9602 -15.8435 -15.7558 -15.4866 -15.0842 -14.8992 -14.7814
   -14.4527 -14.3944 -14.3603 -14.2887 -14.0819 -14.0722 -14.0167 -13.9331
   -13.7208 -13.1905 -12.9668 -12.8679 -12.8051 -12.7270 -12.6651 -12.4818
   -12.4273 -12.2289 -12.1994 -11.9709 -11.9034 -11.8435 -11.5867 -11.3754
   -11.3278 -11.2202 -11.0652 -10.9137 -10.7651 -10.6409 -10.5012 -10.4111
   -10.3606 -10.2137 -10.0354  -9.9348  -9.8221  -9.7257  -9.6390  -9.5840
    -9.5136  -9.4298  -9.3552  -9.2403  -9.1717  -9.1633  -9.1029  -9.0261
    -8.8019  -8.7727  -8.7073  -8.6808  -8.5879  -8.5509  -8.4870  -8.4383
    -8.3819  -8.3437  -8.2998  -8.2599  -8.2266  -8.2257  -8.1753  -8.1559
    -8.1001  -8.0974  -8.0460  -7.9579  -7.8420  -7.8113  -7.7637  -7.7528
    -7.5599  -7.5098  -7.4947  -7.4142  -7.4123  -7.3797  -7.2177  -7.2121
    -7.0961  -7.0274  -6.9418  -6.9320  -6.9132  -6.8562  -6.7872  -6.7257
    -6.6104  -6.5338  -6.3364  -6.2864  -6.2588  -6.2111  -6.1224  -6.1150
    -5.9764  -5.8538  -5.7778  -5.7644  -5.7327  -5.5026  -5.4805  -5.3454
    -5.3082  -5.1989  -5.1125  -5.0751  -5.0455  -4.9559  -4.9525  -4.8541
    -4.5797  -4.3605  -4.2888  -4.1585  -3.9148  -3.8947  -3.8560  -3.7692
    -3.6585  -3.4004  -3.2103  -2.6313  -2.1444  -1.4557  -0.9351  -0.5061
    -0.2728  -0.0896  -0.0393   0.0342   0.1096   0.2025   0.3144   0.3423
     0.7210   0.9880   1.1810   1.2706   1.3269   1.4058   1.4936   1.5048
     1.5522   1.6410   1.6567   1.7200   1.8381   1.9554   2.0026   2.0158
     2.0375   2.0853   2.1121   2.1233   2.4043   2.5486   2.5848   2.6628
     2.7137   2.8529   2.9159   2.9593   3.0302   3.0335   3.0465   3.1164
     3.1310   3.1420   3.2076   3.2403   3.3073   3.3329   3.3541   3.4256
     3.4785   3.4881   3.5135   3.5489   3.6063   3.6575   3.6730   3.7209
     3.7723   3.7881   3.8398   3.9430   3.9870   4.0230   4.0492   4.1591
     4.2133   4.2492   4.3099   4.3153   4.4646   4.4829   4.5225   4.5239
     4.5537   4.5861   4.6240   4.6727   4.6919   4.7697   4.7858   4.8338
     4.8455   4.8495   4.8859   4.9059   4.9289   4.9567   4.9737   5.0275
     5.0771   5.0958   5.1234   5.1612   5.1674   5.2203   5.2599   5.2630
     5.2787   5.3623   5.3898   5.4046   5.4117   5.4642   5.4683   5.4940
     5.5028   5.6370   5.7286   5.7315   5.7915   5.7920   5.8641   5.9125
     5.9358   5.9745   5.9752   5.9814   6.0222   6.0384   6.0644   6.0977
     6.1226   6.1312   6.1564   6.1626   6.2032   6.2225   6.2646   6.3046
     6.3088   6.3305   6.3668   6.3738   6.3903   6.4298   6.4396   6.4559
     6.4623   6.4842   6.5408   6.5934   6.6069   6.6218   6.6459   6.6508
     6.6862   6.7122   6.7479   6.7965   6.8047   6.8224   6.8553   6.8636
     6.9137   6.9275   6.9631   6.9949   7.0133   7.0212   7.0362   7.0365
     7.0705   7.1040   7.1107   7.1117   7.1464   7.2352   7.2539   7.2675
     7.3001   7.3112   7.3319   7.3404   7.3556   7.3653   7.3895   7.4171
     7.4393   7.4643   7.5010   7.5089   7.5728   7.5842   7.6192   7.6290
     7.6578   7.7009   7.7107   7.7202   7.7298   7.7551   7.7645   7.7973
     7.7975   7.8268   7.8479   7.8630   7.9139   7.9374   7.9417   7.9662
     7.9754   7.9841   8.0277   8.0627   8.1088   8.1338   8.1987   8.2370
     8.2881   8.3116   8.3349   8.3594   8.3743   8.4073   8.4267   8.4767
     8.4998   8.5019   8.5629   8.5678   8.5866   8.5899   8.5980   8.6204
     8.6257   8.6591   8.6691   8.6698   8.7111   8.7152   8.7283   8.7550
     8.7752   8.8013   8.8144   8.8179   8.8697   8.8938   8.9226   8.9478
     8.9798   9.0767   9.1126   9.1182   9.1454   9.1471   9.1835   9.1963
     9.2127   9.2252   9.2407   9.2685   9.2795   9.2894   9.3215   9.3286
     9.3589   9.3715   9.3801   9.4215   9.4496   9.4553   9.4934   9.5091
     9.5335   9.5382   9.5656   9.5891   9.5958   9.6135   9.6233   9.6397
     9.6701   9.6863   9.7338   9.7747   9.7872   9.8112   9.8446   9.8651
     9.8859   9.9411   9.9417   9.9757   9.9823  10.0060  10.0208  10.0224
    10.0467  10.0475  10.0630  10.0861  10.0979  10.1067  10.1120  10.1269
    10.1849  10.2111  10.2484  10.3101  10.3196  10.3532  10.4953  10.5313
    10.5325  10.5566  10.5989  10.6384  10.6887  10.7098  10.7138  10.7376
    10.7425  10.7498  10.7740  10.8009  10.8233  10.8377  10.8485  10.8560
    10.8636  10.8731  10.8839  10.9069  10.9157  10.9508  10.9514  10.9660
    10.9859  11.0022  11.0126  11.0494

          k = 0.0000 0.0000 0.0035 (103427 PWs)   bands (ev):

   -21.0991 -20.7767 -20.6943 -20.5911 -20.2918 -20.1643 -19.8784 -19.7147
   -19.5796 -19.5522 -19.4023 -19.1884 -19.0270 -18.8543 -18.6073 -18.5356
   -18.4117 -18.1019 -17.9198 -17.6978 -17.6628 -17.5770 -17.4513 -17.3757
   -17.3164 -17.2028 -16.9960 -16.6597 -16.4887 -16.3957 -16.2876 -16.1770
   -16.1003 -15.9698 -15.8506 -15.7536 -15.4886 -15.0943 -14.8957 -14.7716
   -14.4581 -14.3913 -14.3625 -14.2818 -14.0944 -14.0602 -14.0090 -13.9241
   -13.7197 -13.1936 -12.9850 -12.8608 -12.8139 -12.7278 -12.6527 -12.5199
   -12.4556 -12.2297 -12.1434 -11.9594 -11.8994 -11.8437 -11.5829 -11.3913
   -11.3298 -11.2096 -11.0599 -10.9068 -10.7735 -10.6656 -10.4738 -10.4215
   -10.3570 -10.2129 -10.0419  -9.9235  -9.8402  -9.7224  -9.6411  -9.5706
    -9.5123  -9.4330  -9.3839  -9.2503  -9.1709  -9.1562  -9.0978  -8.9911
    -8.8007  -8.7873  -8.6932  -8.6800  -8.5853  -8.5591  -8.5148  -8.4506
    -8.3808  -8.3566  -8.2832  -8.2554  -8.2343  -8.2105  -8.1800  -8.1505
    -8.1030  -8.0881  -8.0409  -7.9474  -7.8551  -7.8079  -7.7635  -7.7360
    -7.5655  -7.5400  -7.4916  -7.4174  -7.4141  -7.3512  -7.2183  -7.2076
    -7.1081  -7.0158  -6.9556  -6.9409  -6.9150  -6.8483  -6.7716  -6.7252
    -6.6083  -6.5369  -6.3470  -6.2935  -6.2565  -6.2164  -6.1315  -6.1084
    -5.9578  -5.8573  -5.7850  -5.7637  -5.7233  -5.5391  -5.4757  -5.3193
    -5.2986  -5.2184  -5.1019  -5.0770  -5.0434  -4.9704  -4.9573  -4.8301
    -4.5767  -4.3779  -4.2774  -4.1563  -3.9126  -3.8964  -3.8549  -3.7805
    -3.6507  -3.4031  -3.2065  -2.6361  -2.1502  -1.4517  -0.9297  -0.5086
    -0.2663  -0.0951  -0.0326   0.0340   0.1103   0.2064   0.3088   0.3490
     0.7088   0.9934   1.1820   1.2587   1.3133   1.4135   1.4811   1.5057
     1.5531   1.6224   1.6738   1.7405   1.8070   1.9379   1.9974   2.0162
     2.0567   2.0954   2.1347   2.1400   2.4132   2.5360   2.5838   2.6791
     2.7148   2.8401   2.9126   2.9487   3.0102   3.0286   3.0372   3.1274
     3.1440   3.1555   3.2065   3.2299   3.3103   3.3483   3.3541   3.4094
     3.4476   3.4831   3.5234   3.5680   3.6108   3.6661   3.6973   3.7207
     3.7561   3.8023   3.8557   3.9467   3.9880   3.9896   4.0375   4.1769
     4.2325   4.2418   4.3161   4.3177   4.4519   4.4687   4.5071   4.5359
     4.5380   4.5933   4.6359   4.6663   4.7252   4.7545   4.7627   4.8267
     4.8362   4.8599   4.8688   4.8923   4.9175   4.9548   4.9862   5.0465
     5.0843   5.1124   5.1290   5.1504   5.1556   5.2092   5.2398   5.2466
     5.2667   5.3550   5.4030   5.4257   5.4328   5.4665   5.4792   5.5184
     5.5373   5.6417   5.7282   5.7296   5.7920   5.7941   5.8528   5.8753
     5.9177   5.9460   5.9695   5.9781   6.0177   6.0412   6.0634   6.0864
     6.1423   6.1482   6.1714   6.1744   6.1923   6.2336   6.2488   6.2948
     6.3112   6.3382   6.3680   6.3860   6.3966   6.4204   6.4298   6.4531
     6.4535   6.4886   6.5451   6.5926   6.6238   6.6367   6.6654   6.6678
     6.6933   6.7134   6.7537   6.7945   6.8023   6.8206   6.8474   6.8571
     6.9099   6.9218   6.9499   6.9889   7.0072   7.0194   7.0359   7.0381
     7.0772   7.1015   7.1093   7.1253   7.1617   7.2044   7.2489   7.2587
     7.2892   7.3063   7.3190   7.3356   7.3577   7.3700   7.3978   7.4252
     7.4442   7.4784   7.4842   7.5134   7.5476   7.5797   7.5980   7.6279
     7.6639   7.6866   7.7022   7.7183   7.7368   7.7626   7.7809   7.8058
     7.8141   7.8336   7.8647   7.9031   7.9092   7.9237   7.9546   7.9653
     7.9764   7.9942   8.0301   8.0645   8.1223   8.1661   8.1918   8.2349
     8.2752   8.2784   8.3218   8.3546   8.3707   8.3967   8.4059   8.4567
     8.4984   8.5128   8.5439   8.5768   8.5838   8.5892   8.6162   8.6196
     8.6291   8.6632   8.6811   8.6895   8.6987   8.7194   8.7436   8.7481
     8.7628   8.7873   8.8139   8.8197   8.8728   8.9016   8.9349   8.9658
     9.0100   9.0723   9.1110   9.1166   9.1213   9.1654   9.1871   9.1949
     9.1982   9.2086   9.2212   9.2421   9.2595   9.2967   9.3111   9.3358
     9.3366   9.3769   9.3788   9.4346   9.4507   9.4621   9.5020   9.5152
     9.5260   9.5429   9.5696   9.5765   9.5871   9.6088   9.6328   9.6391
     9.6856   9.6993   9.7561   9.7699   9.7793   9.8219   9.8311   9.8620
     9.8856   9.9329   9.9431   9.9685   9.9760  10.0067  10.0092  10.0253
    10.0285  10.0417  10.0636  10.1110  10.1135  10.1170  10.1275  10.1488
    10.2023  10.2322  10.2789  10.2914  10.3139  10.3496  10.4720  10.5060
    10.5313  10.5362  10.5948  10.6357  10.6880  10.6935  10.7008  10.7218
    10.7356  10.7426  10.7845  10.7855  10.8234  10.8342  10.8477  10.8590
    10.8673  10.8711  10.8755  10.9234  10.9316  10.9571  10.9619  10.9663
    10.9825  11.0028  11.0057  11.0555

          k = 0.0000 0.0000 0.0047 (103427 PWs)   bands (ev):

   -21.0982 -20.7885 -20.6828 -20.5882 -20.2992 -20.1549 -19.8785 -19.7400
   -19.5841 -19.5285 -19.3972 -19.1994 -19.0130 -18.8524 -18.6185 -18.5330
   -18.4046 -18.1039 -17.9500 -17.6713 -17.6555 -17.6000 -17.4442 -17.3845
   -17.3141 -17.1808 -16.9924 -16.6706 -16.4891 -16.3851 -16.2883 -16.1725
   -16.1008 -15.9817 -15.8617 -15.7503 -15.4911 -15.1074 -14.8925 -14.7570
   -14.4698 -14.3833 -14.3644 -14.2724 -14.1073 -14.0445 -14.0031 -13.9118
   -13.7182 -13.1979 -13.0046 -12.8650 -12.8145 -12.7307 -12.6406 -12.5677
   -12.4737 -12.2330 -12.0843 -11.9456 -11.8938 -11.8438 -11.5781 -11.4085
   -11.3339 -11.1975 -11.0532 -10.8972 -10.7871 -10.6847 -10.4596 -10.4277
   -10.3485 -10.2119 -10.0486  -9.9115  -9.8616  -9.7181  -9.6436  -9.5594
    -9.5116  -9.4428  -9.4012  -9.2689  -9.1698  -9.1442  -9.0866  -8.9571
    -8.8020  -8.7987  -8.6793  -8.6789  -8.5813  -8.5751  -8.5371  -8.4633
    -8.4067  -8.3439  -8.2776  -8.2442  -8.2435  -8.2033  -8.1825  -8.1392
    -8.1065  -8.0765  -8.0327  -7.9352  -7.8682  -7.8020  -7.7634  -7.7187
    -7.5722  -7.5702  -7.4881  -7.4231  -7.4164  -7.3223  -7.2191  -7.2019
    -7.1205  -7.0042  -6.9703  -6.9552  -6.9115  -6.8413  -6.7542  -6.7246
    -6.6051  -6.5413  -6.3597  -6.3027  -6.2545  -6.2276  -6.1347  -6.0997
    -5.9397  -5.8626  -5.7889  -5.7640  -5.7141  -5.5737  -5.4693  -5.3180
    -5.2722  -5.2322  -5.0974  -5.0797  -5.0397  -4.9828  -4.9593  -4.8069
    -4.5727  -4.3957  -4.2675  -4.1531  -3.9107  -3.8980  -3.8534  -3.7938
    -3.6419  -3.4068  -3.2014  -2.6427  -2.1583  -1.4462  -0.9223  -0.5117
    -0.2577  -0.1020  -0.0235   0.0339   0.1110   0.2113   0.3040   0.3555
     0.6935   0.9992   1.1833   1.2421   1.2988   1.4105   1.4824   1.5070
     1.5544   1.6043   1.6731   1.7615   1.7949   1.9204   1.9791   2.0235
     2.0766   2.1015   2.1513   2.1731   2.4268   2.5212   2.5842   2.6972
     2.7162   2.8223   2.9059   2.9416   2.9880   3.0107   3.0415   3.1381
     3.1465   3.1735   3.2041   3.2239   3.3129   3.3521   3.3640   3.4013
     3.4128   3.4791   3.5344   3.5938   3.6107   3.6635   3.7207   3.7340
     3.7440   3.8190   3.8710   3.9428   3.9662   3.9894   4.0226   4.1845
     4.2355   4.2625   4.3174   4.3229   4.4398   4.4430   4.4953   4.5292
     4.5464   4.6031   4.6496   4.6591   4.7291   4.7352   4.7679   4.7954
     4.8316   4.8407   4.8834   4.8905   4.9103   4.9540   4.9979   5.0560
     5.0910   5.0910   5.1145   5.1470   5.1777   5.2135   5.2224   5.2321
     5.2572   5.3452   5.4137   5.4491   5.4552   5.4690   5.5012   5.5362
     5.5815   5.6480   5.7267   5.7280   5.7899   5.7970   5.8224   5.8436
     5.9110   5.9138   5.9610   5.9807   6.0149   6.0453   6.0647   6.0652
     6.1429   6.1579   6.1622   6.1898   6.1994   6.2419   6.2516   6.2909
     6.3101   6.3428   6.3547   6.3663   6.4203   6.4262   6.4366   6.4502
     6.4649   6.4952   6.5468   6.5903   6.6314   6.6553   6.6702   6.6877
     6.6918   6.7453   6.7606   6.7888   6.7976   6.8169   6.8354   6.8566
     6.8905   6.9286   6.9440   6.9820   6.9870   7.0184   7.0371   7.0429
     7.0877   7.0967   7.1082   7.1417   7.1671   7.1780   7.2358   7.2481
     7.2771   7.3062   7.3112   7.3336   7.3413   7.3857   7.4183   7.4184
     7.4506   7.4603   7.5017   7.5027   7.5149   7.5836   7.5885   7.6233
     7.6510   7.6617   7.7097   7.7321   7.7479   7.7623   7.8133   7.8201
     7.8349   7.8375   7.8651   7.9021   7.9074   7.9508   7.9537   7.9735
     7.9967   8.0145   8.0351   8.0673   8.1300   8.1869   8.1884   8.2287
     8.2494   8.2684   8.3040   8.3481   8.3638   8.3792   8.3996   8.4399
     8.4943   8.4964   8.5282   8.5599   8.5841   8.6027   8.6101   8.6227
     8.6466   8.6678   8.6853   8.7046   8.7116   8.7149   8.7420   8.7581
     8.7789   8.7794   8.8113   8.8234   8.8718   8.9128   8.9491   8.9724
     9.0579   9.0641   9.0912   9.1148   9.1149   9.1398   9.1666   9.1812
     9.1933   9.2026   9.2081   9.2344   9.2560   9.2938   9.2948   9.3296
     9.3338   9.3930   9.3982   9.4202   9.4529   9.4661   9.4966   9.5155
     9.5227   9.5366   9.5678   9.5831   9.5950   9.6101   9.6238   9.6541
     9.6917   9.6976   9.7361   9.7849   9.8066   9.8331   9.8370   9.8574
     9.8852   9.9288   9.9441   9.9578   9.9658   9.9908  10.0033  10.0073
    10.0225  10.0327  10.0858  10.1226  10.1286  10.1383  10.1496  10.1787
    10.2257  10.2379  10.2817  10.3092  10.3145  10.3471  10.4407  10.4722
    10.5235  10.5309  10.5874  10.6269  10.6684  10.6711  10.6906  10.7067
    10.7203  10.7427  10.7754  10.7976  10.8252  10.8260  10.8394  10.8624
    10.8667  10.8696  10.8799  10.9242  10.9317  10.9570  10.9673  10.9696
    10.9991  11.0071  11.0186  11.0492

          k = 0.0000 0.0000 0.0059 (103441 PWs)   bands (ev):

   -21.0970 -20.8003 -20.6716 -20.5842 -20.3074 -20.1442 -19.8789 -19.7649
   -19.5905 -19.5049 -19.3912 -19.2098 -18.9983 -18.8500 -18.6303 -18.5314
   -18.3960 -18.1098 -17.9750 -17.6713 -17.6393 -17.6073 -17.4456 -17.3890
   -17.3067 -17.1599 -16.9874 -16.6815 -16.4919 -16.3716 -16.2892 -16.1677
   -16.1017 -15.9949 -15.8765 -15.7463 -15.4941 -15.1227 -14.8904 -14.7374
   -14.4854 -14.3866 -14.3506 -14.2619 -14.1188 -14.0268 -13.9988 -13.8966
   -13.7162 -13.2033 -13.0247 -12.8787 -12.8108 -12.7330 -12.6522 -12.5931
   -12.4914 -12.2352 -12.0248 -11.9312 -11.8868 -11.8430 -11.5731 -11.4262
   -11.3387 -11.1858 -11.0452 -10.8852 -10.8058 -10.6971 -10.4698 -10.4221
   -10.3321 -10.2104 -10.0551  -9.9013  -9.8838  -9.7118  -9.6495  -9.5558
    -9.5125  -9.4542  -9.4043  -9.2870  -9.1683  -9.1363  -9.0683  -8.9274
    -8.8166  -8.7955  -8.6779  -8.6663  -8.5981  -8.5758  -8.5525  -8.4766
    -8.4335  -8.3295  -8.2796  -8.2537  -8.2367  -8.2027  -8.1785  -8.1240
    -8.1080  -8.0634  -8.0220  -7.9226  -7.8791  -7.7939  -7.7634  -7.7017
    -7.6001  -7.5797  -7.4847  -7.4302  -7.4191  -7.2945  -7.2202  -7.1949
    -7.1330  -6.9938  -6.9842  -6.9707  -6.9057  -6.8352  -6.7365  -6.7241
    -6.6007  -6.5469  -6.3738  -6.3145  -6.2530  -6.2420  -6.1325  -6.0895
    -5.9253  -5.8691  -5.7881  -5.7667  -5.7055  -5.6045  -5.4612  -5.3235
    -5.2714  -5.2170  -5.0987  -5.0831  -5.0368  -4.9862  -4.9619  -4.7853
    -4.5677  -4.4130  -4.2596  -4.1490  -3.9108  -3.8989  -3.8516  -3.8076
    -3.6327  -3.4112  -3.1951  -2.6511  -2.1682  -1.4395  -0.9131  -0.5152
    -0.2473  -0.1097  -0.0123   0.0340   0.1114   0.2166   0.3005   0.3618
     0.6761   1.0040   1.1851   1.2219   1.2809   1.4034   1.4926   1.5086
     1.5560   1.5867   1.6507   1.7828   1.8072   1.9031   1.9611   2.0276
     2.0962   2.1064   2.1708   2.2064   2.4462   2.5055   2.5854   2.7165
     2.7177   2.8008   2.8935   2.9378   2.9704   2.9932   3.0437   3.1402
     3.1425   3.1935   3.2042   3.2231   3.3137   3.3448   3.3756   3.3786
     3.4089   3.4779   3.5467   3.6040   3.6213   3.6658   3.7221   3.7239
     3.7798   3.8373   3.8852   3.9153   3.9699   3.9908   4.0057   4.1878
     4.2305   4.2963   4.3193   4.3245   4.4118   4.4282   4.4854   4.5245
     4.5544   4.6137   4.6528   4.6642   4.7063   4.7133   4.7584   4.7882
     4.8155   4.8420   4.8878   4.8936   4.9162   4.9542   5.0054   5.0527
     5.0598   5.0899   5.0924   5.1415   5.2080   5.2135   5.2186   5.2351
     5.2573   5.3336   5.4225   5.4624   5.4706   5.4902   5.5289   5.5563
     5.6224   5.6555   5.7223   5.7286   5.7657   5.7922   5.8006   5.8322
     5.8833   5.9059   5.9519   5.9817   6.0147   6.0389   6.0500   6.0677
     6.1139   6.1666   6.1670   6.1957   6.1970   6.2477   6.2498   6.2966
     6.3079   6.3362   6.3498   6.3653   6.4191   6.4440   6.4516   6.4671
     6.4806   6.5045   6.5493   6.5893   6.6308   6.6527   6.6815   6.7019
     6.7111   6.7589   6.7736   6.7804   6.7965   6.8193   6.8263   6.8562
     6.8762   6.9336   6.9457   6.9624   6.9762   7.0170   7.0391   7.0418
     7.0783   7.1062   7.1125   7.1276   7.1583   7.1937   7.2205   7.2382
     7.2646   7.3042   7.3105   7.3270   7.3307   7.3948   7.4016   7.4357
     7.4507   7.4553   7.4592   7.5118   7.5238   7.5696   7.5903   7.6173
     7.6344   7.6411   7.7285   7.7440   7.7595   7.7628   7.8300   7.8442
     7.8470   7.8519   7.8624   7.8990   7.9094   7.9507   7.9796   7.9934
     8.0253   8.0378   8.0449   8.0719   8.1278   8.1695   8.1900   8.2172
     8.2571   8.2615   8.2898   8.3397   8.3499   8.3701   8.3940   8.4304
     8.4682   8.4939   8.5117   8.5193   8.5796   8.5969   8.6108   8.6473
     8.6534   8.6734   8.6773   8.7043   8.7233   8.7348   8.7512   8.7561
     8.7967   8.8080   8.8083   8.8303   8.8720   8.9272   8.9647   8.9769
     9.0295   9.0820   9.0828   9.1079   9.1158   9.1254   9.1285   9.1546
     9.1914   9.1935   9.2070   9.2325   9.2492   9.2831   9.3163   9.3193
     9.3369   9.3958   9.4145   9.4179   9.4334   9.4730   9.4853   9.5203
     9.5230   9.5282   9.5720   9.5796   9.5852   9.6165   9.6416   9.6658
     9.6796   9.6989   9.7282   9.7918   9.8225   9.8417   9.8523   9.8629
     9.8924   9.9318   9.9366   9.9502   9.9578   9.9730   9.9865  10.0063
    10.0121  10.0349  10.1013  10.1304  10.1433  10.1575  10.1721  10.2136
    10.2138  10.2530  10.3024  10.3082  10.3485  10.3492  10.4053  10.4381
    10.5138  10.5297  10.5750  10.6133  10.6395  10.6456  10.6752  10.7002
    10.7010  10.7381  10.7716  10.7985  10.8118  10.8282  10.8368  10.8645
    10.8672  10.8709  10.8861  10.9100  10.9305  10.9601  10.9614  10.9862
    11.0073  11.0092  11.0357  11.0433

          k = 0.0000 0.0000 0.0070 (103457 PWs)   bands (ev):

   -21.0956 -20.8121 -20.6611 -20.5790 -20.3160 -20.1325 -19.8799 -19.7890
   -19.5981 -19.4831 -19.3842 -19.2184 -18.9840 -18.8469 -18.6421 -18.5307
   -18.3865 -18.1221 -17.9922 -17.6816 -17.6492 -17.5817 -17.4517 -17.3899
   -17.2953 -17.1412 -16.9806 -16.6915 -16.4968 -16.3561 -16.2899 -16.1634
   -16.1030 -16.0088 -15.8940 -15.7422 -15.4975 -15.1391 -14.8898 -14.7128
   -14.5028 -14.3973 -14.3267 -14.2518 -14.1279 -14.0098 -13.9939 -13.8794
   -13.7137 -13.2096 -13.0450 -12.8963 -12.8114 -12.7323 -12.6993 -12.5820
   -12.5102 -12.2356 -11.9659 -11.9175 -11.8792 -11.8397 -11.5690 -11.4434
   -11.3426 -11.1759 -11.0363 -10.8711 -10.8275 -10.7041 -10.4897 -10.4185
   -10.3094 -10.2078 -10.0614  -9.9129  -9.8870  -9.7029  -9.6630  -9.5623
    -9.5151  -9.4545  -9.4003  -9.3009  -9.1665  -9.1326  -9.0458  -8.9049
    -8.8310  -8.7908  -8.6797  -8.6544  -8.6189  -8.5685  -8.5659  -8.4924
    -8.4547  -8.3174  -8.2831  -8.2643  -8.2396  -8.2060  -8.1683  -8.1118
    -8.1017  -8.0491  -8.0096  -7.9117  -7.8853  -7.7839  -7.7637  -7.6857
    -7.6294  -7.5874  -7.4814  -7.4384  -7.4218  -7.2693  -7.2216  -7.1867
    -7.1456  -6.9957  -6.9935  -6.9777  -6.8988  -6.8300  -6.7238  -6.7199
    -6.5947  -6.5537  -6.3884  -6.3303  -6.2554  -6.2520  -6.1272  -6.0782
    -5.9177  -5.8749  -5.7819  -5.7742  -5.6971  -5.6291  -5.4518  -5.3351
    -5.2835  -5.1893  -5.1008  -5.0873  -5.0373  -4.9798  -4.9650  -4.7658
    -4.5620  -4.4289  -4.2534  -4.1440  -3.9135  -3.8997  -3.8503  -3.8198
    -3.6235  -3.4161  -3.1878  -2.6610  -2.1800  -1.4318  -0.9021  -0.5187
    -0.2357  -0.1175   0.0005   0.0346   0.1114   0.2213   0.2989   0.3676
     0.6576   1.0067   1.1873   1.1988   1.2592   1.3992   1.5015   1.5106
     1.5573   1.5703   1.6228   1.8044   1.8312   1.8862   1.9434   2.0301
     2.1069   2.1199   2.1917   2.2367   2.4719   2.4896   2.5872   2.7185
     2.7362   2.7778   2.8741   2.9367   2.9591   2.9762   3.0446   3.1277
     3.1375   3.2101   3.2139   3.2256   3.3101   3.3319   3.3451   3.3909
     3.4252   3.4814   3.5600   3.5930   3.6486   3.6687   3.7104   3.7270
     3.8205   3.8564   3.8815   3.9014   3.9811   3.9852   3.9954   4.1898
     4.2265   4.3183   4.3227   4.3324   4.3813   4.4168   4.4754   4.5224
     4.5583   4.6208   4.6472   4.6788   4.6828   4.6966   4.7202   4.7674
     4.8318   4.8466   4.8873   4.8963   4.9323   4.9560   4.9973   5.0352
     5.0390   5.0722   5.0769   5.1492   5.1913   5.2049   5.2481   5.2677
     5.2710   5.3211   5.4289   5.4739   5.4770   5.5257   5.5529   5.5817
     5.6535   5.6641   5.7011   5.7318   5.7358   5.7810   5.8047   5.8252
     5.8565   5.9027   5.9429   5.9814   6.0110   6.0164   6.0538   6.0630
     6.0932   6.1630   6.1673   6.1756   6.2021   6.2419   6.2533   6.2979
     6.3183   6.3195   6.3480   6.3925   6.4179   6.4544   6.4704   6.4914
     6.4986   6.5175   6.5562   6.5916   6.6214   6.6491   6.6881   6.7112
     6.7343   6.7480   6.7721   6.7847   6.8055   6.8168   6.8341   6.8572
     6.8793   6.9332   6.9352   6.9508   6.9729   7.0164   7.0352   7.0417
     7.0676   7.0800   7.1110   7.1285   7.1710   7.2012   7.2152   7.2332
     7.2552   7.2912   7.3150   7.3216   7.3253   7.3671   7.4100   7.4160
     7.4398   7.4434   7.4696   7.5084   7.5489   7.5545   7.5801   7.6071
     7.6154   7.6454   7.7419   7.7476   7.7638   7.7707   7.8254   7.8430
     7.8704   7.8775   7.8907   7.9029   7.9255   7.9474   7.9851   8.0194
     8.0537   8.0579   8.0646   8.0865   8.1200   8.1353   8.1826   8.2068
     8.2486   8.2790   8.2917   8.3300   8.3386   8.3617   8.3918   8.4247
     8.4443   8.4669   8.4944   8.4981   8.5613   8.5907   8.6102   8.6405
     8.6640   8.6787   8.6834   8.6939   8.7256   8.7590   8.7744   8.7827
     8.8044   8.8132   8.8332   8.8475   8.8751   8.9437   8.9704   8.9825
     8.9981   9.0326   9.0652   9.0791   9.1119   9.1168   9.1343   9.1815
     9.1891   9.1905   9.1966   9.2228   9.2460   9.2659   9.3122   9.3263
     9.3521   9.3836   9.4057   9.4211   9.4362   9.4784   9.4921   9.5163
     9.5216   9.5329   9.5528   9.5706   9.5968   9.6130   9.6427   9.6557
     9.6975   9.7035   9.7478   9.7977   9.8254   9.8379   9.8553   9.8572
     9.9159   9.9185   9.9370   9.9461   9.9577   9.9689   9.9725  10.0060
    10.0187  10.0379  10.1080  10.1280  10.1554  10.1768  10.1902  10.1906
    10.2499  10.2781  10.3104  10.3287  10.3575  10.3740  10.3826  10.4083
    10.5037  10.5274  10.5567  10.5957  10.6085  10.6208  10.6577  10.6829
    10.6900  10.7328  10.7691  10.7872  10.8016  10.8222  10.8307  10.8569
    10.8673  10.8867  10.8933  10.9098  10.9273  10.9522  10.9619  10.9951
    10.9959  11.0117  11.0347  11.0477

          k = 0.0000 0.0000 0.0082 (103435 PWs)   bands (ev):

   -21.0939 -20.8238 -20.6514 -20.5723 -20.3248 -20.1201 -19.8820 -19.8116
   -19.6063 -19.4644 -19.3758 -19.2241 -18.9706 -18.8432 -18.6533 -18.5306
   -18.3763 -18.1416 -18.0006 -17.7027 -17.6556 -17.5567 -17.4543 -17.3897
   -17.2809 -17.1258 -16.9717 -16.6997 -16.5032 -16.3397 -16.2904 -16.1607
   -16.1048 -16.0228 -15.9126 -15.7388 -15.5013 -15.1561 -14.8909 -14.6842
   -14.5207 -14.4096 -14.2998 -14.2425 -14.1331 -14.0005 -13.9817 -13.8607
   -13.7106 -13.2168 -13.0651 -12.9152 -12.8204 -12.7577 -12.7225 -12.5647
   -12.5281 -12.2340 -11.9149 -11.8991 -11.8723 -11.8309 -11.5671 -11.4598
   -11.3440 -11.1692 -11.0267 -10.8564 -10.8482 -10.7074 -10.5126 -10.4195
   -10.2861 -10.2024 -10.0674  -9.9379  -9.8792  -9.6953  -9.6830  -9.5732
    -9.5181  -9.4451  -9.3927  -9.3088  -9.1644  -9.1313  -9.0220  -8.8919
    -8.8452  -8.7857  -8.6902  -8.6440  -8.6279  -8.5804  -8.5591  -8.5101
    -8.4677  -8.3127  -8.2821  -8.2750  -8.2487  -8.2118  -8.1589  -8.1042
    -8.0870  -8.0340  -7.9958  -7.9064  -7.8821  -7.7718  -7.7645  -7.6714
    -7.6578  -7.5947  -7.4784  -7.4474  -7.4243  -7.2492  -7.2233  -7.1760
    -7.1581  -7.0088  -7.0034  -6.9699  -6.8918  -6.8253  -6.7239  -6.7052
    -6.5872  -6.5614  -6.4029  -6.3508  -6.2647  -6.2513  -6.1209  -6.0663
    -5.9190  -5.8777  -5.7890  -5.7708  -5.6886  -5.6450  -5.4411  -5.3539
    -5.2922  -5.1726  -5.0934  -5.0922  -5.0394  -4.9687  -4.9671  -4.7491
    -4.5566  -4.4420  -4.2486  -4.1385  -3.9179  -3.9032  -3.8515  -3.8262
    -3.6145  -3.4215  -3.1796  -2.6724  -2.1932  -1.4232  -0.8896  -0.5219
    -0.2239  -0.1244   0.0137   0.0368   0.1110   0.2246   0.2997   0.3729
     0.6390   1.0064   1.1727   1.1899   1.2359   1.3978   1.4995   1.5126
     1.5506   1.5629   1.6059   1.8259   1.8585   1.8700   1.9261   2.0321
     2.1108   2.1406   2.2135   2.2628   2.4736   2.5038   2.5895   2.7160
     2.7559   2.7573   2.8497   2.9376   2.9521   2.9605   3.0445   3.1108
     3.1263   3.2174   3.2314   3.2341   3.2958   3.3064   3.3374   3.4010
     3.4466   3.4904   3.5742   3.5802   3.6679   3.6707   3.7028   3.7368
     3.8442   3.8685   3.8760   3.9142   3.9681   3.9950   3.9973   4.1912
     4.2231   4.3182   4.3192   4.3385   4.3790   4.4051   4.4654   4.5220
     4.5546   4.6195   4.6322   4.6731   4.6791   4.6919   4.6936   4.7400
     4.8389   4.8488   4.8943   4.9022   4.9459   4.9628   4.9681   5.0196
     5.0222   5.0461   5.0768   5.1637   5.1741   5.1904   5.2816   5.2901
     5.3059   5.3118   5.4337   5.4774   5.4937   5.5616   5.5690   5.6128
     5.6540   5.6682   5.6733   5.7210   5.7512   5.7676   5.8071   5.8222
     5.8403   5.9012   5.9352   5.9803   5.9821   6.0170   6.0377   6.0612
     6.0906   6.1371   6.1507   6.1766   6.2087   6.2268   6.2458   6.2967
     6.3112   6.3455   6.3525   6.4099   6.4232   6.4679   6.4763   6.5098
     6.5319   6.5343   6.5643   6.5962   6.6163   6.6423   6.6858   6.7131
     6.7274   6.7559   6.7743   6.7951   6.8134   6.8207   6.8415   6.8598
     6.8954   6.9071   6.9317   6.9515   6.9736   7.0099   7.0327   7.0367
     7.0452   7.0633   7.1107   7.1354   7.1757   7.2014   7.2142   7.2426
     7.2516   7.2786   7.2970   7.3181   7.3330   7.3455   7.3708   7.4256
     7.4339   7.4362   7.4696   7.5130   7.5379   7.5585   7.5805   7.5916
     7.6112   7.6583   7.7224   7.7596   7.7672   7.7805   7.8226   7.8489
     7.8850   7.9016   7.9209   7.9249   7.9444   7.9536   7.9910   8.0288
     8.0680   8.0723   8.0810   8.1017   8.1132   8.1353   8.1555   8.2069
     8.2400   8.2708   8.3142   8.3286   8.3308   8.3582   8.3869   8.4126
     8.4253   8.4328   8.4769   8.4935   8.5377   8.5817   8.6085   8.6193
     8.6496   8.6864   8.6906   8.7181   8.7280   8.7843   8.7934   8.8029
     8.8121   8.8285   8.8547   8.8695   8.8834   8.9495   8.9597   8.9736
     8.9802   8.9979   9.0231   9.0766   9.0957   9.1177   9.1329   9.1790
     9.1864   9.1864   9.2023   9.2393   9.2455   9.2570   9.3021   9.3072
     9.3373   9.3876   9.4121   9.4279   9.4557   9.4725   9.5035   9.5151
     9.5155   9.5362   9.5478   9.5640   9.5812   9.6134   9.6312   9.6692
     9.7049   9.7191   9.7809   9.7978   9.8206   9.8255   9.8542   9.8610
     9.9013   9.9145   9.9340   9.9356   9.9514   9.9661   9.9979  10.0038
    10.0296  10.0563  10.1022  10.1112  10.1673  10.1878  10.1952  10.2062
    10.2753  10.2912  10.3187  10.3424  10.3544  10.3732  10.4008  10.4156
    10.4919  10.5237  10.5336  10.5741  10.5775  10.5992  10.6374  10.6687
    10.6782  10.7288  10.7649  10.7677  10.7886  10.8148  10.8242  10.8461
    10.8694  10.8998  10.9016  10.9108  10.9279  10.9467  10.9536  10.9911
    10.9952  11.0114  11.0353  11.0488

          k = 0.0000 0.0000 0.0094 (103429 PWs)   bands (ev):

   -21.0919 -20.8352 -20.6429 -20.5641 -20.3335 -20.1071 -19.8867 -19.8312
   -19.6152 -19.4509 -19.3650 -19.2260 -18.9588 -18.8392 -18.6636 -18.5309
   -18.3660 -18.1666 -18.0018 -17.7290 -17.6583 -17.5447 -17.4452 -17.3889
   -17.2648 -17.1144 -16.9604 -16.7054 -16.5107 -16.3238 -16.2902 -16.1609
   -16.1068 -16.0370 -15.9303 -15.7368 -15.5055 -15.1727 -14.8935 -14.6524
   -14.5381 -14.4224 -14.2755 -14.2314 -14.1335 -13.9981 -13.9633 -13.8412
   -13.7068 -13.2247 -13.0849 -12.9348 -12.8392 -12.8102 -12.7148 -12.5594
   -12.5314 -12.2307 -11.9022 -11.8692 -11.8466 -11.8137 -11.5686 -11.4752
   -11.3413 -11.1670 -11.0166 -10.8703 -10.8370 -10.7084 -10.5368 -10.4233
   -10.2685 -10.1919 -10.0727  -9.9633  -9.8730  -9.7233  -9.6746  -9.5842
    -9.5196  -9.4328  -9.3826  -9.3098  -9.1620  -9.1310  -8.9988  -8.8889
    -8.8592  -8.7822  -8.7082  -8.6351  -8.6278  -8.5966  -8.5477  -8.5221
    -8.4748  -8.3179  -8.2857  -8.2759  -8.2588  -8.2187  -8.1533  -8.0954
    -8.0720  -8.0183  -7.9814  -7.9042  -7.8712  -7.7667  -7.7576  -7.6846
    -7.6600  -7.6006  -7.4756  -7.4571  -7.4264  -7.2368  -7.2254  -7.1706
    -7.1613  -7.0255  -7.0059  -6.9611  -6.8859  -6.8206  -6.7245  -6.6929
    -6.5785  -6.5698  -6.4165  -6.3751  -6.2695  -6.2507  -6.1148  -6.0544
    -5.9271  -5.8784  -5.8114  -5.7568  -5.6792  -5.6519  -5.4294  -5.3780
    -5.2975  -5.1731  -5.0979  -5.0725  -5.0391  -4.9729  -4.9518  -4.7357
    -4.5525  -4.4508  -4.2448  -4.1327  -3.9232  -3.9119  -3.8554  -3.8251
    -3.6058  -3.4269  -3.1708  -2.6851  -2.2078  -1.4139  -0.8758  -0.5247
    -0.2135  -0.1284   0.0234   0.0446   0.1100   0.2256   0.3030   0.3778
     0.6211   1.0022   1.1435   1.1929   1.2133   1.3946   1.4850   1.5139
     1.5364   1.5650   1.6079   1.8435   1.8585   1.8854   1.9091   2.0342
     2.1143   2.1622   2.2360   2.2851   2.4578   2.5404   2.5923   2.7041
     2.7466   2.7737   2.8243   2.9401   2.9414   2.9518   3.0438   3.0911
     3.1128   3.2224   3.2393   3.2485   3.2679   3.2925   3.3381   3.4103
     3.4698   3.5039   3.5671   3.5887   3.6625   3.6723   3.7165   3.7509
     3.8169   3.8949   3.9073   3.9281   3.9522   4.0006   4.0109   4.1923
     4.2198   4.3020   4.3118   4.3284   4.3927   4.4100   4.4565   4.5230
     4.5401   4.5989   4.6182   4.6534   4.6626   4.6986   4.7014   4.7215
     4.8349   4.8486   4.8840   4.9224   4.9329   4.9524   4.9751   5.0021
     5.0165   5.0210   5.0874   5.1551   5.1717   5.1862   5.2879   5.3152
     5.3281   5.3463   5.4375   5.4814   5.5115   5.5745   5.5950   5.6084
     5.6451   5.6718   5.6816   5.7139   5.7544   5.7601   5.8046   5.8217
     5.8469   5.9002   5.9309   5.9532   5.9774   6.0037   6.0251   6.0633
     6.0837   6.1154   6.1359   6.1791   6.1984   6.2067   6.2498   6.2908
     6.3068   6.3652   6.3793   6.4116   6.4334   6.4749   6.4839   6.5241
     6.5528   6.5650   6.5766   6.5944   6.6179   6.6409   6.6825   6.6944
     6.7266   6.7735   6.7778   6.8016   6.8226   6.8329   6.8475   6.8644
     6.8809   6.9069   6.9297   6.9484   6.9705   6.9931   7.0052   7.0382
     7.0487   7.0680   7.1114   7.1324   7.1746   7.1986   7.2142   7.2488
     7.2586   7.2608   7.2769   7.3196   7.3224   7.3438   7.3475   7.4226
     7.4239   7.4290   7.4700   7.5194   7.5232   7.5537   7.5544   7.5999
     7.6310   7.6730   7.6952   7.7565   7.7770   7.7861   7.8256   7.8605
     7.8914   7.9232   7.9343   7.9559   7.9618   7.9880   7.9981   8.0254
     8.0600   8.0811   8.0812   8.1081   8.1229   8.1273   8.1845   8.2026
     8.2285   8.2670   8.3060   8.3246   8.3522   8.3542   8.3656   8.3947
     8.4149   8.4285   8.4597   8.4839   8.5170   8.5614   8.6067   8.6075
     8.6350   8.6938   8.6949   8.7302   8.7518   8.7925   8.8103   8.8106
     8.8225   8.8585   8.8704   8.8744   8.8946   8.9255   8.9274   8.9567
     8.9874   8.9951   9.0112   9.0748   9.0824   9.1183   9.1287   9.1628
     9.1703   9.1827   9.2057   9.2250   9.2460   9.2643   9.3029   9.3063
     9.3148   9.3972   9.4034   9.4463   9.4703   9.4801   9.4841   9.5144
     9.5199   9.5353   9.5473   9.5647   9.5797   9.6173   9.6216   9.6906
     9.7040   9.7380   9.7879   9.7886   9.8091   9.8363   9.8566   9.8603
     9.8871   9.9073   9.9304   9.9376   9.9477   9.9613  10.0011  10.0064
    10.0359  10.0629  10.0818  10.1306  10.1810  10.1980  10.2076  10.2226
    10.2726  10.2949  10.3165  10.3517  10.3719  10.3771  10.4250  10.4445
    10.4787  10.5089  10.5185  10.5494  10.5512  10.5824  10.6146  10.6595
    10.6701  10.7223  10.7429  10.7543  10.7822  10.8042  10.8161  10.8464
    10.8705  10.8952  10.9039  10.9100  10.9312  10.9326  10.9559  10.9911
    11.0044  11.0057  11.0345  11.0443

          k = 0.0000 0.0000 0.0106 (103431 PWs)   bands (ev):

   -21.0897 -20.8464 -20.6355 -20.5544 -20.3420 -20.0938 -19.8965 -19.8455
   -19.6245 -19.4438 -19.3510 -19.2235 -18.9488 -18.8353 -18.6721 -18.5314
   -18.3564 -18.1943 -17.9986 -17.7571 -17.6599 -17.5466 -17.4261 -17.3843
   -17.2478 -17.1073 -16.9469 -16.7082 -16.5185 -16.3107 -16.2876 -16.1655
   -16.1087 -16.0524 -15.9443 -15.7365 -15.5099 -15.1884 -14.8974 -14.6203
   -14.5525 -14.4351 -14.2636 -14.2101 -14.1286 -13.9973 -13.9442 -13.8212
   -13.7020 -13.2332 -13.1042 -12.9548 -12.8801 -12.8466 -12.7080 -12.5716
   -12.5135 -12.2261 -11.8990 -11.8632 -11.8070 -11.7768 -11.5737 -11.4897
   -11.3336 -11.1701 -11.0068 -10.8869 -10.8187 -10.7076 -10.5611 -10.4287
   -10.2593 -10.1778 -10.0763  -9.9869  -9.8697  -9.7608  -9.6612  -9.5938
    -9.5183  -9.4216  -9.3701  -9.3041  -9.1592  -9.1313  -8.9775  -8.8946
    -8.8728  -8.7828  -8.7265  -8.6374  -8.6276  -8.6072  -8.5344  -8.5202
    -8.4784  -8.3275  -8.2961  -8.2816  -8.2571  -8.2253  -8.1504  -8.0878
    -8.0581  -8.0021  -7.9674  -7.8988  -7.8581  -7.7718  -7.7414  -7.7079
    -7.6531  -7.6038  -7.4730  -7.4673  -7.4280  -7.2332  -7.2282  -7.1831
    -7.1427  -7.0416  -7.0023  -6.9527  -6.8819  -6.8154  -6.7255  -6.6834
    -6.5784  -6.5698  -6.4282  -6.4017  -6.2707  -6.2498  -6.1100  -6.0429
    -5.9379  -5.8790  -5.8390  -5.7422  -5.6680  -5.6520  -5.4169  -5.4050
    -5.3011  -5.1828  -5.1043  -5.0586  -5.0228  -4.9776  -4.9355  -4.7260
    -4.5511  -4.4538  -4.2412  -4.1271  -3.9307  -3.9248  -3.8587  -3.8199
    -3.5974  -3.4321  -3.1614  -2.6988  -2.2234  -1.4042  -0.8611  -0.5267
    -0.2071  -0.1272   0.0272   0.0599   0.1085   0.2243   0.3083   0.3823
     0.6047   0.9937   1.1116   1.1924   1.1963   1.3811   1.4731   1.5105
     1.5270   1.5682   1.6220   1.8347   1.8739   1.8927   1.9100   2.0370
     2.1179   2.1843   2.2590   2.3045   2.4423   2.5783   2.5956   2.6848
     2.7463   2.7762   2.8124   2.9267   2.9441   2.9488   3.0423   3.0702
     3.0987   3.2236   3.2261   3.2459   3.2686   3.2875   3.3418   3.4204
     3.4922   3.5194   3.5554   3.6024   3.6535   3.6643   3.7410   3.7676
     3.7894   3.9093   3.9401   3.9429   3.9518   4.0046   4.0283   4.1930
     4.2159   4.2714   4.3049   4.3299   4.3793   4.4327   4.4577   4.5141
     4.5254   4.5745   4.5883   4.6459   4.6530   4.6788   4.7194   4.7291
     4.8241   4.8513   4.8662   4.8981   4.9221   4.9509   4.9826   4.9919
     5.0195   5.0219   5.1022   5.1379   5.1577   5.2038   5.2756   5.3489
     5.3571   5.3875   5.4410   5.4857   5.5237   5.5491   5.5966   5.6184
     5.6685   5.6772   5.6890   5.7116   5.7464   5.7526   5.8069   5.8221
     5.8639   5.8979   5.9237   5.9375   5.9626   5.9901   6.0199   6.0528
     6.0744   6.1131   6.1207   6.1753   6.1763   6.1933   6.2651   6.2843
     6.3004   6.3798   6.4130   6.4152   6.4281   6.4832   6.5017   6.5281
     6.5552   6.5664   6.5966   6.6083   6.6270   6.6612   6.6636   6.6912
     6.7352   6.7813   6.7819   6.8046   6.8305   6.8393   6.8545   6.8624
     6.8757   6.9102   6.9244   6.9440   6.9507   6.9668   7.0054   7.0408
     7.0528   7.0876   7.1119   7.1260   7.1719   7.1912   7.2128   7.2148
     7.2530   7.2712   7.2859   7.2895   7.3286   7.3360   7.3563   7.4098
     7.4114   7.4234   7.4790   7.4997   7.5278   7.5299   7.5541   7.5946
     7.6578   7.6670   7.6944   7.7485   7.7860   7.7866   7.8290   7.8738
     7.8997   7.9301   7.9417   7.9809   7.9840   8.0091   8.0117   8.0334
     8.0584   8.0842   8.0867   8.0908   8.1234   8.1535   8.1862   8.2201
     8.2362   8.2648   8.2989   8.3019   8.3289   8.3665   8.3673   8.3883
     8.4199   8.4227   8.4431   8.4683   8.5049   8.5404   8.6003   8.6050
     8.6257   8.7009   8.7012   8.7313   8.7829   8.7831   8.8091   8.8210
     8.8365   8.8506   8.8702   8.8733   8.8892   8.9159   8.9308   8.9518
     8.9851   9.0147   9.0229   9.0737   9.0750   9.1186   9.1208   9.1380
     9.1542   9.1766   9.2024   9.2073   9.2244   9.2604   9.2966   9.2990
     9.3666   9.3780   9.4190   9.4356   9.4528   9.4761   9.4956   9.5053
     9.5373   9.5405   9.5483   9.5652   9.6096   9.6155   9.6238   9.7020
     9.7056   9.7571   9.7700   9.7724   9.7896   9.8494   9.8562   9.8675
     9.8761   9.9018   9.9365   9.9466   9.9472   9.9573   9.9930  10.0093
    10.0250  10.0357  10.0951  10.1554  10.1981  10.2089  10.2123  10.2413
    10.2694  10.2900  10.3201  10.3490  10.3937  10.4040  10.4377  10.4597
    10.4686  10.4867  10.5130  10.5256  10.5403  10.5706  10.5946  10.6555
    10.6643  10.7010  10.7314  10.7361  10.7818  10.7897  10.8181  10.8479
    10.8655  10.8786  10.9046  10.9059  10.9132  10.9386  10.9660  10.9816
    11.0047  11.0187  11.0264  11.0462

          k = 0.0000 0.0000 0.0117 (103457 PWs)   bands (ev):

   -21.0873 -20.8574 -20.6292 -20.5434 -20.3502 -20.0802 -19.9122 -19.8532
   -19.6342 -19.4430 -19.3344 -19.2163 -18.9410 -18.8320 -18.6783 -18.5316
   -18.3488 -18.2217 -17.9928 -17.7858 -17.6613 -17.5555 -17.4136 -17.3660
   -17.2307 -17.1040 -16.9317 -16.7079 -16.5264 -16.3047 -16.2791 -16.1749
   -16.1107 -16.0695 -15.9525 -15.7385 -15.5147 -15.2028 -14.9024 -14.5999
   -14.5519 -14.4475 -14.2637 -14.1788 -14.1189 -13.9969 -13.9257 -13.8015
   -13.6959 -13.2422 -13.1231 -12.9751 -12.9350 -12.8726 -12.7066 -12.5806
   -12.4922 -12.2203 -11.9003 -11.8556 -11.7818 -11.7235 -11.5810 -11.5038
   -11.3207 -11.1787 -10.9983 -10.8987 -10.7998 -10.7054 -10.5844 -10.4350
   -10.2568 -10.1669 -10.0790 -10.0039  -9.8740  -9.7951  -9.6540  -9.5964
    -9.5145  -9.4127  -9.3554  -9.2927  -9.1562  -9.1318  -8.9599  -8.9065
    -8.8862  -8.7882  -8.7415  -8.6620  -8.6213  -8.6106  -8.5198  -8.5053
    -8.4778  -8.3382  -8.3061  -8.2967  -8.2521  -8.2269  -8.1491  -8.0829
    -8.0453  -7.9855  -7.9547  -7.8890  -7.8443  -7.7829  -7.7249  -7.7230
    -7.6517  -7.6031  -7.4779  -7.4703  -7.4288  -7.2367  -7.2325  -7.1949
    -7.1223  -7.0563  -6.9923  -6.9451  -6.8807  -6.8100  -6.7267  -6.6763
    -6.5870  -6.5627  -6.4363  -6.4291  -6.2691  -6.2484  -6.1072  -6.0328
    -5.9491  -5.8801  -5.8687  -5.7292  -5.6541  -5.6477  -5.4338  -5.4038
    -5.3040  -5.1951  -5.1114  -5.0589  -4.9893  -4.9828  -4.9190  -4.7203
    -4.5525  -4.4507  -4.2373  -4.1217  -3.9471  -3.9334  -3.8604  -3.8134
    -3.5894  -3.4368  -3.1518  -2.7135  -2.2398  -1.3943  -0.8456  -0.5276
    -0.2063  -0.1189   0.0287   0.0788   0.1069   0.2210   0.3143   0.3871
     0.5903   0.9803   1.0784   1.1726   1.2000   1.3543   1.4740   1.4985
     1.5269   1.5719   1.6413   1.8197   1.8760   1.8970   1.9311   2.0410
     2.1218   2.2066   2.2825   2.3222   2.4272   2.5992   2.6071   2.6729
     2.7508   2.7523   2.8254   2.9128   2.9459   2.9495   3.0399   3.0495
     3.0852   3.1888   3.2289   3.2500   3.2592   3.3013   3.3483   3.4320
     3.5114   3.5272   3.5539   3.6118   3.6421   3.6601   3.7562   3.7760
     3.7855   3.9096   3.9503   3.9555   3.9942   4.0094   4.0466   4.1925
     4.2109   4.2414   4.2981   4.3328   4.3649   4.4295   4.4792   4.4808
     4.5307   4.5445   4.5620   4.6292   4.6566   4.6581   4.7369   4.7418
     4.8117   4.8452   4.8546   4.8669   4.8998   4.9343   4.9709   5.0104
     5.0295   5.0482   5.1190   5.1226   5.1429   5.2218   5.2643   5.3818
     5.3865   5.4287   5.4439   5.4889   5.4904   5.5564   5.5960   5.6217
     5.6687   5.6946   5.7049   5.7106   5.7431   5.7532   5.8118   5.8227
     5.8699   5.8920   5.8983   5.9358   5.9595   5.9877   6.0045   6.0433
     6.0738   6.1065   6.1103   6.1491   6.1690   6.1929   6.2774   6.2834
     6.2937   6.3854   6.4089   6.4254   6.4513   6.4914   6.5205   6.5250
     6.5380   6.5647   6.6067   6.6246   6.6356   6.6674   6.6835   6.7055
     6.7451   6.7760   6.7861   6.8056   6.8365   6.8407   6.8551   6.8564
     6.8786   6.9138   6.9142   6.9232   6.9451   6.9682   7.0045   7.0382
     7.0574   7.1087   7.1108   7.1235   7.1702   7.1705   7.1879   7.2076
     7.2528   7.2594   7.2772   7.3075   7.3249   7.3356   7.3694   7.3957
     7.3997   7.4241   7.4794   7.4898   7.4997   7.5311   7.5581   7.5936
     7.6409   7.6665   7.7226   7.7463   7.7802   7.7947   7.8307   7.8846
     7.9050   7.9287   7.9428   7.9758   7.9945   8.0259   8.0457   8.0609
     8.0658   8.0718   8.0970   8.1018   8.1297   8.1677   8.1833   8.2072
     8.2509   8.2753   8.2798   8.3052   8.3232   8.3642   8.3664   8.3855
     8.3982   8.4265   8.4490   8.4496   8.5019   8.5263   8.5938   8.6037
     8.6217   8.7019   8.7084   8.7242   8.7617   8.7944   8.8078   8.8097
     8.8400   8.8448   8.8673   8.8725   8.8815   8.9257   8.9329   8.9759
     8.9983   9.0290   9.0392   9.0688   9.0795   9.1020   9.1186   9.1220
     9.1404   9.1598   9.1664   9.1958   9.2252   9.2659   9.2949   9.2993
     9.3549   9.4000   9.4251   9.4281   9.4377   9.4704   9.4935   9.5101
     9.5328   9.5451   9.5700   9.5921   9.6178   9.6262   9.6411   9.7000
     9.7119   9.7476   9.7493   9.7693   9.7814   9.8338   9.8540   9.8647
     9.8772   9.9043   9.9371   9.9402   9.9560   9.9674   9.9824   9.9992
    10.0272  10.0330  10.1009  10.1543  10.1844  10.2286  10.2312  10.2590
    10.2743  10.2993  10.3261  10.3588  10.3998  10.4136  10.4378  10.4519
    10.4595  10.4781  10.5069  10.5124  10.5538  10.5626  10.5862  10.6515
    10.6549  10.6865  10.7015  10.7399  10.7826  10.7852  10.8146  10.8470
    10.8518  10.8634  10.8970  10.9019  10.9080  10.9403  10.9734  10.9739
    11.0064  11.0170  11.0192  11.0628

          k = 0.0000 0.0000 0.0129 (103443 PWs)   bands (ev):

   -21.0846 -20.8680 -20.6237 -20.5313 -20.3578 -20.0666 -19.9318 -19.8565
   -19.6443 -19.4469 -19.3163 -19.2047 -18.9354 -18.8301 -18.6818 -18.5313
   -18.3458 -18.2451 -17.9859 -17.8146 -17.6626 -17.5664 -17.4122 -17.3339
   -17.2143 -17.1035 -16.9156 -16.7047 -16.5335 -16.3044 -16.2665 -16.1886
   -16.1160 -16.0858 -15.9541 -15.7429 -15.5197 -15.2157 -14.9081 -14.6053
   -14.5230 -14.4592 -14.2692 -14.1446 -14.1047 -13.9967 -13.9084 -13.7826
   -13.6879 -13.2514 -13.1415 -12.9989 -12.9883 -12.8997 -12.7131 -12.5815
   -12.4704 -12.2139 -11.9042 -11.8465 -11.7577 -11.6728 -11.5856 -11.5179
   -11.3034 -11.1927 -10.9924 -10.9052 -10.7813 -10.7025 -10.6049 -10.4416
   -10.2583 -10.1649 -10.0883 -10.0045  -9.8944  -9.8158  -9.6580  -9.5864
    -9.5091  -9.4054  -9.3391  -9.2776  -9.1528  -9.1321  -8.9527  -8.9169
    -8.8992  -8.7981  -8.7535  -8.6904  -8.6157  -8.6130  -8.5041  -8.4928
    -8.4643  -8.3486  -8.3154  -8.3136  -8.2564  -8.2190  -8.1491  -8.0805
    -8.0335  -7.9688  -7.9436  -7.8762  -7.8298  -7.8013  -7.7339  -7.7028
    -7.6546  -7.5997  -7.4888  -7.4680  -7.4286  -7.2449  -7.2400  -7.2043
    -7.1017  -7.0692  -6.9761  -6.9383  -6.8822  -6.8051  -6.7276  -6.6715
    -6.5953  -6.5597  -6.4562  -6.4393  -6.2656  -6.2462  -6.1072  -6.0258
    -5.9593  -5.8972  -5.8817  -5.7191  -5.6411  -5.6369  -5.4636  -5.3902
    -5.3067  -5.2075  -5.1192  -5.0623  -4.9885  -4.9516  -4.9029  -4.7184
    -4.5554  -4.4431  -4.2325  -4.1170  -3.9686  -3.9398  -3.8613  -3.8070
    -3.5820  -3.4405  -3.1420  -2.7287  -2.2567  -1.3843  -0.8298  -0.5274
    -0.2104  -0.1043   0.0298   0.0963   0.1076   0.2167   0.3193   0.3931
     0.5786   0.9617   1.0455   1.1523   1.2042   1.3215   1.4839   1.4841
     1.5300   1.5760   1.6629   1.8046   1.8603   1.9203   1.9477   2.0469
     2.1260   2.2293   2.3062   2.3390   2.4126   2.6033   2.6042   2.6912
     2.7224   2.7587   2.8415   2.9014   2.9413   2.9567   3.0310   3.0358
     3.0737   3.1536   3.2304   3.2460   3.2522   3.3168   3.3587   3.4445
     3.5190   3.5255   3.5698   3.6113   3.6298   3.6652   3.7428   3.7977
     3.8031   3.9032   3.9678   3.9706   4.0153   4.0376   4.0656   4.1865
     4.2041   4.2181   4.2924   4.3361   4.3496   4.4211   4.4393   4.4987
     4.5081   4.5411   4.5436   4.6135   4.6399   4.6590   4.7496   4.7533
     4.7987   4.8210   4.8488   4.8558   4.8710   4.9082   4.9664   5.0281
     5.0438   5.0805   5.1134   5.1287   5.1372   5.2323   5.2613   5.4039
     5.4128   5.4427   5.4570   5.4695   5.4955   5.5759   5.5905   5.6123
     5.6628   5.7028   5.7069   5.7217   5.7492   5.7725   5.8164   5.8230
     5.8584   5.8816   5.8830   5.9074   5.9811   5.9893   5.9955   6.0401
     6.0700   6.0968   6.1040   6.1235   6.1694   6.1957   6.2692   6.2886
     6.3028   6.3741   6.3989   6.4342   6.4764   6.4861   6.5191   6.5376
     6.5403   6.5699   6.6085   6.6184   6.6442   6.6779   6.7100   6.7305
     6.7594   6.7640   6.7925   6.8041   6.8359   6.8416   6.8440   6.8564
     6.8753   6.8973   6.9117   6.9306   6.9540   6.9734   7.0068   7.0344
     7.0619   7.1002   7.1061   7.1302   7.1350   7.1678   7.1915   7.2157
     7.2218   7.2573   7.2879   7.3120   7.3231   7.3433   7.3733   7.3806
     7.4034   7.4315   7.4568   7.4723   7.4984   7.5318   7.5580   7.6014
     7.6178   7.6661   7.7240   7.7690   7.7727   7.8001   7.8353   7.8783
     7.8982   7.9331   7.9339   7.9851   8.0014   8.0311   8.0594   8.0658
     8.0855   8.1061   8.1085   8.1227   8.1317   8.1690   8.1786   8.2103
     8.2246   8.2764   8.2949   8.3134   8.3391   8.3572   8.3696   8.3709
     8.3838   8.4116   8.4299   8.4798   8.4981   8.5220   8.5867   8.6030
     8.6206   8.6711   8.7115   8.7143   8.7493   8.7849   8.8009   8.8064
     8.8424   8.8440   8.8556   8.8724   8.8987   8.9358   8.9412   9.0043
     9.0100   9.0342   9.0512   9.0597   9.0808   9.0886   9.1051   9.1191
     9.1345   9.1405   9.1543   9.1900   9.2125   9.2774   9.2900   9.3116
     9.3290   9.3838   9.3975   9.4234   9.4687   9.4818   9.4975   9.5242
     9.5280   9.5536   9.5807   9.6102   9.6299   9.6448   9.6546   9.6988
     9.7100   9.7273   9.7313   9.7596   9.7946   9.8184   9.8480   9.8508
     9.8765   9.9043   9.9109   9.9343   9.9596   9.9646   9.9925  10.0241
    10.0386  10.0399  10.0962  10.1348  10.1694  10.2446  10.2460  10.2574
    10.2847  10.3188  10.3521  10.3719  10.3906  10.3965  10.4216  10.4373
    10.4582  10.4813  10.5007  10.5165  10.5542  10.5801  10.5898  10.6334
    10.6451  10.6837  10.6898  10.7449  10.7783  10.7872  10.8044  10.8339
    10.8418  10.8577  10.8857  10.8960  10.9130  10.9321  10.9745  10.9798
    11.0024  11.0165  11.0168  11.0673

          k = 0.0000 0.0000 0.0141 (103441 PWs)   bands (ev):

   -21.0817 -20.8784 -20.6190 -20.5185 -20.3648 -20.0534 -19.9525 -19.8577
   -19.6546 -19.4540 -19.2979 -19.1888 -18.9319 -18.8301 -18.6822 -18.5303
   -18.3518 -18.2596 -17.9791 -17.8428 -17.6641 -17.5773 -17.4150 -17.2971
   -17.1994 -17.1042 -16.8993 -16.6992 -16.5394 -16.3070 -16.2542 -16.2053
   -16.1309 -16.0940 -15.9502 -15.7498 -15.5246 -15.2271 -14.9145 -14.6187
   -14.4863 -14.4672 -14.2767 -14.1141 -14.0833 -13.9962 -13.8924 -13.7657
   -13.6771 -13.2609 -13.1596 -13.0500 -13.0142 -12.9290 -12.7264 -12.5747
   -12.4490 -12.2069 -11.9096 -11.8361 -11.7335 -11.6429 -11.5708 -11.5314
   -11.2825 -11.2110 -10.9905 -10.9064 -10.7644 -10.6994 -10.6206 -10.4484
   -10.2625 -10.1707 -10.1091  -9.9891  -9.9274  -9.8237  -9.6671  -9.5685
    -9.5028  -9.3987  -9.3220  -9.2605  -9.1492  -9.1323  -8.9659  -8.9142
    -8.9118  -8.8119  -8.7650  -8.7171  -8.6142  -8.6108  -8.4901  -8.4878
    -8.4381  -8.3566  -8.3303  -8.3239  -8.2653  -8.2071  -8.1501  -8.0795
    -8.0226  -7.9520  -7.9340  -7.8631  -7.8244  -7.8144  -7.7377  -7.6821
    -7.6579  -7.5957  -7.5001  -7.4663  -7.4272  -7.2561  -7.2518  -7.2100
    -7.0820  -7.0801  -6.9548  -6.9330  -6.8859  -6.8019  -6.7276  -6.6685
    -6.6033  -6.5618  -6.4817  -6.4367  -6.2606  -6.2427  -6.1104  -6.0256
    -5.9677  -5.9201  -5.8835  -5.7118  -5.6336  -5.6169  -5.4941  -5.3764
    -5.3093  -5.2188  -5.1277  -5.0667  -4.9946  -4.9132  -4.8874  -4.7199
    -4.5583  -4.4329  -4.2264  -4.1130  -3.9923  -3.9459  -3.8618  -3.8014
    -3.5752  -3.4427  -3.1325  -2.7444  -2.2741  -1.3744  -0.8139  -0.5259
    -0.2171  -0.0859   0.0311   0.0987   0.1231   0.2124   0.3221   0.4009
     0.5698   0.9375   1.0143   1.1294   1.2088   1.2894   1.4691   1.4987
     1.5341   1.5806   1.6857   1.7897   1.8449   1.9442   1.9592   2.0546
     2.1305   2.2523   2.3298   2.3554   2.3988   2.5830   2.6077   2.6913
     2.7224   2.7728   2.8511   2.8964   2.9344   2.9658   3.0166   3.0290
     3.0658   3.1187   3.2299   3.2326   3.2541   3.3289   3.3740   3.4556
     3.5070   3.5327   3.5896   3.6019   3.6199   3.6734   3.7385   3.8187
     3.8228   3.8994   3.9854   3.9863   4.0231   4.0802   4.0858   4.1678
     4.1951   4.2102   4.2878   4.3331   4.3399   4.3976   4.4124   4.4714
     4.5042   4.5272   4.5490   4.6019   4.6358   4.6509   4.7551   4.7605
     4.7865   4.7934   4.8332   4.8513   4.8648   4.8792   4.9654   5.0371
     5.0608   5.1012   5.1145   5.1294   5.1564   5.2272   5.2740   5.3730
     5.4394   5.4502   5.4633   5.5003   5.5095   5.5766   5.5992   5.6006
     5.6589   5.6943   5.7049   5.7345   5.7710   5.7843   5.8197   5.8257
     5.8385   5.8685   5.8801   5.8854   5.9727   5.9968   6.0063   6.0327
     6.0640   6.0991   6.1014   6.1040   6.1747   6.1986   6.2599   6.2852
     6.3223   6.3526   6.3919   6.4210   6.4662   6.5119   6.5169   6.5494
     6.5610   6.5750   6.6108   6.6142   6.6493   6.6792   6.7260   6.7407
     6.7569   6.7815   6.7980   6.8103   6.8166   6.8347   6.8469   6.8602
     6.8764   6.9030   6.9135   6.9306   6.9618   6.9782   7.0160   7.0377
     7.0590   7.0739   7.0990   7.1224   7.1271   7.1608   7.1925   7.1944
     7.2378   7.2612   7.2967   7.2996   7.3321   7.3542   7.3648   7.3712
     7.4188   7.4259   7.4456   7.4519   7.5015   7.5344   7.5567   7.5976
     7.6145   7.6629   7.7188   7.7527   7.7874   7.8136   7.8434   7.8490
     7.8880   7.9362   7.9404   7.9952   8.0057   8.0319   8.0744   8.0762
     8.0940   8.1017   8.1278   8.1355   8.1484   8.1630   8.1965   8.2153
     8.2348   8.2736   8.3004   8.3086   8.3421   8.3490   8.3545   8.3730
     8.3940   8.4145   8.4148   8.4865   8.5112   8.5252   8.5716   8.6034
     8.6085   8.6325   8.7047   8.7170   8.7394   8.7797   8.7807   8.8037
     8.8405   8.8483   8.8639   8.8648   8.9257   8.9398   8.9576   8.9970
     9.0265   9.0328   9.0425   9.0533   9.0646   9.0932   9.1004   9.1237
     9.1289   9.1468   9.1576   9.1870   9.2045   9.2733   9.2813   9.3040
     9.3323   9.3699   9.3746   9.4079   9.4709   9.4943   9.5148   9.5317
     9.5560   9.5656   9.5913   9.6229   9.6265   9.6484   9.6564   9.6940
     9.7045   9.7113   9.7298   9.7702   9.7983   9.8079   9.8333   9.8387
     9.8740   9.8766   9.9074   9.9290   9.9580   9.9660  10.0146  10.0350
    10.0554  10.0583  10.0962  10.1107  10.1516  10.2349  10.2641  10.2653
    10.3022  10.3276  10.3597  10.3691  10.3748  10.3862  10.4184  10.4249
    10.4483  10.4886  10.5167  10.5238  10.5493  10.5818  10.6034  10.6215
    10.6349  10.6906  10.6984  10.7459  10.7711  10.7751  10.8074  10.8200
    10.8316  10.8567  10.8794  10.8870  10.9181  10.9210  10.9793  10.9880
    10.9952  11.0174  11.0234  11.0510

          k = 0.0000 0.0000 0.0153 (103453 PWs)   bands (ev):

   -21.0786 -20.8884 -20.6147 -20.5054 -20.3708 -20.0417 -19.9724 -19.8578
   -19.6652 -19.4630 -19.2800 -19.1694 -18.9307 -18.8319 -18.6802 -18.5282
   -18.3689 -18.2628 -17.9739 -17.8694 -17.6656 -17.5873 -17.4194 -17.2592
   -17.1870 -17.1041 -16.8834 -16.6921 -16.5433 -16.3120 -16.2458 -16.2217
   -16.1521 -16.0954 -15.9428 -15.7589 -15.5293 -15.2370 -14.9211 -14.6329
   -14.4843 -14.4367 -14.2850 -14.0925 -14.0515 -13.9949 -13.8780 -13.7515
   -13.6630 -13.2705 -13.1782 -13.1046 -13.0353 -12.9604 -12.7437 -12.5629
   -12.4282 -12.1997 -11.9156 -11.8249 -11.7106 -11.6416 -11.5505 -11.5210
   -11.2592 -11.2327 -10.9928 -10.9039 -10.7506 -10.6967 -10.6285 -10.4548
   -10.2691 -10.1812 -10.1362  -9.9897  -9.9403  -9.8293  -9.6737  -9.5483
    -9.4960  -9.3916  -9.3049  -9.2431  -9.1452  -9.1321  -8.9889  -8.9241
    -8.9079  -8.8293  -8.7790  -8.7376  -8.6134  -8.6063  -8.4895  -8.4716
    -8.4163  -8.3611  -8.3412  -8.3311  -8.2750  -8.1957  -8.1512  -8.0788
    -8.0123  -7.9359  -7.9256  -7.8520  -7.8489  -7.7981  -7.7389  -7.6725
    -7.6485  -7.5920  -7.5117  -7.4660  -7.4248  -7.2692  -7.2669  -7.2124
    -7.0887  -7.0630  -6.9304  -6.9295  -6.8901  -6.8016  -6.7263  -6.6673
    -6.6117  -6.5685  -6.5041  -6.4298  -6.2547  -6.2376  -6.1169  -6.0366
    -5.9741  -5.9321  -5.8854  -5.7066  -5.6262  -5.5952  -5.5246  -5.3625
    -5.3118  -5.2287  -5.1369  -5.0717  -5.0012  -4.8759  -4.8719  -4.7238
    -4.5602  -4.4220  -4.2184  -4.1099  -4.0174  -3.9517  -3.8621  -3.7972
    -3.5694  -3.4430  -3.1233  -2.7601  -2.2915  -1.3648  -0.7983  -0.5228
    -0.2248  -0.0656   0.0329   0.0959   0.1410   0.2107   0.3223   0.4111
     0.5639   0.9082   0.9857   1.1019   1.2137   1.2619   1.4545   1.5156
     1.5388   1.5856   1.7091   1.7752   1.8299   1.9662   1.9685   2.0638
     2.1354   2.2754   2.3519   2.3710   2.3876   2.5591   2.6124   2.6600
     2.7449   2.7982   2.8485   2.8966   2.9300   2.9770   3.0078   3.0199
     3.0624   3.0841   3.2193   3.2270   3.2570   3.3379   3.3932   3.4623
     3.4948   3.5323   3.5879   3.6005   3.6242   3.6768   3.7514   3.8297
     3.8474   3.9021   3.9983   4.0025   4.0342   4.1029   4.1241   4.1471
     4.1835   4.2107   4.2835   4.3148   4.3438   4.3577   4.4040   4.4353
     4.5007   4.5116   4.5453   4.5919   4.6322   4.6512   4.7449   4.7545
     4.7797   4.7801   4.8052   4.8491   4.8668   4.8691   4.9651   5.0364
     5.0795   5.0994   5.1172   5.1653   5.1766   5.2171   5.2852   5.3335
     5.4546   5.4569   5.4835   5.5079   5.5425   5.5644   5.5959   5.6202
     5.6560   5.6870   5.7028   5.7404   5.7806   5.7808   5.8196   5.8204
     5.8285   5.8586   5.8869   5.8875   5.9688   5.9974   5.9991   6.0203
     6.0623   6.0797   6.1021   6.1333   6.1803   6.2011   6.2499   6.2812
     6.3312   6.3413   6.3737   6.3979   6.4629   6.5093   6.5377   6.5529
     6.5823   6.5883   6.6140   6.6201   6.6443   6.6770   6.7222   6.7430
     6.7487   6.7868   6.8031   6.8103   6.8257   6.8365   6.8521   6.8735
     6.8798   6.9118   6.9169   6.9319   6.9686   6.9820   7.0185   7.0230
     7.0571   7.0755   7.0959   7.1144   7.1197   7.1511   7.1737   7.1941
     7.2354   7.2788   7.2926   7.3108   7.3346   7.3485   7.3684   7.3780
     7.3896   7.4305   7.4369   7.4655   7.4980   7.5360   7.5622   7.5793
     7.6271   7.6627   7.7153   7.7316   7.7831   7.8136   7.8233   7.8522
     7.8842   7.9425   7.9501   8.0060   8.0079   8.0327   8.0724   8.0851
[...]
    -5.2703  -5.2627  -5.2285  -5.1393  -5.0642  -4.8599  -4.7423  -4.5606
    -4.5050  -4.3682  -4.2924  -4.1410  -4.0590  -3.9720  -3.8678  -3.8411
    -3.5582  -3.3646  -3.0968  -2.8539  -2.4161  -1.3059  -0.7083  -0.4639
    -0.2280  -0.0558   0.0184   0.1022   0.2525   0.3000   0.4399   0.4945
     0.5812   0.6430   0.7308   0.7785   1.1811   1.2743   1.3410   1.5998
     1.6463   1.6574   1.6617   1.7147   1.9091   1.9508   2.1112   2.1893
     2.2041   2.2730   2.2886   2.3766   2.5053   2.5845   2.6000   2.6678
     2.6801   2.7447   2.7916   2.8253   2.9018   2.9685   3.0329   3.0587
     3.1151   3.1340   3.1458   3.2719   3.3144   3.3164   3.3799   3.4061
     3.4385   3.4653   3.6300   3.6983   3.7096   3.8039   3.8136   3.8342
     3.8812   4.0298   4.0570   4.0667   4.0947   4.1300   4.1520   4.1541
     4.1789   4.1854   4.2599   4.2871   4.3251   4.3571   4.3649   4.4030
     4.4053   4.4334   4.4629   4.4690   4.4798   4.5436   4.5660   4.5774
     4.6150   4.7086   4.8508   4.8791   4.9121   4.9717   4.9965   5.0479
     5.0856   5.1055   5.1692   5.2179   5.2869   5.3037   5.3162   5.3694
     5.4187   5.4809   5.4903   5.5090   5.5212   5.5529   5.5702   5.6184
     5.6261   5.6713   5.6915   5.7411   5.7982   5.8215   5.8453   5.8656
     5.8974   5.9092   5.9113   5.9405   5.9787   5.9982   6.0067   6.0198
     6.0576   6.0831   6.1198   6.1752   6.1900   6.2167   6.2240   6.2306
     6.2457   6.2821   6.2947   6.3166   6.4226   6.4485   6.5234   6.5263
     6.5827   6.5853   6.6178   6.6446   6.6559   6.6707   6.7312   6.7381
     6.7446   6.7937   6.8110   6.8277   6.8458   6.8636   6.8691   6.8916
     6.9210   6.9212   6.9528   6.9663   6.9700   7.0044   7.0307   7.0377
     7.0710   7.1001   7.1289   7.1469   7.1654   7.1957   7.2012   7.2048
     7.2457   7.2458   7.2834   7.3263   7.3336   7.3372   7.3827   7.3915
     7.4196   7.4492   7.4612   7.4650   7.4901   7.4982   7.5607   7.5667
     7.5873   7.6245   7.7146   7.7400   7.7537   7.7913   7.8231   7.8549
     7.8644   7.8800   7.8890   7.9203   7.9420   7.9843   8.0129   8.0689
     8.1080   8.1375   8.1574   8.1583   8.1658   8.1728   8.1888   8.2179
     8.2390   8.2746   8.3139   8.3230   8.3500   8.3865   8.4159   8.4186
     8.4459   8.4596   8.4910   8.5016   8.5277   8.5837   8.5844   8.6229
     8.6545   8.6619   8.7148   8.7176   8.7290   8.7386   8.7634   8.7671
     8.7984   8.8438   8.8617   8.8909   8.9098   8.9288   8.9655   8.9684
     8.9917   9.0105   9.0178   9.0392   9.0645   9.0800   9.1253   9.1296
     9.1464   9.1764   9.1857   9.2011   9.2322   9.2338   9.2464   9.2698
     9.3079   9.3275   9.3655   9.3665   9.4364   9.4472   9.4899   9.4914
     9.5173   9.5467   9.5676   9.5984   9.6330   9.6567   9.6647   9.6690
     9.7006   9.7158   9.7282   9.7444   9.7671   9.7865   9.8316   9.8486
     9.8542   9.8850   9.9149   9.9690   9.9746  10.0065  10.0136  10.0275
    10.0702  10.0913  10.1236  10.1471  10.1559  10.2068  10.2076  10.2533
    10.2774  10.3054  10.3174  10.3441  10.3786  10.3929  10.4309  10.4426
    10.4909  10.5456  10.5508  10.5697  10.6001  10.6071  10.6180  10.6260
    10.6424  10.6552  10.7021  10.7275  10.7375  10.7446  10.7708  10.7757
    10.7876  10.8157  10.8391  10.8561  10.8872  10.9084  10.9300  10.9521
    10.9747  10.9960  11.0088  11.0147

          k = 0.0000 0.0000 0.0270 (103398 PWs)   bands (ev):

   -21.0447 -20.9615 -20.5882 -20.4573 -20.2974 -20.2023 -19.8869 -19.8545
   -19.7769 -19.5427 -19.1317 -19.0203 -18.8796 -18.8539 -18.7484 -18.6106
   -18.3673 -18.1954 -18.1564 -17.9184 -17.6459 -17.6217 -17.4861 -17.2402
   -17.0282 -16.8442 -16.7744 -16.6568 -16.6277 -16.4755 -16.3031 -16.2682
   -16.1604 -16.1043 -15.9763 -15.7504 -15.5655 -15.3017 -14.9630 -14.7178
   -14.5509 -14.3476 -14.0210 -13.9590 -13.9341 -13.8281 -13.7364 -13.6592
   -13.5923 -13.4721 -13.3723 -13.3059 -13.2586 -13.2183 -12.8772 -12.4328
   -12.2968 -12.1535 -11.9298 -11.8073 -11.7119 -11.6297 -11.4899 -11.3883
   -11.2139 -11.0389 -10.9717 -10.8733 -10.7010 -10.6677 -10.5917 -10.4877
   -10.4496 -10.3567 -10.3087 -10.2082 -10.0364  -9.6172  -9.4834  -9.4683
    -9.3962  -9.3440  -9.3156  -9.1856  -9.1572  -9.0999  -9.0821  -9.0186
    -9.0167  -8.9724  -8.8235  -8.7894  -8.6280  -8.5749  -8.5086  -8.4428
    -8.4300  -8.4064  -8.3564  -8.2743  -8.2236  -8.1171  -8.1044  -8.0689
    -7.9953  -7.9398  -7.9026  -7.8287  -7.7640  -7.7259  -7.7129  -7.6544
    -7.6408  -7.5804  -7.5555  -7.5176  -7.3752  -7.3394  -7.2645  -7.2388
    -7.1442  -7.0099  -6.9115  -6.8947  -6.8480  -6.7743  -6.7630  -6.7184
    -6.6223  -6.5857  -6.4489  -6.4452  -6.3265  -6.3066  -6.1528  -6.0280
    -6.0081  -5.8845  -5.8819  -5.8281  -5.6952  -5.5870  -5.3880  -5.2774
    -5.2736  -5.2639  -5.2301  -5.1463  -5.0686  -4.8639  -4.7386  -4.5587
    -4.4701  -4.3665  -4.3262  -4.1418  -4.0493  -3.9703  -3.8704  -3.8474
    -3.5584  -3.3568  -3.0994  -2.8563  -2.4221  -1.3035  -0.7050  -0.4609
    -0.2180  -0.0726   0.0186   0.1004   0.2732   0.3079   0.4416   0.5120
     0.5738   0.6481   0.6942   0.7600   1.1794   1.2819   1.3314   1.6081
     1.6506   1.6548   1.6647   1.7051   1.9230   1.9481   2.1113   2.1952
     2.2306   2.2659   2.2755   2.3488   2.5279   2.5937   2.6275   2.6550
     2.6749   2.7311   2.7671   2.8316   2.8938   2.9742   3.0372   3.0660
     3.1111   3.1259   3.1701   3.2644   3.2867   3.3228   3.3738   3.4139
     3.4558   3.4787   3.6546   3.6824   3.7132   3.7857   3.7976   3.8355
     3.8830   4.0540   4.0548   4.0678   4.1223   4.1258   4.1494   4.1514
     4.1761   4.1824   4.2489   4.2966   4.3243   4.3542   4.3669   4.3943
     4.4121   4.4333   4.4406   4.4604   4.4836   4.5416   4.5687   4.5864
     4.6015   4.7039   4.8028   4.8847   4.9174   4.9702   4.9936   5.0865
     5.1084   5.1138   5.1799   5.2064   5.2592   5.2793   5.3230   5.3837
     5.4382   5.4697   5.4923   5.5056   5.5213   5.5583   5.5656   5.6090
     5.6324   5.6775   5.6809   5.7300   5.7952   5.8226   5.8610   5.8743
     5.8751   5.9127   5.9158   5.9524   5.9995   6.0122   6.0206   6.0340
     6.0433   6.0824   6.1123   6.1738   6.1862   6.1881   6.2172   6.2234
     6.2243   6.2886   6.3070   6.3379   6.4242   6.4546   6.4911   6.5219
     6.5546   6.6039   6.6059   6.6494   6.6691   6.6834   6.7291   6.7347
     6.7465   6.7927   6.8143   6.8316   6.8536   6.8689   6.8712   6.8931
     6.9002   6.9240   6.9545   6.9572   6.9801   7.0013   7.0283   7.0364
     7.0639   7.1064   7.1248   7.1568   7.1783   7.1945   7.2077   7.2204
     7.2438   7.2478   7.2772   7.3229   7.3296   7.3674   7.3786   7.3837
     7.4092   7.4372   7.4382   7.4618   7.5179   7.5408   7.5583   7.5592
     7.5804   7.6275   7.7021   7.7174   7.7458   7.7831   7.8220   7.8656
     7.8807   7.8872   7.9018   7.9271   7.9413   7.9885   8.0052   8.0571
     8.0699   8.1250   8.1356   8.1585   8.1665   8.1712   8.1910   8.2173
     8.2551   8.2749   8.3222   8.3223   8.3482   8.3904   8.3943   8.4097
     8.4336   8.4717   8.5095   8.5122   8.5488   8.5818   8.6006   8.6096
     8.6616   8.6640   8.7128   8.7281   8.7317   8.7594   8.7671   8.7892
     8.8057   8.8458   8.8459   8.8930   8.9119   8.9149   8.9541   8.9573
     8.9824   9.0015   9.0230   9.0300   9.0579   9.0718   9.1319   9.1327
     9.1511   9.1918   9.1927   9.2051   9.2209   9.2333   9.2413   9.2984
     9.3035   9.3135   9.3413   9.3847   9.4114   9.4472   9.4870   9.4985
     9.5160   9.5435   9.5631   9.5859   9.6277   9.6570   9.6638   9.6695
     9.7008   9.7164   9.7249   9.7467   9.7733   9.8023   9.8432   9.8615
     9.8626   9.8928   9.9020   9.9574   9.9828   9.9852  10.0037  10.0078
    10.0552  10.0789  10.1120  10.1533  10.1569  10.2446  10.2489  10.2601
    10.2794  10.2911  10.3145  10.3606  10.3849  10.4127  10.4162  10.4380
    10.4924  10.5365  10.5628  10.5733  10.5928  10.6123  10.6240  10.6243
    10.6353  10.6609  10.6883  10.6984  10.7249  10.7429  10.7696  10.7735
    10.7898  10.8102  10.8144  10.8466  10.8787  10.9144  10.9278  10.9577
    10.9774  10.9994  11.0077  11.0217

          k = 0.0000 0.0000 0.0282 (103420 PWs)   bands (ev):

   -21.0432 -20.9639 -20.5875 -20.4580 -20.2833 -20.2179 -19.8780 -19.8563
   -19.7832 -19.5448 -19.1242 -19.0265 -18.8566 -18.8510 -18.7731 -18.6132
   -18.3558 -18.1999 -18.1628 -17.9191 -17.6430 -17.6220 -17.4896 -17.2427
   -17.0242 -16.8312 -16.7460 -16.6711 -16.6520 -16.4756 -16.2975 -16.2712
   -16.1562 -16.1098 -15.9818 -15.7451 -15.5673 -15.3040 -14.9637 -14.7196
   -14.5525 -14.3489 -14.0203 -13.9461 -13.9083 -13.8194 -13.7555 -13.6827
   -13.5550 -13.4836 -13.3848 -13.3102 -13.2617 -13.2281 -12.8804 -12.4286
   -12.2939 -12.1530 -11.9268 -11.8142 -11.7111 -11.6229 -11.5028 -11.3676
   -11.2330 -11.0269 -10.9632 -10.8486 -10.7149 -10.6646 -10.6169 -10.4741
   -10.4499 -10.3722 -10.3059 -10.2112 -10.0461  -9.6043  -9.4765  -9.4477
    -9.4014  -9.3498  -9.3303  -9.1836  -9.1519  -9.0976  -9.0913  -9.0223
    -9.0200  -8.9704  -8.8232  -8.7881  -8.6354  -8.5739  -8.5087  -8.4376
    -8.4312  -8.4126  -8.3508  -8.2826  -8.2041  -8.1381  -8.1014  -8.0666
    -7.9818  -7.9422  -7.9063  -7.8220  -7.7568  -7.7232  -7.7111  -7.6550
    -7.6495  -7.5871  -7.5561  -7.5227  -7.3780  -7.3162  -7.2676  -7.2362
    -7.1616  -6.9998  -6.9234  -6.8851  -6.8464  -6.7832  -6.7678  -6.7190
    -6.6215  -6.5557  -6.4751  -6.4348  -6.3317  -6.3172  -6.1504  -6.0099
    -6.0096  -5.8917  -5.8840  -5.8358  -5.6952  -5.5878  -5.3778  -5.2783
    -5.2717  -5.2654  -5.2296  -5.1511  -5.0713  -4.8663  -4.7363  -4.5579
    -4.4353  -4.3662  -4.3591  -4.1425  -4.0430  -3.9687  -3.8733  -3.8509
    -3.5586  -3.3518  -3.1013  -2.8576  -2.4257  -1.3021  -0.7030  -0.4592
    -0.2099  -0.0849   0.0187   0.0993   0.2815   0.3234   0.4298   0.5372
     0.5693   0.6445   0.6736   0.7458   1.1784   1.2883   1.3238   1.6159
     1.6422   1.6605   1.6692   1.6976   1.9326   1.9458   2.1111   2.1992
     2.2545   2.2631   2.2672   2.3220   2.5478   2.5994   2.6315   2.6583
     2.6789   2.7116   2.7520   2.8361   2.8881   2.9778   3.0402   3.0730
     3.1074   3.1185   3.1951   3.2585   3.2604   3.3276   3.3685   3.4214
     3.4474   3.5176   3.6561   3.6748   3.7192   3.7595   3.7951   3.8338
     3.8909   4.0513   4.0660   4.0763   4.1207   4.1287   4.1465   4.1572
     4.1787   4.1938   4.2303   4.2836   4.3443   4.3581   4.3664   4.3853
     4.4054   4.4186   4.4489   4.4600   4.4892   4.5237   4.5604   4.5776
     4.6403   4.7003   4.7584   4.8881   4.9213   4.9681   4.9922   5.1074
     5.1285   5.1360   5.1913   5.1925   5.2283   5.2534   5.3304   5.4077
     5.4438   5.4644   5.4732   5.5136   5.5303   5.5558   5.5610   5.6047
     5.6344   5.6689   5.6924   5.7301   5.7929   5.8077   5.8591   5.8730
     5.8819   5.9153   5.9206   5.9613   6.0057   6.0179   6.0315   6.0372
     6.0727   6.0784   6.1042   6.1569   6.1759   6.1859   6.1901   6.2081
     6.2231   6.2809   6.3489   6.3624   6.4219   6.4486   6.4627   6.5150
     6.5357   6.5963   6.6258   6.6532   6.6677   6.7015   6.7252   6.7370
     6.7481   6.7910   6.8165   6.8351   6.8497   6.8680   6.8749   6.8871
     6.8948   6.9263   6.9508   6.9531   6.9918   7.0018   7.0274   7.0350
     7.0524   7.1178   7.1227   7.1657   7.1851   7.1910   7.2135   7.2149
     7.2524   7.2610   7.2725   7.3132   7.3253   7.3680   7.3772   7.3950
     7.4172   7.4183   7.4338   7.4573   7.5085   7.5446   7.5534   7.5823
     7.6181   7.6436   7.6656   7.7036   7.7317   7.7715   7.7946   7.8663
     7.9066   7.9135   7.9228   7.9404   7.9408   7.9828   8.0070   8.0292
     8.0608   8.0973   8.1077   8.1684   8.1742   8.1784   8.1919   8.2104
     8.2690   8.2768   8.3205   8.3292   8.3445   8.3688   8.3977   8.4046
     8.4214   8.4897   8.5205   8.5293   8.5640   8.5758   8.5878   8.6167
     8.6543   8.6781   8.7083   8.7252   8.7281   8.7647   8.7743   8.8130
     8.8271   8.8516   8.8527   8.8997   8.9019   8.9137   8.9250   8.9464
     8.9611   8.9833   9.0163   9.0444   9.0543   9.0807   9.1377   9.1484
     9.1546   9.1688   9.1920   9.2006   9.2300   9.2435   9.2499   9.2813
     9.3051   9.3228   9.3325   9.3930   9.4076   9.4512   9.4827   9.4840
     9.5041   9.5422   9.5651   9.5839   9.6236   9.6577   9.6635   9.6739
     9.6972   9.7165   9.7228   9.7391   9.7846   9.8261   9.8504   9.8666
     9.8791   9.8923   9.8989   9.9352   9.9599   9.9927   9.9991  10.0053
    10.0439  10.0666  10.0988  10.1586  10.1677  10.2491  10.2503  10.2763
    10.2977  10.3016  10.3210  10.3810  10.3854  10.3899  10.4044  10.4659
    10.4959  10.5280  10.5318  10.5734  10.6026  10.6157  10.6265  10.6313
    10.6445  10.6587  10.6729  10.6855  10.7071  10.7443  10.7639  10.7843
    10.7859  10.7945  10.8085  10.8507  10.8705  10.9181  10.9195  10.9592
    10.9858  11.0004  11.0012  11.0324

          k = 0.0000 0.0000-0.0293 (103456 PWs)   bands (ev):

   -21.0427 -20.9647 -20.5872 -20.4582 -20.2767 -20.2251 -19.8742 -19.8575
   -19.7855 -19.5455 -19.1215 -19.0288 -18.8550 -18.8385 -18.7868 -18.6140
   -18.3514 -18.2026 -18.1642 -17.9194 -17.6419 -17.6221 -17.4908 -17.2436
   -17.0228 -16.8278 -16.7108 -16.7086 -16.6521 -16.4757 -16.2950 -16.2726
   -16.1544 -16.1121 -15.9836 -15.7432 -15.5680 -15.3048 -14.9639 -14.7202
   -14.5530 -14.3494 -14.0201 -13.9435 -13.8958 -13.8084 -13.7739 -13.6889
   -13.5305 -13.5003 -13.3880 -13.3115 -13.2628 -13.2316 -12.8815 -12.4273
   -12.2929 -12.1528 -11.9257 -11.8167 -11.7109 -11.6200 -11.5077 -11.3591
   -11.2411 -11.0230 -10.9609 -10.8353 -10.7250 -10.6611 -10.6267 -10.4682
   -10.4503 -10.3786 -10.3046 -10.2122 -10.0495  -9.5998  -9.4742  -9.4385
    -9.4038  -9.3528  -9.3364  -9.1840  -9.1474  -9.0967  -9.0964  -9.0229
    -9.0211  -8.9699  -8.8230  -8.7875  -8.6382  -8.5736  -8.5088  -8.4349
    -8.4316  -8.4156  -8.3483  -8.2859  -8.1937  -8.1490  -8.1004  -8.0658
    -7.9761  -7.9442  -7.9077  -7.8193  -7.7543  -7.7218  -7.7105  -7.6555
    -7.6529  -7.5901  -7.5552  -7.5247  -7.3789  -7.3048  -7.2731  -7.2328
    -7.1691  -6.9953  -6.9285  -6.8814  -6.8458  -6.7866  -6.7694  -6.7192
    -6.6214  -6.5381  -6.4915  -6.4309  -6.3332  -6.3212  -6.1496  -6.0105
    -6.0020  -5.8972  -5.8838  -5.8376  -5.6952  -5.5880  -5.3741  -5.2804
    -5.2680  -5.2675  -5.2292  -5.1528  -5.0723  -4.8672  -4.7355  -4.5578
    -4.4097  -4.3857  -4.3645  -4.1428  -4.0408  -3.9681  -3.8745  -3.8520
    -3.5586  -3.3501  -3.1020  -2.8581  -2.4269  -1.3016  -0.7024  -0.4587
    -0.2066  -0.0896   0.0188   0.0989   0.2832   0.3321   0.4226   0.5505
     0.5684   0.6334   0.6728   0.7401   1.1781   1.2912   1.3205   1.6202
     1.6376   1.6633   1.6707   1.6944   1.9363   1.9446   2.1110   2.2007
     2.2574   2.2643   2.2754   2.3047   2.5572   2.6013   2.6225   2.6779
     2.6846   2.6893   2.7474   2.8378   2.8859   2.9789   3.0413   3.0762
     3.1060   3.1152   3.2109   3.2443   3.2564   3.3295   3.3663   3.4253
     3.4431   3.5371   3.6403   3.6830   3.7283   3.7422   3.7949   3.8331
     3.8944   4.0505   4.0643   4.0874   4.1194   4.1225   4.1448   4.1604
     4.1926   4.2005   4.2140   4.2757   4.3594   4.3633   4.3659   4.3790
     4.3885   4.4213   4.4477   4.4733   4.4818   4.5221   4.5498   4.5769
     4.6670   4.6966   4.7336   4.8893   4.9228   4.9671   4.9919   5.1100
     5.1386   5.1620   5.1826   5.1892   5.2157   5.2401   5.3335   5.4292
     5.4418   5.4421   5.4797   5.5162   5.5335   5.5498   5.5621   5.6038
     5.6340   5.6660   5.6957   5.7373   5.7922   5.7944   5.8565   5.8771
     5.8846   5.9144   5.9241   5.9645   6.0009   6.0265   6.0344   6.0414
     6.0733   6.0967   6.1012   6.1384   6.1743   6.1800   6.1823   6.2047
     6.2226   6.2782   6.3739   6.3789   6.4185   6.4194   6.4676   6.5060
     6.5332   6.5925   6.6354   6.6548   6.6670   6.7009   6.7316   6.7378
     6.7488   6.7902   6.8173   6.8366   6.8420   6.8674   6.8761   6.8862
     6.8956   6.9272   6.9482   6.9522   6.9950   7.0053   7.0285   7.0343
     7.0446   7.1223   7.1236   7.1696   7.1869   7.1925   7.2041   7.2181
     7.2545   7.2714   7.2716   7.3096   7.3228   7.3627   7.3742   7.3947
     7.4101   7.4296   7.4526   7.4622   7.4688   7.5511   7.5518   7.6110
     7.6305   7.6530   7.6587   7.6799   7.7254   7.7554   7.7939   7.8640
     7.9144   7.9243   7.9365   7.9407   7.9662   7.9741   7.9824   8.0281
     8.0688   8.0806   8.0915   8.1694   8.1779   8.1863   8.1920   8.2071
     8.2641   8.2884   8.3181   8.3323   8.3432   8.3592   8.3977   8.4048
     8.4157   8.4979   8.5240   8.5438   8.5675   8.5702   8.5763   8.6238
     8.6503   8.6838   8.7080   8.7213   8.7251   8.7654   8.7811   8.8072
     8.8460   8.8639   8.8653   8.8903   8.9068   8.9103   8.9148   8.9325
     8.9525   8.9740   9.0149   9.0440   9.0476   9.1126   9.1327   9.1437
     9.1574   9.1577   9.1898   9.1998   9.2422   9.2439   9.2566   9.2755
     9.2897   9.3324   9.3342   9.3857   9.4241   9.4522   9.4709   9.4830
     9.4940   9.5418   9.5626   9.5906   9.6214   9.6579   9.6634   9.6759
     9.6953   9.7145   9.7221   9.7370   9.7910   9.8298   9.8641   9.8684
     9.8868   9.8875   9.8973   9.9291   9.9438   9.9948   9.9994  10.0068
    10.0396  10.0609  10.0931  10.1624  10.1726  10.2443  10.2458  10.2778
    10.3044  10.3301  10.3317  10.3502  10.3864  10.3915  10.4266  10.4518
    10.4936  10.5288  10.5303  10.5765  10.5941  10.6189  10.6269  10.6333
    10.6439  10.6597  10.6776  10.6795  10.6980  10.7488  10.7571  10.7766
    10.7902  10.7951  10.8050  10.8568  10.8666  10.9129  10.9194  10.9600
    10.9913  10.9978  11.0007  11.0369

     the Fermi energy is    -2.0596 ev

     Writing output data file AGNR_10_Defect_D.save/

     init_run     :     16.22s CPU     16.67s WALL (       1 calls)
     electrons    :  10545.76s CPU  10663.41s WALL (       1 calls)

     Called by init_run:
     wfcinit      :      0.00s CPU      0.00s WALL (       1 calls)
     potinit      :      0.99s CPU      1.08s WALL (       1 calls)
     hinit0       :     13.21s CPU     13.27s WALL (       1 calls)

     Called by electrons:
     c_bands      :  10545.74s CPU  10663.26s WALL (       1 calls)
     v_of_rho     :      0.74s CPU      0.78s WALL (       1 calls)
     newd         :      0.67s CPU      0.94s WALL (       1 calls)

     Called by c_bands:
     init_us_2    :      0.60s CPU      0.72s WALL (      26 calls)
     cegterg      :  10374.44s CPU  10483.61s WALL (     145 calls)

     Called by sum_band:

     Called by *egterg:
     h_psi        :   2837.37s CPU   2872.48s WALL (    2823 calls)
     s_psi        :    337.21s CPU    338.22s WALL (    2823 calls)
     g_psi        :     13.39s CPU     13.55s WALL (    2652 calls)
     cdiaghg      :   4466.75s CPU   4483.83s WALL (    2678 calls)

     Called by h_psi:
     h_psi:pot    :   2830.82s CPU   2856.68s WALL (    2823 calls)
     h_psi:calbec :    369.66s CPU    374.00s WALL (    2823 calls)
     vloc_psi     :   2123.85s CPU   2143.75s WALL (    2823 calls)
     add_vuspsi   :    337.27s CPU    338.44s WALL (    2823 calls)

     General routines
     calbec       :    369.64s CPU    373.56s WALL (    2823 calls)
     fft          :      1.08s CPU      1.15s WALL (      14 calls)
     ffts         :      0.01s CPU      0.01s WALL (       1 calls)
     fftw         :   2015.34s CPU   2034.26s WALL (  681402 calls)
     interpolate  :      0.08s CPU      0.09s WALL (       1 calls)
     davcio       :      0.00s CPU      6.48s WALL (      52 calls)

     Parallel routines
     fft_scatt_xy :    155.89s CPU    156.80s WALL (  681417 calls)
     fft_scatt_yz :   1310.04s CPU   1322.88s WALL (  681417 calls)

     PWSCF        :     2h56m CPU       56h 3m WALL

       3h

   This run was terminated on:  20: 8:14  16Apr2021            

=------------------------------------------------------------------------------=
   JOB DONE.
=------------------------------------------------------------------------------=
