
     Program PWSCF v.6.3 starts on 16Apr2021 at 17:15:31 

     This program is part of the open-source Quantum ESPRESSO suite
     for quantum simulation of materials; please cite
         "P. Giannozzi et al., J. Phys.:Condens. Matter 21 395502 (2009);
         "P. Giannozzi et al., J. Phys.:Condens. Matter 29 465901 (2017);
          URL http://www.quantum-espresso.org", 
     in publications or presentations arising from this work. More details at
     http://www.quantum-espresso.org/quote

     Parallel version (MPI), running on    16 processors
     R & G space division:  proc/nbgrp/npool/nimage =      16
     Waiting for input...
     Reading input from standard input
     Message from routine read_cards :
     DEPRECATED: no units specified in CELL_PARAMETERS card

     Current dimensions of program PWSCF are:
     Max number of different atomic species (ntypx) = 10
     Max number of k-points (npk) =  40000
     Max angular momentum in pseudopotentials (lmaxx) =  3

     Atomic positions and unit cell read from directory:
     /home/zfwang/scratch/GNRDATASET/AGNR/AGNR_10_Defect_E/AGNR_10_Defect_E.save/


     Subspace diagonalization in iterative solution of the eigenvalue problem:
     a serial algorithm will be used


     Parallelization info
     --------------------
     sticks:   dense  smooth     PW     G-vecs:    dense   smooth      PW
     Min        1795     598    154               268889    51736    6769
     Max        1797     599    155               268893    51739    6771
     Sum       28723    9573   2475              4302255   827793  108323



     bravais-lattice index     =            0
     lattice parameter (alat)  =       1.8897  a.u.
     unit-cell volume          =   24226.2045 (a.u.)^3
     number of atoms/cell      =           94
     number of atomic types    =            2
     number of electrons       =       325.00
     number of Kohn-Sham states=          500
     kinetic-energy cutoff     =      40.0000  Ry
     charge density cutoff     =     480.0000  Ry
     Exchange-correlation      = PBE ( 1  4  3  4 0 0)

     celldm(1)=  18.897261  celldm(2)=   2.106780  celldm(3)=   1.704000
     celldm(4)=   0.000000  celldm(5)=   0.000000  celldm(6)=   0.000000

     crystal axes: (cart. coord. in units of alat)
               a(1) = (  10.000000   0.000000   0.000000 )  
               a(2) = (   0.000000  21.067800   0.000000 )  
               a(3) = (   0.000000   0.000000  17.040000 )  

     reciprocal axes: (cart. coord. in units 2 pi/alat)
               b(1) = (  0.100000  0.000000  0.000000 )  
               b(2) = (  0.000000  0.047466  0.000000 )  
               b(3) = (  0.000000  0.000000  0.058685 )  


     PseudoPot. # 1 for C  read from file:
     /home/zfwang/hp_home/MySoftware/qe-6.3/pseudo/C.pbe-n-rrkjus_psl.0.1.UPF
     MD5 check sum: fff530ed632a789b3b184014e67dd7f1
     Pseudo is Ultrasoft + core correction, Zval =  4.0
     Generated using "atomic" code by A. Dal Corso v.5.0.2 svn rev. 9415
     Using radial grid of 1073 points,  4 beta functions with: 
                l(1) =   0
                l(2) =   0
                l(3) =   1
                l(4) =   1
     Q(r) pseudized with 0 coefficients 


     PseudoPot. # 2 for H  read from file:
     /home/zfwang/hp_home/MySoftware/qe-6.3/pseudo/H.pbe-rrkjus_psl.0.1.UPF
     MD5 check sum: e164a6907b691c6980f16942be34de84
     Pseudo is Ultrasoft, Zval =  1.0
     Generated using "atomic" code by A. Dal Corso v.5.0.2 svn rev. 9415
     Using radial grid of  929 points,  2 beta functions with: 
                l(1) =   0
                l(2) =   0
     Q(r) pseudized with 0 coefficients 


     atomic species   valence    mass     pseudopotential
        C              4.00    12.01070     C ( 1.00)
        H              1.00     1.00794     H ( 1.00)

     No symmetry found



   Cartesian axes

     site n.     atom                  positions (alat units)
         1           C   tau(   1) = (   4.9999998   5.0285234   2.8446856  )
         2           C   tau(   2) = (   4.9999998   5.0077300   7.0808553  )
         3           C   tau(   3) = (   4.9999994   4.9749711  11.3508651  )
         4           C   tau(   4) = (   5.0000010   4.9937313  15.6305260  )
         5           C   tau(   5) = (   4.9999996   6.2394539   3.5684818  )
         6           C   tau(   6) = (   4.9999994   6.2071602   7.8200015  )
         7           C   tau(   7) = (   4.9999997   6.1792077  12.0899969  )
         8           C   tau(   8) = (   5.0000004   6.2061694  16.3574309  )
         9           C   tau(   9) = (   5.0000002   5.0185131   1.4805569  )
        10           C   tau(  10) = (   4.9999998   5.0261464   5.7164484  )
        11           C   tau(  11) = (   4.9999992   4.9803030   9.9830822  )
        12           C   tau(  12) = (   5.0000008   4.9829768  14.2640177  )
        13           C   tau(  13) = (   4.9999996   7.4718414   2.8674345  )
        14           C   tau(  14) = (   4.9999995   7.4450430   7.1200696  )
        15           C   tau(  15) = (   4.9999996   7.4090030  11.3848063  )
        16           C   tau(  16) = (   5.0000001   7.4317385  15.6501861  )
        17           C   tau(  17) = (   4.9999995   8.7138165   3.5741968  )
        18           C   tau(  18) = (   5.0000001   8.6744672   7.8322362  )
        19           C   tau(  19) = (   4.9999999   8.6424761  12.0995621  )
        20           C   tau(  20) = (   4.9999999   8.6728596  16.3600888  )
        21           C   tau(  21) = (   5.0000002   6.2223006   0.7467414  )
        22           C   tau(  22) = (   4.9999995   6.2403751   4.9958108  )
        23           C   tau(  23) = (   4.9999994   6.1899940   9.2519550  )
        24           C   tau(  24) = (   5.0000001   6.1852725  13.5234470  )
        25           C   tau(  25) = (   4.9999999   7.4574821   1.4457483  )
        26           C   tau(  26) = (   4.9999994   7.4692351   5.6987487  )
        27           C   tau(  27) = (   4.9999996   7.4135261   9.9600658  )
        28           C   tau(  28) = (   5.0000000   7.4173266  14.2266211  )
        29           C   tau(  29) = (   4.9999999   9.9512889   2.8647043  )
        30           C   tau(  30) = (   5.0000004   9.9144082   7.1219961  )
        31           C   tau(  31) = (   5.0000004   9.8710518  11.3886962  )
        32           C   tau(  32) = (   4.9999999   9.8997084  15.6455561  )
        33           C   tau(  33) = (   4.9999999  11.1943359   3.5634509  )
        34           C   tau(  34) = (   5.0000008  11.1281105   7.8356114  )
        35           C   tau(  35) = (   5.0000008  11.0911044  12.1055625  )
        36           C   tau(  36) = (   5.0000001  11.1361476  16.3409154  )
        37           C   tau(  37) = (   4.9999999   8.6911524   0.7343069  )
        38           C   tau(  38) = (   4.9999993   8.7195972   4.9909290  )
        39           C   tau(  39) = (   5.0000000   8.6525572   9.2489074  )
        40           C   tau(  40) = (   4.9999999   8.6508544  13.5144061  )
        41           C   tau(  41) = (   4.9999999   9.9312780   1.4406604  )
        42           C   tau(  42) = (   4.9999996   9.9541061   5.6974861  )
        43           C   tau(  43) = (   5.0000004   9.8712089   9.9654792  )
        44           C   tau(  44) = (   4.9999999   9.8824863  14.2264030  )
        45           C   tau(  45) = (   4.9999995  12.4229560   2.8373309  )
        46           C   tau(  46) = (   4.9999974  12.3863741   7.1375700  )
        47           C   tau(  47) = (   5.0000016  12.3195608  11.4022935  )
        48           C   tau(  48) = (   5.0000002  12.3606238  15.6165187  )
        49           C   tau(  49) = (   4.9999996  13.6793939   3.5269673  )
        50           C   tau(  50) = (   4.9999892  13.5144317   7.9340798  )
        51           C   tau(  51) = (   5.0000011  13.5617380  12.0831773  )
        52           C   tau(  52) = (   5.0000002  13.6057690  16.3009939  )
        53           C   tau(  53) = (   5.0000000  11.1556882   0.7232923  )
        54           C   tau(  54) = (   4.9999998  11.2172056   4.9953905  )
        55           C   tau(  55) = (   5.0000009  11.1010270   9.2590847  )
        56           C   tau(  56) = (   5.0000003  11.1068498  13.5172049  )
        57           C   tau(  57) = (   4.9999998  12.3966949   1.4181696  )
        58           C   tau(  58) = (   4.9999998  12.4592078   5.6977344  )
        59           C   tau(  59) = (   5.0000015  12.3018864  10.0035197  )
        60           C   tau(  60) = (   5.0000002  12.3479436  14.2089422  )
        61           C   tau(  61) = (   4.9999996  14.8965613   2.7738639  )
        62           C   tau(  62) = (   5.0000006  14.7963299  11.3600010  )
        63           C   tau(  63) = (   5.0000001  14.8309529  15.5808856  )
        64           C   tau(  64) = (   4.9999989  16.1501392   3.3968986  )
        65           C   tau(  65) = (   5.0000013  16.0298340  12.0614008  )
        66           C   tau(  66) = (   4.9999998  16.0487526  16.2873992  )
        67           C   tau(  67) = (   5.0000000  13.6206377   0.6784050  )
        68           C   tau(  68) = (   5.0000028  13.7284187   4.9594132  )
        69           C   tau(  69) = (   4.9999974  13.5299247   9.3131532  )
        70           C   tau(  70) = (   5.0000004  13.5813720  13.4905538  )
        71           C   tau(  71) = (   4.9999999  14.8590772   1.3470677  )
        72           C   tau(  72) = (   5.0000094  15.0433903   5.4998031  )
        73           C   tau(  73) = (   4.9999982  14.7572224   9.9801343  )
        74           C   tau(  74) = (   5.0000004  14.8253291  14.1632940  )
        75           C   tau(  75) = (   4.9999998  16.0592410   0.6057170  )
        76           C   tau(  76) = (   5.0000037  16.2098575   4.7612176  )
        77           C   tau(  77) = (   5.0000009  16.0393470  13.4198069  )
        78           H   tau(  78) = (   4.9999997   4.0755638   3.3655962  )
        79           H   tau(  79) = (   5.0000001   4.0464655   7.5878734  )
        80           H   tau(  80) = (   4.9999993   4.0158000  11.8625774  )
        81           H   tau(  81) = (   5.0000017   4.0400325  16.1516256  )
        82           H   tau(  82) = (   5.0000005   4.0606009   0.9675440  )
        83           H   tau(  83) = (   5.0000002   4.0769554   5.1885571  )
        84           H   tau(  84) = (   4.9999991   4.0257563   9.4631652  )
        85           H   tau(  85) = (   5.0000013   4.0236544  13.7523310  )
        86           H   tau(  86) = (   4.9999988  17.0706319   2.8261650  )
        87           H   tau(  87) = (   5.0000013  16.9592003  11.4904794  )
        88           H   tau(  88) = (   4.9999991  16.9975940  15.7598953  )
        89           H   tau(  89) = (   4.9999997  17.0233565   1.1012791  )
        90           H   tau(  90) = (   5.0000056  17.1661237   5.2853798  )
        91           H   tau(  91) = (   5.0000011  16.9948838  13.9361536  )
        92           H   tau(  92) = (   4.9999705  14.4935122   7.5388054  )
        93           H   tau(  93) = (   5.0000258  15.2888320   6.5350943  )
        94           H   tau(  94) = (   4.9999975  15.6858512   9.4064967  )

     number of k points=    26  Marzari-Vanderbilt smearing, width (Ry)=  0.0100
                       cart. coord. in units 2pi/alat
        k(    1) = (   0.0000000   0.0000000   0.0000000), wk =   0.0400000
        k(    2) = (   0.0000000   0.0000000   0.0011737), wk =   0.0800000
        k(    3) = (   0.0000000   0.0000000   0.0023474), wk =   0.0800000
        k(    4) = (   0.0000000   0.0000000   0.0035211), wk =   0.0800000
        k(    5) = (   0.0000000   0.0000000   0.0046948), wk =   0.0800000
        k(    6) = (   0.0000000   0.0000000   0.0058685), wk =   0.0800000
        k(    7) = (   0.0000000   0.0000000   0.0070423), wk =   0.0800000
        k(    8) = (   0.0000000   0.0000000   0.0082160), wk =   0.0800000
        k(    9) = (   0.0000000   0.0000000   0.0093897), wk =   0.0800000
        k(   10) = (   0.0000000   0.0000000   0.0105634), wk =   0.0800000
        k(   11) = (   0.0000000   0.0000000   0.0117371), wk =   0.0800000
        k(   12) = (   0.0000000   0.0000000   0.0129108), wk =   0.0800000
        k(   13) = (   0.0000000   0.0000000   0.0140845), wk =   0.0800000
        k(   14) = (   0.0000000   0.0000000   0.0152582), wk =   0.0800000
        k(   15) = (   0.0000000   0.0000000   0.0164319), wk =   0.0800000
        k(   16) = (   0.0000000   0.0000000   0.0176056), wk =   0.0800000
        k(   17) = (   0.0000000   0.0000000   0.0187793), wk =   0.0800000
        k(   18) = (   0.0000000   0.0000000   0.0199531), wk =   0.0800000
        k(   19) = (   0.0000000   0.0000000   0.0211268), wk =   0.0800000
        k(   20) = (   0.0000000   0.0000000   0.0223005), wk =   0.0800000
        k(   21) = (   0.0000000   0.0000000   0.0234742), wk =   0.0800000
        k(   22) = (   0.0000000   0.0000000   0.0246479), wk =   0.0800000
        k(   23) = (   0.0000000   0.0000000   0.0258216), wk =   0.0800000
        k(   24) = (   0.0000000   0.0000000   0.0269953), wk =   0.0800000
        k(   25) = (   0.0000000   0.0000000   0.0281690), wk =   0.0800000
        k(   26) = (   0.0000000   0.0000000  -0.0293427), wk =   0.0400000

     Dense  grid:  4302255 G-vectors     FFT dimensions: ( 135, 288, 225)

     Smooth grid:   827793 G-vectors     FFT dimensions: (  80, 162, 135)

     Estimated max dynamical RAM per process >     978.23 MB

     Estimated total dynamical RAM >      15.28 GB

     The potential is recalculated from file :
     /home/zfwang/scratch/GNRDATASET/AGNR/AGNR_10_Defect_E/AGNR_10_Defect_E.save/charge-density.dat


     negative rho (up, down):  1.382E-04 0.000E+00
     Starting wfcs are  325 randomized atomic wfcs +  175 random wfcs

     Band Structure Calculation
     Davidson diagonalization with overlap
     c_bands:  1 eigenvalues not converged
     c_bands:  1 eigenvalues not converged
     c_bands:  1 eigenvalues not converged
     c_bands:  1 eigenvalues not converged
     c_bands:  2 eigenvalues not converged
     c_bands:  2 eigenvalues not converged
     c_bands:  2 eigenvalues not converged
     c_bands:  1 eigenvalues not converged

     ethr =  3.08E-09,  avg # of iterations = 98.2

     total cpu time spent up to now is    10435.7 secs

     End of band structure calculation

          k = 0.0000 0.0000 0.0000 (103407 PWs)   bands (ev):

   -21.1299 -20.7741 -20.7412 -20.6088 -20.3036 -20.1829 -19.8856 -19.6650
   -19.6360 -19.5728 -19.4147 -19.1750 -19.0589 -18.8542 -18.5929 -18.5446
   -18.4014 -18.0414 -17.8485 -17.8147 -17.6643 -17.5269 -17.4978 -17.3719
   -17.3007 -17.1987 -16.8974 -16.6008 -16.5177 -16.3859 -16.2914 -16.1539
   -16.1125 -15.9381 -15.8596 -15.6654 -15.3137 -14.9994 -14.8461 -14.5892
   -14.4419 -14.4000 -14.3467 -14.1645 -14.0998 -14.0399 -13.9871 -13.9379
   -13.2946 -12.9644 -12.9289 -12.8364 -12.7538 -12.7096 -12.5540 -12.3597
   -12.3453 -12.2880 -12.0544 -11.9946 -11.8702 -11.5844 -11.3742 -11.3449
   -11.3085 -11.0924 -10.8960 -10.8180 -10.5970 -10.5578 -10.4591 -10.3706
   -10.2407 -10.0390  -9.9553  -9.8298  -9.7605  -9.6191  -9.5721  -9.5256
    -9.3967  -9.3097  -9.2530  -9.1975  -9.1605  -9.1107  -9.0767  -8.8412
    -8.7727  -8.7472  -8.6037  -8.5872  -8.5225  -8.4648  -8.4171  -8.3933
    -8.3448  -8.3043  -8.2700  -8.2355  -8.2151  -8.1850  -8.1605  -8.1119
    -8.0602  -8.0193  -7.9572  -7.8523  -7.8207  -7.7691  -7.6699  -7.5943
    -7.4866  -7.4743  -7.4528  -7.4050  -7.3548  -7.2135  -7.0940  -7.0684
    -6.9888  -6.9377  -6.9254  -6.9164  -6.8126  -6.7422  -6.6114  -6.5608
    -6.3525  -6.3341  -6.2582  -6.2510  -6.1376  -6.0765  -6.0534  -5.9006
    -5.7765  -5.7685  -5.7025  -5.5198  -5.4581  -5.4347  -5.3214  -5.1638
    -5.1430  -5.1142  -5.0666  -4.9593  -4.9242  -4.8037  -4.5210  -4.3498
    -4.2912  -4.0901  -3.9291  -3.9040  -3.8718  -3.7914  -3.6440  -3.3960
    -2.9042  -2.4260  -1.8057  -1.1044  -0.7495  -0.2943  -0.1192  -0.0849
     0.0035   0.0841   0.1580   0.3019   0.3176   0.6358   0.8376   1.1517
     1.1759   1.3234   1.3695   1.4495   1.4865   1.5308   1.5988   1.6263
     1.6618   1.8138   1.8941   1.9398   1.9859   2.0185   2.0321   2.0350
     2.1030   2.2699   2.5332   2.5761   2.6304   2.6486   2.7529   2.7720
     2.9250   2.9858   3.0156   3.0404   3.0531   3.0924   3.1151   3.1831
     3.2012   3.2195   3.2741   3.3279   3.4054   3.4455   3.4577   3.4724
     3.4981   3.5535   3.5639   3.6958   3.7056   3.7328   3.7837   3.8210
     3.9398   3.9508   4.0634   4.0664   4.0873   4.1848   4.1993   4.2870
     4.2891   4.4112   4.4558   4.5045   4.5149   4.5306   4.5794   4.5972
     4.6081   4.6199   4.7616   4.7703   4.7878   4.7993   4.8128   4.8631
     4.8779   4.9134   4.9273   4.9430   4.9744   5.0486   5.0610   5.1270
     5.1517   5.1666   5.1899   5.2460   5.2621   5.2950   5.3331   5.3648
     5.3662   5.3722   5.4128   5.4564   5.4738   5.4961   5.5832   5.6632
     5.6894   5.7361   5.7905   5.8458   5.8925   5.9533   5.9957   5.9999
     6.0020   6.0248   6.0251   6.0523   6.0529   6.0685   6.0983   6.1038
     6.1507   6.2265   6.2421   6.2503   6.2548   6.2764   6.2888   6.2998
     6.3448   6.3963   6.4220   6.4471   6.4613   6.4668   6.5018   6.5211
     6.5451   6.5764   6.6044   6.6309   6.6325   6.6691   6.7035   6.7482
     6.7500   6.8006   6.8169   6.8366   6.8785   6.9059   6.9438   6.9707
     6.9868   6.9932   7.0064   7.0342   7.0704   7.0798   7.0965   7.1443
     7.1459   7.1828   7.2265   7.2341   7.2396   7.2873   7.3022   7.3099
     7.3210   7.3399   7.3551   7.3734   7.3876   7.4207   7.4599   7.4691
     7.5090   7.6033   7.6173   7.6209   7.6461   7.6634   7.6907   7.6996
     7.7208   7.7211   7.7481   7.7587   7.7727   7.7820   7.8029   7.8033
     7.8130   7.8820   7.8869   7.9086   7.9728   8.0045   8.0202   8.0599
     8.0804   8.0973   8.0979   8.1339   8.2075   8.2233   8.3184   8.3338
     8.3475   8.3888   8.4242   8.4373   8.4452   8.4716   8.4927   8.5361
     8.5448   8.5694   8.5828   8.6085   8.6258   8.6303   8.6507   8.6608
     8.6625   8.7072   8.7473   8.7625   8.7669   8.7820   8.8075   8.8268
     8.8443   8.8730   8.9223   8.9277   8.9578   9.0054   9.0255   9.0882
     9.0996   9.1492   9.1586   9.1817   9.2009   9.2143   9.2157   9.2279
     9.2605   9.2695   9.2857   9.3043   9.3192   9.3537   9.3596   9.3767
     9.3996   9.4358   9.4514   9.4644   9.4668   9.4755   9.5145   9.5385
     9.5642   9.5810   9.5852   9.5885   9.6201   9.6633   9.6929   9.7069
     9.7697   9.7895   9.7936   9.8515   9.8884   9.9152   9.9264   9.9312
     9.9358   9.9628   9.9723   9.9945  10.0077  10.0300  10.0344  10.0559
    10.0657  10.0871  10.0957  10.0985  10.1477  10.1557  10.1609  10.1898
    10.3058  10.3154  10.3356  10.3779  10.4798  10.5459  10.5677  10.5720
    10.5956  10.6234  10.6339  10.6878  10.7347  10.7410  10.7539  10.7830
    10.7887  10.7936  10.8221  10.8233  10.8276  10.8293  10.8558  10.8581
    10.8784  10.8896  10.9161  10.9446  10.9598  10.9753  11.0010  11.0116
    11.0309  11.0818  11.0906  11.1069

          k = 0.0000 0.0000 0.0012 (103433 PWs)   bands (ev):

   -21.1298 -20.7784 -20.7369 -20.6085 -20.3048 -20.1814 -19.8856 -19.6805
   -19.6206 -19.5734 -19.4140 -19.1777 -19.0557 -18.8540 -18.5957 -18.5430
   -18.4004 -18.0420 -17.8715 -17.7905 -17.6644 -17.5399 -17.4869 -17.3729
   -17.3029 -17.1933 -16.8977 -16.6045 -16.5140 -16.3856 -16.2918 -16.1531
   -16.1125 -15.9404 -15.8604 -15.6651 -15.3154 -15.0001 -14.8437 -14.5905
   -14.4394 -14.4019 -14.3453 -14.1652 -14.0975 -14.0410 -13.9862 -13.9357
   -13.2954 -12.9703 -12.9263 -12.8354 -12.7544 -12.7094 -12.5530 -12.4094
   -12.3144 -12.2740 -12.0506 -11.9924 -11.8695 -11.5845 -11.3812 -11.3425
   -11.3057 -11.0913 -10.8947 -10.8185 -10.6144 -10.5394 -10.4634 -10.3685
   -10.2406 -10.0416  -9.9530  -9.8331  -9.7587  -9.6202  -9.5720  -9.5224
    -9.3968  -9.3278  -9.2383  -9.1973  -9.1718  -9.1085  -9.0629  -8.8408
    -8.7798  -8.7400  -8.6033  -8.5877  -8.5265  -8.4753  -8.4166  -8.3895
    -8.3384  -8.3169  -8.2575  -8.2372  -8.2171  -8.1841  -8.1598  -8.1099
    -8.0648  -8.0165  -7.9535  -7.8526  -7.8209  -7.7691  -7.6680  -7.5950
    -7.4960  -7.4858  -7.4330  -7.4040  -7.3555  -7.2126  -7.0997  -7.0642
    -6.9869  -6.9434  -6.9299  -6.9120  -6.8077  -6.7423  -6.6110  -6.5611
    -6.3547  -6.3365  -6.2572  -6.2499  -6.1457  -6.0754  -6.0451  -5.9006
    -5.7847  -5.7606  -5.7025  -5.5187  -5.4873  -5.4051  -5.3215  -5.1763
    -5.1328  -5.1146  -5.0657  -4.9596  -4.9293  -4.7973  -4.5206  -4.3552
    -4.2871  -4.0899  -3.9288  -3.9043  -3.8716  -3.7935  -3.6424  -3.3958
    -2.9047  -2.4272  -1.8060  -1.1032  -0.7488  -0.2938  -0.1231  -0.0809
     0.0036   0.0847   0.1582   0.3000   0.3198   0.6324   0.8397   1.1519
     1.1758   1.3139   1.3775   1.4496   1.4781   1.5310   1.6067   1.6183
     1.6701   1.8104   1.8909   1.9237   1.9893   2.0152   2.0397   2.0514
     2.1043   2.2718   2.5302   2.5759   2.6338   2.6479   2.7520   2.7719
     2.9240   2.9738   3.0296   3.0304   3.0503   3.0950   3.1217   3.1822
     3.2021   3.2154   3.2797   3.3277   3.4066   3.4415   3.4447   3.4837
     3.5022   3.5252   3.5974   3.6821   3.7166   3.7366   3.7766   3.8282
     3.9388   3.9508   4.0479   4.0603   4.1033   4.1888   4.1978   4.2873
     4.2914   4.4108   4.4525   4.5029   4.5109   4.5389   4.5661   4.5960
     4.5969   4.6463   4.7566   4.7706   4.7824   4.8067   4.8164   4.8385
     4.8973   4.9091   4.9214   4.9347   4.9867   5.0587   5.0598   5.1269
     5.1540   5.1585   5.1833   5.2422   5.2589   5.2811   5.3405   5.3651
     5.3682   5.3806   5.4272   5.4584   5.4743   5.4986   5.5858   5.6638
     5.6889   5.7374   5.7903   5.8424   5.8923   5.9485   5.9655   5.9847
     6.0050   6.0101   6.0322   6.0588   6.0736   6.0877   6.0963   6.1148
     6.1453   6.2177   6.2383   6.2488   6.2503   6.2759   6.2895   6.3194
     6.3461   6.3876   6.4163   6.4524   6.4593   6.4690   6.4936   6.5229
     6.5500   6.5796   6.6070   6.6359   6.6375   6.6711   6.7044   6.7444
     6.7487   6.8001   6.8162   6.8362   6.8827   6.9058   6.9319   6.9697
     6.9867   6.9933   7.0156   7.0355   7.0667   7.0698   7.1065   7.1362
     7.1501   7.1753   7.2278   7.2283   7.2409   7.2845   7.2935   7.3155
     7.3301   7.3411   7.3599   7.3740   7.3850   7.4216   7.4649   7.4688
     7.5102   7.5757   7.6172   7.6385   7.6456   7.6457   7.6824   7.7122
     7.7186   7.7327   7.7433   7.7590   7.7610   7.7905   7.8091   7.8115
     7.8194   7.8877   7.8903   7.9098   7.9730   7.9904   8.0209   8.0694
     8.0793   8.0992   8.1030   8.1326   8.2061   8.2271   8.3199   8.3226
     8.3450   8.3841   8.4064   8.4340   8.4621   8.4700   8.5015   8.5323
     8.5475   8.5728   8.5746   8.5950   8.6303   8.6505   8.6514   8.6612
     8.6676   8.7063   8.7370   8.7467   8.7628   8.7818   8.7989   8.8359
     8.8650   8.8793   8.9218   8.9239   8.9596   9.0063   9.0256   9.0924
     9.0996   9.1476   9.1523   9.1872   9.1908   9.2056   9.2134   9.2305
     9.2628   9.2752   9.2831   9.3037   9.3135   9.3386   9.3609   9.3830
     9.4103   9.4233   9.4336   9.4652   9.4797   9.4824   9.5160   9.5385
     9.5737   9.5839   9.5919   9.5941   9.6203   9.6548   9.6873   9.7187
     9.7735   9.7853   9.7891   9.8471   9.8884   9.8944   9.9233   9.9345
     9.9378   9.9661   9.9764  10.0008  10.0116  10.0261  10.0432  10.0543
    10.0563  10.0897  10.0913  10.1010  10.1494  10.1642  10.1652  10.2012
    10.3014  10.3094  10.3330  10.3779  10.4832  10.5408  10.5631  10.5651
    10.5925  10.6290  10.6366  10.6869  10.7241  10.7410  10.7629  10.7696
    10.7832  10.8004  10.8196  10.8260  10.8291  10.8310  10.8563  10.8570
    10.8853  10.8900  10.9199  10.9472  10.9579  10.9769  10.9952  11.0136
    11.0376  11.0509  11.0965  11.1164

          k = 0.0000 0.0000 0.0023 (103431 PWs)   bands (ev):

   -21.1294 -20.7877 -20.7275 -20.6074 -20.3082 -20.1771 -19.8857 -19.7050
   -19.5976 -19.5744 -19.4120 -19.1849 -19.0469 -18.8533 -18.6029 -18.5392
   -18.3975 -18.0440 -17.9036 -17.7543 -17.6645 -17.5624 -17.4712 -17.3755
   -17.3075 -17.1793 -16.8988 -16.6137 -16.5048 -16.3847 -16.2929 -16.1505
   -16.1126 -15.9472 -15.8631 -15.6643 -15.3202 -15.0025 -14.8366 -14.5942
   -14.4333 -14.4056 -14.3418 -14.1669 -14.0911 -14.0436 -13.9840 -13.9293
   -13.2980 -12.9838 -12.9228 -12.8324 -12.7567 -12.7079 -12.5510 -12.4662
   -12.3213 -12.2228 -12.0412 -11.9852 -11.8674 -11.5847 -11.3957 -11.3415
   -11.2970 -11.0884 -10.8911 -10.8202 -10.6412 -10.5096 -10.4747 -10.3631
   -10.2401 -10.0484  -9.9468  -9.8419  -9.7542  -9.6229  -9.5717  -9.5140
    -9.3981  -9.3600  -9.2235  -9.1969  -9.1824  -9.1070  -9.0313  -8.8396
    -8.7930  -8.7269  -8.6018  -8.5895  -8.5390  -8.4961  -8.4189  -8.3801
    -8.3470  -8.3121  -8.2421  -8.2389  -8.2226  -8.1823  -8.1570  -8.1041
    -8.0750  -8.0106  -7.9429  -7.8536  -7.8210  -7.7691  -7.6629  -7.5970
    -7.5259  -7.4834  -7.4180  -7.3918  -7.3577  -7.2100  -7.1115  -7.0568
    -6.9817  -6.9543  -6.9415  -6.9047  -6.7951  -6.7424  -6.6097  -6.5622
    -6.3606  -6.3431  -6.2547  -6.2483  -6.1623  -6.0722  -6.0267  -5.9005
    -5.7957  -5.7505  -5.7026  -5.5246  -5.5154  -5.3671  -5.3212  -5.1963
    -5.1205  -5.1157  -5.0620  -4.9606  -4.9419  -4.7811  -4.5194  -4.3685
    -4.2779  -4.0895  -3.9280  -3.9052  -3.8709  -3.7995  -3.6376  -3.3951
    -2.9065  -2.4310  -1.8066  -1.0995  -0.7466  -0.2921  -0.1315  -0.0717
     0.0038   0.0866   0.1589   0.2960   0.3248   0.6229   0.8452   1.1525
     1.1753   1.2943   1.3906   1.4501   1.4606   1.5315   1.6032   1.6238
     1.6861   1.7977   1.8827   1.9024   1.9939   2.0014   2.0673   2.0788
     2.1089   2.2781   2.5222   2.5755   2.6426   2.6456   2.7494   2.7717
     2.9197   2.9580   3.0111   3.0384   3.0531   3.1023   3.1344   3.1789
     3.2055   3.2076   3.2929   3.3274   3.4064   3.4318   3.4325   3.4720
     3.5119   3.5238   3.6369   3.6643   3.7247   3.7497   3.7625   3.8426
     3.9350   3.9505   4.0233   4.0514   4.1203   4.1941   4.2017   4.2879
     4.2971   4.4096   4.4434   4.4962   4.5066   4.5411   4.5542   4.5930
     4.5955   4.6800   4.7443   4.7699   4.7785   4.8083   4.8107   4.8303
     4.8866   4.8941   4.9281   4.9378   5.0063   5.0536   5.0849   5.1201
     5.1436   5.1587   5.1672   5.2322   5.2452   5.2643   5.3376   5.3777
     5.3811   5.3987   5.4476   5.4746   5.4763   5.5060   5.5928   5.6655
     5.6876   5.7407   5.7896   5.8328   5.8889   5.9175   5.9394   5.9591
     5.9881   6.0079   6.0391   6.0731   6.0802   6.1141   6.1176   6.1372
     6.1374   6.1918   6.2366   6.2387   6.2545   6.2711   6.2971   6.3470
     6.3486   6.3747   6.4090   6.4449   6.4545   6.4723   6.4944   6.5297
     6.5561   6.5826   6.6122   6.6453   6.6571   6.6775   6.7059   6.7334
     6.7490   6.7998   6.8150   6.8332   6.8887   6.8965   6.9258   6.9616
     6.9868   6.9934   7.0221   7.0476   7.0500   7.0672   7.1156   7.1181
     7.1512   7.1673   7.2125   7.2292   7.2415   7.2717   7.2935   7.3220
     7.3395   7.3458   7.3757   7.3758   7.3800   7.4256   7.4671   7.4765
     7.5141   7.5397   7.5953   7.6162   7.6446   7.6622   7.6949   7.6965
     7.7212   7.7287   7.7401   7.7580   7.7828   7.7997   7.8030   7.8280
     7.8511   7.8905   7.9085   7.9141   7.9664   7.9741   8.0218   8.0761
     8.0804   8.1023   8.1218   8.1292   8.2042   8.2354   8.2937   8.3229
     8.3354   8.3776   8.3879   8.4194   8.4574   8.5019   8.5023   8.5215
     8.5573   8.5621   8.5782   8.5863   8.6445   8.6481   8.6598   8.6667
     8.6930   8.7001   8.7120   8.7266   8.7518   8.7776   8.8108   8.8378
     8.8629   8.9136   8.9203   8.9337   8.9643   9.0050   9.0261   9.0995
     9.1003   9.1316   9.1487   9.1789   9.1898   9.1941   9.2071   9.2303
     9.2462   9.2701   9.2981   9.3012   9.3050   9.3327   9.3603   9.3645
     9.4130   9.4138   9.4369   9.4625   9.4963   9.5039   9.5207   9.5405
     9.5628   9.5889   9.5990   9.6213   9.6216   9.6558   9.6743   9.7411
     9.7707   9.7812   9.7889   9.8336   9.8649   9.8886   9.9169   9.9174
     9.9408   9.9768   9.9936  10.0016  10.0168  10.0253  10.0336  10.0437
    10.0688  10.0907  10.0965  10.1082  10.1557  10.1725  10.1857  10.2272
    10.2893  10.2945  10.3265  10.3774  10.4844  10.5298  10.5517  10.5582
    10.5794  10.6399  10.6422  10.6822  10.7092  10.7391  10.7514  10.7697
    10.7784  10.7961  10.8136  10.8243  10.8325  10.8415  10.8569  10.8595
    10.8931  10.8974  10.9313  10.9546  10.9562  10.9807  10.9863  11.0159
    11.0166  11.0452  11.0969  11.1086

          k = 0.0000 0.0000 0.0035 (103427 PWs)   bands (ev):

   -21.1288 -20.7986 -20.7165 -20.6056 -20.3135 -20.1704 -19.8859 -19.7302
   -19.5856 -19.5649 -19.4089 -19.1947 -19.0346 -18.8522 -18.6127 -18.5349
   -18.3927 -18.0492 -17.9325 -17.7173 -17.6646 -17.5869 -17.4597 -17.3778
   -17.3112 -17.1600 -16.9005 -16.6253 -16.4939 -16.3824 -16.2947 -16.1467
   -16.1128 -15.9577 -15.8683 -15.6626 -15.3280 -15.0067 -14.8247 -14.6002
   -14.4301 -14.4036 -14.3376 -14.1692 -14.0818 -14.0461 -13.9814 -13.9190
   -13.3022 -13.0005 -12.9228 -12.8273 -12.7615 -12.7043 -12.5553 -12.5158
   -12.3402 -12.1647 -12.0300 -11.9719 -11.8642 -11.5851 -11.4126 -11.3449
   -11.2843 -11.0840 -10.8851 -10.8236 -10.6663 -10.4932 -10.4773 -10.3563
   -10.2391 -10.0579  -9.9391  -9.8541  -9.7484  -9.6264  -9.5712  -9.5030
    -9.4097  -9.3837  -9.2360  -9.1961  -9.1648  -9.1063  -8.9940  -8.8374
    -8.8073  -8.7128  -8.5994  -8.5928  -8.5601  -8.5163  -8.4255  -8.3765
    -8.3623  -8.2879  -8.2492  -8.2316  -8.2225  -8.1814  -8.1507  -8.0952
    -8.0856  -8.0039  -7.9275  -7.8559  -7.8195  -7.7690  -7.6556  -7.5996
    -7.5563  -7.4796  -7.4192  -7.3646  -7.3611  -7.2059  -7.1252  -7.0502
    -6.9788  -6.9616  -6.9566  -6.8981  -6.7783  -6.7425  -6.6074  -6.5645
    -6.3684  -6.3530  -6.2519  -6.2515  -6.1761  -6.0670  -6.0066  -5.9003
    -5.8061  -5.7409  -5.7039  -5.5599  -5.5100  -5.3371  -5.3137  -5.2173
    -5.1175  -5.1142  -5.0535  -4.9622  -4.9571  -4.7596  -4.5174  -4.3852
    -4.2676  -4.0889  -3.9272  -3.9065  -3.8697  -3.8081  -3.6306  -3.3939
    -2.9093  -2.4373  -1.8076  -1.0934  -0.7430  -0.2896  -0.1412  -0.0606
     0.0042   0.0891   0.1603   0.2915   0.3307   0.6087   0.8527   1.1534
     1.1747   1.2714   1.3932   1.4508   1.4509   1.5323   1.5866   1.6401
     1.7041   1.7746   1.8716   1.8954   1.9773   2.0126   2.0794   2.1186
     2.1186   2.2905   2.5108   2.5757   2.6416   2.6543   2.7453   2.7713
     2.9084   2.9498   2.9888   3.0222   3.0779   3.1070   3.1484   3.1711
     3.2022   3.2121   3.3096   3.3273   3.3975   3.4199   3.4254   3.4488
     3.5239   3.5458   3.6466   3.6771   3.7295   3.7468   3.7681   3.8581
     3.9266   3.9498   4.0034   4.0377   4.1296   4.1898   4.2234   4.2892
     4.3036   4.4067   4.4312   4.4798   4.5036   4.5240   4.5699   4.5913
     4.5968   4.7088   4.7331   4.7602   4.7773   4.7834   4.8129   4.8463
     4.8635   4.8758   4.9263   4.9638   5.0197   5.0522   5.0954   5.1072
     5.1284   5.1597   5.1665   5.2176   5.2263   5.2549   5.3279   5.3917
     5.4048   5.4218   5.4536   5.4820   5.5138   5.5173   5.6027   5.6686
     5.6861   5.7451   5.7884   5.8172   5.8593   5.8930   5.9286   5.9306
     5.9678   6.0112   6.0458   6.0762   6.0802   6.1139   6.1367   6.1605
     6.1619   6.1687   6.2237   6.2349   6.2637   6.2721   6.2934   6.3412
     6.3692   6.3769   6.4086   6.4358   6.4499   6.4699   6.5058   6.5401
     6.5631   6.5822   6.6191   6.6589   6.6712   6.6909   6.7064   6.7309
     6.7509   6.7999   6.8135   6.8241   6.8717   6.8975   6.9363   6.9500
     6.9853   6.9929   7.0160   7.0400   7.0576   7.0680   7.0928   7.1224
     7.1412   7.1761   7.1899   7.2252   7.2398   7.2647   7.2922   7.3275
     7.3346   7.3617   7.3756   7.3806   7.3962   7.4346   7.4620   7.4881
     7.5035   7.5230   7.5500   7.6124   7.6429   7.6650   7.6703   7.6955
     7.7324   7.7327   7.7509   7.7596   7.7990   7.8070   7.8132   7.8391
     7.8916   7.8978   7.9192   7.9225   7.9555   7.9765   8.0232   8.0720
     8.0876   8.1034   8.1269   8.1479   8.2039   8.2452   8.2559   8.3111
     8.3328   8.3716   8.3737   8.4021   8.4553   8.4953   8.4974   8.5261
     8.5510   8.5672   8.5888   8.5902   8.6322   8.6590   8.6600   8.6806
     8.6837   8.6958   8.7191   8.7275   8.7494   8.7725   8.8099   8.8440
     8.8574   8.9177   8.9215   8.9624   8.9876   9.0061   9.0268   9.0948
     9.0978   9.1062   9.1492   9.1718   9.1750   9.1867   9.2001   9.2204
     9.2359   9.2521   9.2960   9.2975   9.3163   9.3219   9.3545   9.3711
     9.4036   9.4131   9.4403   9.4699   9.5150   9.5215   9.5309   9.5504
     9.5520   9.5880   9.5972   9.6172   9.6228   9.6619   9.6924   9.7634
     9.7702   9.7823   9.7950   9.8102   9.8426   9.8891   9.9002   9.9090
     9.9421   9.9767   9.9877  10.0019  10.0099  10.0174  10.0251  10.0573
    10.0926  10.0985  10.1057  10.1208  10.1686  10.1829  10.2056  10.2587
    10.2754  10.2767  10.3197  10.3762  10.4650  10.5265  10.5368  10.5549
    10.5660  10.6463  10.6476  10.6667  10.7006  10.7258  10.7437  10.7604
    10.7775  10.7899  10.8043  10.8255  10.8375  10.8442  10.8589  10.8665
    10.9001  10.9087  10.9391  10.9597  10.9631  10.9777  10.9855  11.0029
    11.0163  11.0447  11.0761  11.1067

          k = 0.0000 0.0000 0.0047 (103427 PWs)   bands (ev):

   -21.1279 -20.8101 -20.7052 -20.6029 -20.3200 -20.1619 -19.8862 -19.7554
   -19.5888 -19.5416 -19.4050 -19.2052 -19.0203 -18.8505 -18.6239 -18.5310
   -18.3863 -18.0607 -17.9542 -17.6831 -17.6640 -17.6104 -17.4557 -17.3772
   -17.3121 -17.1383 -16.9026 -16.6370 -16.4842 -16.3779 -16.2967 -16.1420
   -16.1130 -15.9710 -15.8764 -15.6599 -15.3384 -15.0126 -14.8086 -14.6076
   -14.4358 -14.3896 -14.3336 -14.1715 -14.0718 -14.0460 -13.9787 -13.9056
   -13.3078 -13.0189 -12.9270 -12.8218 -12.7678 -12.6986 -12.5942 -12.5306
   -12.3615 -12.1060 -12.0193 -11.9526 -11.8600 -11.5855 -11.4302 -11.3513
   -11.2704 -11.0786 -10.8770 -10.8291 -10.6873 -10.5123 -10.4502 -10.3485
   -10.2372 -10.0686  -9.9322  -9.8679  -9.7420  -9.6313  -9.5711  -9.4936
    -9.4363  -9.3875  -9.2547  -9.1950  -9.1393  -9.1049  -8.9561  -8.8340
    -8.8218  -8.6989  -8.5996  -8.5957  -8.5856  -8.5336  -8.4380  -8.3940
    -8.3517  -8.2637  -8.2580  -8.2409  -8.2131  -8.1814  -8.1411  -8.0933
    -8.0841  -7.9965  -7.9092  -7.8597  -7.8154  -7.7689  -7.6481  -7.6014
    -7.5866  -7.4748  -7.4244  -7.3657  -7.3352  -7.2008  -7.1397  -7.0449
    -6.9893  -6.9724  -6.9539  -6.8931  -6.7599  -6.7425  -6.6039  -6.5684
    -6.3765  -6.3649  -6.2660  -6.2485  -6.1797  -6.0600  -5.9889  -5.8996
    -5.8141  -5.7321  -5.7088  -5.5904  -5.5027  -5.3329  -5.2844  -5.2360
    -5.1201  -5.1149  -5.0403  -4.9717  -4.9644  -4.7360  -4.5149  -4.4031
    -4.2579  -4.0879  -3.9271  -3.9083  -3.8681  -3.8181  -3.6223  -3.3920
    -2.9133  -2.4460  -1.8090  -1.0850  -0.7380  -0.2866  -0.1505  -0.0484
     0.0049   0.0918   0.1628   0.2869   0.3370   0.5915   0.8603   1.1548
     1.1738   1.2466   1.3770   1.4520   1.4591   1.5332   1.5701   1.6446
     1.7225   1.7528   1.8594   1.9015   1.9592   2.0277   2.0873   2.1336
     2.1526   2.3116   2.4974   2.5766   2.6355   2.6667   2.7403   2.7712
     2.8918   2.9487   2.9653   3.0051   3.1026   3.1049   3.1593   3.1636
     3.2008   3.2211   3.3272   3.3278   3.3859   3.3963   3.4074   3.4557
     3.5364   3.5713   3.6296   3.7171   3.7317   3.7344   3.7883   3.8703
     3.9143   3.9478   3.9919   4.0214   4.1333   4.1859   4.2502   4.2915
     4.3089   4.3998   4.4177   4.4576   4.4995   4.5160   4.5772   4.5991
     4.6005   4.7061   4.7355   4.7452   4.7634   4.7823   4.8150   4.8475
     4.8494   4.8745   4.9256   4.9851   5.0180   5.0617   5.0658   5.0810
     5.1487   5.1506   5.1862   5.2008   5.2111   5.2533   5.3159   5.4053
     5.4331   5.4411   5.4589   5.4943   5.5323   5.5583   5.6136   5.6736
     5.6853   5.7489   5.7861   5.7898   5.8200   5.8839   5.8979   5.9259
     5.9485   6.0146   6.0509   6.0634   6.0706   6.1243   6.1266   6.1617
     6.1879   6.1884   6.2140   6.2258   6.2592   6.2716   6.3129   6.3269
     6.3569   6.4069   6.4164   6.4394   6.4494   6.4690   6.5153   6.5490
     6.5708   6.5814   6.6300   6.6679   6.6751   6.6932   6.7157   6.7458
     6.7590   6.7950   6.8088   6.8148   6.8589   6.9000   6.9295   6.9543
     6.9823   6.9898   7.0083   7.0345   7.0394   7.0739   7.0799   7.1195
     7.1470   7.1637   7.1860   7.2164   7.2345   7.2679   7.2872   7.3268
     7.3273   7.3736   7.3775   7.3903   7.4110   7.4490   7.4522   7.4697
     7.4956   7.5107   7.5371   7.6034   7.6309   7.6510   7.6597   7.6884
     7.7366   7.7516   7.7663   7.7740   7.8093   7.8112   7.8338   7.8440
     7.9067   7.9091   7.9349   7.9390   7.9743   7.9803   8.0254   8.0689
     8.0952   8.0964   8.1293   8.1724   8.2056   8.2159   8.2544   8.2886
     8.3369   8.3561   8.3614   8.3998   8.4457   8.4765   8.4920   8.5127
     8.5447   8.5648   8.5979   8.6105   8.6131   8.6534   8.6726   8.6772
     8.6918   8.6990   8.7171   8.7570   8.7624   8.7632   8.8056   8.8365
     8.8736   8.9141   8.9173   8.9656   9.0154   9.0274   9.0387   9.0662
     9.0868   9.1023   9.1201   9.1459   9.1658   9.1802   9.2029   9.2123
     9.2246   9.2414   9.2926   9.2936   9.3201   9.3215   9.3538   9.3809
     9.4132   9.4140   9.4304   9.4883   9.5176   9.5270   9.5333   9.5491
     9.5712   9.5854   9.5861   9.6188   9.6252   9.6609   9.7115   9.7593
     9.7780   9.7874   9.8039   9.8146   9.8334   9.8886   9.8895   9.9004
     9.9394   9.9692   9.9780   9.9790   9.9914  10.0102  10.0341  10.0848
    10.1062  10.1081  10.1227  10.1357  10.1821  10.2009  10.2075  10.2607
    10.2740  10.2944  10.3184  10.3743  10.4333  10.5134  10.5204  10.5475
    10.5732  10.6335  10.6505  10.6544  10.6979  10.6991  10.7380  10.7586
    10.7595  10.7920  10.7946  10.8265  10.8442  10.8467  10.8622  10.8688
    10.9071  10.9098  10.9391  10.9553  10.9652  10.9884  10.9923  11.0105
    11.0152  11.0438  11.0530  11.0992

          k = 0.0000 0.0000 0.0059 (103441 PWs)   bands (ev):

   -21.1268 -20.8216 -20.6940 -20.5993 -20.3274 -20.1519 -19.8870 -19.7799
   -19.5950 -19.5173 -19.4005 -19.2150 -19.0053 -18.8483 -18.6357 -18.5281
   -18.3783 -18.0806 -17.9662 -17.6718 -17.6559 -17.6201 -17.4591 -17.3733
   -17.3088 -17.1159 -16.9045 -16.6477 -16.4776 -16.3705 -16.2989 -16.1373
   -16.1131 -15.9865 -15.8872 -15.6564 -15.3509 -15.0204 -14.7889 -14.6157
   -14.4452 -14.3692 -14.3297 -14.1734 -14.0650 -14.0397 -13.9757 -13.8897
   -13.3148 -13.0382 -12.9349 -12.8197 -12.7726 -12.6937 -12.6463 -12.5321
   -12.3806 -12.0498 -12.0073 -11.9291 -11.8551 -11.5858 -11.4477 -11.3591
   -11.2568 -11.0730 -10.8676 -10.8368 -10.7025 -10.5345 -10.4278 -10.3388
   -10.2342 -10.0796  -9.9293  -9.8803  -9.7346  -9.6399  -9.5729  -9.4946
    -9.4507  -9.3866  -9.2699  -9.1935  -9.1190  -9.0979  -8.9213  -8.8363
    -8.8284  -8.6856  -8.6205  -8.6009  -8.5906  -8.5492  -8.4577  -8.4069
    -8.3378  -8.2678  -8.2555  -8.2415  -8.2101  -8.1795  -8.1307  -8.0950
    -8.0713  -7.9881  -7.8893  -7.8640  -7.8084  -7.7690  -7.6432  -7.6166
    -7.6001  -7.4692  -7.4313  -7.3710  -7.3062  -7.1948  -7.1544  -7.0415
    -7.0038  -6.9874  -6.9406  -6.8897  -6.7426  -6.7415  -6.5991  -6.5744
    -6.3837  -6.3779  -6.2890  -6.2459  -6.1746  -6.0514  -5.9765  -5.8990
    -5.8175  -5.7240  -5.7211  -5.6121  -5.4937  -5.3377  -5.2700  -5.2333
    -5.1234  -5.1202  -5.0252  -4.9835  -4.9672  -4.7121  -4.5124  -4.4203
    -4.2495  -4.0867  -3.9285  -3.9109  -3.8667  -3.8274  -3.6134  -3.3893
    -2.9182  -2.4569  -1.8108  -1.0744  -0.7317  -0.2840  -0.1583  -0.0358
     0.0062   0.0940   0.1667   0.2825   0.3432   0.5727   0.8665   1.1566
     1.1725   1.2201   1.3540   1.4534   1.4747   1.5337   1.5546   1.6281
     1.7405   1.7473   1.8474   1.9157   1.9412   2.0439   2.0929   2.1522
     2.1783   2.3431   2.4831   2.5780   2.6272   2.6781   2.7350   2.7720
     2.8743   2.9419   2.9509   2.9880   3.0966   3.1247   3.1471   3.1795
     3.2019   3.2300   3.3253   3.3463   3.3609   3.3808   3.3958   3.4723
     3.5480   3.5978   3.6141   3.7147   3.7401   3.7597   3.8091   3.8665
     3.9116   3.9429   3.9882   4.0055   4.1339   4.1828   4.2752   4.2981
     4.3113   4.3840   4.4041   4.4414   4.4921   4.5113   4.5783   4.6019
     4.6185   4.6905   4.7072   4.7355   4.7503   4.8008   4.8152   4.8394
     4.8481   4.8911   4.9253   4.9916   5.0088   5.0323   5.0586   5.0698
     5.1363   5.1736   5.1830   5.1976   5.2174   5.2627   5.3023   5.4182
     5.4514   5.4545   5.4777   5.5119   5.5518   5.6015   5.6241   5.6822
     5.6852   5.7378   5.7565   5.7819   5.7980   5.8696   5.8755   5.9238
     5.9302   6.0170   6.0367   6.0485   6.0657   6.1067   6.1401   6.1615
     6.1871   6.2011   6.2136   6.2292   6.2554   6.2730   6.3030   6.3456
     6.3568   6.4173   6.4311   6.4491   6.4603   6.4761   6.5236   6.5559
     6.5727   6.5832   6.6423   6.6599   6.6923   6.6962   6.7214   6.7550
     6.7599   6.7942   6.8105   6.8142   6.8553   6.9015   6.9145   6.9558
     6.9734   6.9828   7.0053   7.0141   7.0424   7.0628   7.0706   7.1276
     7.1385   7.1545   7.1954   7.2082   7.2317   7.2688   7.2843   7.3152
     7.3246   7.3729   7.3909   7.4017   7.4030   7.4327   7.4517   7.4657
     7.4863   7.5018   7.5467   7.5931   7.6159   7.6358   7.6514   7.6844
     7.7391   7.7753   7.7763   7.7912   7.8126   7.8268   7.8496   7.8529
     7.9032   7.9202   7.9498   7.9830   7.9849   8.0020   8.0302   8.0679
     8.0837   8.1051   8.1337   8.1654   8.2014   8.2086   8.2564   8.2720
     8.3272   8.3437   8.3575   8.4084   8.4299   8.4562   8.4782   8.4952
     8.5247   8.5723   8.5814   8.5995   8.6420   8.6450   8.6731   8.6873
     8.6936   8.7200   8.7242   8.7550   8.7715   8.7988   8.8038   8.8330
     8.8824   8.9093   8.9107   8.9676   9.0220   9.0269   9.0399   9.0545
     9.0780   9.1018   9.1028   9.1110   9.1599   9.1703   9.1910   9.2065
     9.2211   9.2470   9.2838   9.3051   9.3109   9.3215   9.3610   9.3887
     9.4063   9.4267   9.4411   9.4983   9.5122   9.5168   9.5354   9.5570
     9.5675   9.5754   9.5934   9.6090   9.6584   9.6719   9.7077   9.7448
     9.7707   9.7821   9.8111   9.8326   9.8659   9.8848   9.8898   9.8947
     9.9304   9.9551   9.9588   9.9732   9.9764  10.0005  10.0488  10.0866
    10.1136  10.1161  10.1439  10.1538  10.1895  10.1909  10.2299  10.2515
    10.2946  10.3256  10.3299  10.3724  10.4010  10.4915  10.5038  10.5381
    10.5858  10.6068  10.6456  10.6519  10.6724  10.6934  10.7222  10.7472
    10.7571  10.7890  10.7894  10.8247  10.8441  10.8526  10.8638  10.8723
    10.9004  10.9202  10.9316  10.9569  10.9624  10.9877  10.9957  11.0157
    11.0164  11.0435  11.0630  11.0936

          k = 0.0000 0.0000 0.0070 (103457 PWs)   bands (ev):

   -21.1255 -20.8331 -20.6834 -20.5945 -20.3352 -20.1408 -19.8886 -19.8034
   -19.6024 -19.4942 -19.3954 -19.2229 -18.9905 -18.8456 -18.6473 -18.5261
   -18.3693 -18.1077 -17.9697 -17.6844 -17.6608 -17.5958 -17.4658 -17.3689
   -17.3010 -17.0946 -16.9055 -16.6568 -16.4748 -16.3599 -16.3010 -16.1339
   -16.1126 -16.0040 -15.8997 -15.6524 -15.3648 -15.0297 -14.7674 -14.6229
   -14.4554 -14.3491 -14.3227 -14.1744 -14.0623 -14.0276 -13.9718 -13.8719
   -13.3230 -13.0579 -12.9457 -12.8257 -12.7727 -12.7164 -12.6702 -12.5375
   -12.3930 -12.0136 -11.9760 -11.9036 -11.8496 -11.5862 -11.4648 -11.3671
   -11.2444 -11.0679 -10.8604 -10.8429 -10.7117 -10.5581 -10.4133 -10.3262
   -10.2298 -10.0900  -9.9350  -9.8870  -9.7262  -9.6566  -9.5781  -9.5028
    -9.4481  -9.3839  -9.2792  -9.1918  -9.1128  -9.0779  -8.8944  -8.8505
    -8.8196  -8.6734  -8.6464  -8.6118  -8.5838  -8.5640  -8.4805  -8.4152
    -8.3233  -8.2780  -8.2674  -8.2331  -8.2129  -8.1726  -8.1212  -8.0894
    -8.0573  -7.9782  -7.8711  -7.8655  -7.7988  -7.7695  -7.6459  -7.6430
    -7.5939  -7.4634  -7.4394  -7.3768  -7.2791  -7.1881  -7.1693  -7.0418
    -7.0165  -6.9998  -6.9261  -6.8877  -6.7426  -6.7244  -6.5928  -6.5828
    -6.3914  -6.3895  -6.3156  -6.2440  -6.1657  -6.0417  -5.9706  -5.8999
    -5.8141  -5.7435  -5.7164  -5.6223  -5.4832  -5.3478  -5.2824  -5.2036
    -5.1274  -5.1257  -5.0130  -4.9887  -4.9706  -4.6895  -4.5112  -4.4344
    -4.2426  -4.0852  -3.9317  -3.9152  -3.8670  -3.8328  -3.6046  -3.3856
    -2.9240  -2.4700  -1.8128  -1.0619  -0.7241  -0.2827  -0.1633  -0.0232
     0.0087   0.0952   0.1720   0.2784   0.3490   0.5537   0.8701   1.1588
     1.1692   1.1928   1.3323   1.4549   1.4882   1.5297   1.5444   1.5989
     1.7552   1.7568   1.8372   1.9236   1.9346   2.0603   2.0983   2.1727
     2.1965   2.3832   2.4683   2.5798   2.6166   2.6865   2.7297   2.7746
     2.8579   2.9193   2.9546   2.9712   3.0842   3.1262   3.1532   3.1945
     3.2051   3.2371   3.3113   3.3390   3.3615   3.3802   3.3888   3.4924
     3.5561   3.6022   3.6242   3.7002   3.7465   3.8009   3.8301   3.8447
     3.9233   3.9329   3.9899   3.9937   4.1329   4.1802   4.2863   4.3105
     4.3180   4.3589   4.3911   4.4355   4.4802   4.5080   4.5797   4.6046
     4.6355   4.6739   4.6806   4.7039   4.7435   4.8075   4.8172   4.8532
     4.8539   4.9065   4.9278   4.9714   4.9976   4.9978   5.0608   5.0632
     5.1269   5.1675   5.1863   5.1998   5.2540   5.2787   5.2889   5.4288
     5.4570   5.4667   5.5112   5.5282   5.5767   5.6326   5.6354   5.6809
     5.6956   5.6993   5.7476   5.7746   5.7876   5.8467   5.8696   5.9130
     5.9225   6.0078   6.0145   6.0326   6.0676   6.0947   6.1428   6.1476
     6.1836   6.1886   6.2282   6.2331   6.2575   6.2842   6.2932   6.3393
     6.3954   6.4217   6.4445   6.4489   6.4874   6.4912   6.5312   6.5620
     6.5721   6.5855   6.6419   6.6681   6.6942   6.7096   6.7197   6.7462
     6.7647   6.8023   6.8122   6.8240   6.8594   6.9029   6.9052   6.9384
     6.9477   6.9845   7.0041   7.0085   7.0366   7.0550   7.0665   7.1206
     7.1312   7.1589   7.1933   7.2161   7.2336   7.2629   7.2861   7.2969
     7.3236   7.3693   7.3742   7.4017   7.4043   7.4146   7.4444   7.4741
     7.4812   7.5144   7.5377   7.5960   7.6101   7.6139   7.6520   7.6747
     7.7402   7.7815   7.7938   7.8128   7.8202   7.8335   7.8589   7.8842
     7.9149   7.9292   7.9646   7.9893   8.0103   8.0295   8.0505   8.0594
     8.0799   8.1146   8.1302   8.1368   8.2104   8.2114   8.2413   8.2719
     8.3078   8.3392   8.3675   8.4100   8.4195   8.4386   8.4412   8.4777
     8.5260   8.5569   8.5773   8.5785   8.6349   8.6694   8.6729   8.6879
     8.7062   8.7365   8.7424   8.7630   8.7884   8.8045   8.8331   8.8334
     8.8685   8.9035   8.9212   8.9634   8.9943   9.0067   9.0262   9.0371
     9.0609   9.0829   9.1009   9.1531   9.1544   9.1624   9.1791   9.1939
     9.2166   9.2668   9.2687   9.3024   9.3089   9.3149   9.3853   9.3946
     9.3955   9.4278   9.4714   9.4877   9.5037   9.5158   9.5426   9.5430
     9.5658   9.5801   9.5995   9.6016   9.6798   9.6870   9.7057   9.7471
     9.7607   9.7739   9.8147   9.8390   9.8718   9.8795   9.8887   9.9224
     9.9277   9.9360   9.9511   9.9668   9.9755   9.9943  10.0548  10.0807
    10.1036  10.1196  10.1494  10.1772  10.1772  10.2041  10.2462  10.2714
    10.3213  10.3302  10.3658  10.3701  10.3821  10.4688  10.4881  10.5271
    10.5647  10.6068  10.6196  10.6485  10.6628  10.6794  10.7092  10.7402
    10.7482  10.7737  10.7916  10.8263  10.8367  10.8574  10.8642  10.8772
    10.9052  10.9175  10.9228  10.9490  10.9601  10.9871  10.9930  11.0088
    11.0145  11.0666  11.0883  11.0886

          k = 0.0000 0.0000 0.0082 (103435 PWs)   bands (ev):

   -21.1239 -20.8444 -20.6734 -20.5885 -20.3433 -20.1289 -19.8919 -19.8249
   -19.6106 -19.4740 -19.3890 -19.2281 -18.9766 -18.8425 -18.6583 -18.5249
   -18.3594 -18.1388 -17.9677 -17.7092 -17.6634 -17.5677 -17.4697 -17.3660
   -17.2892 -17.0764 -16.9042 -16.6637 -16.4755 -16.3472 -16.3026 -16.1334
   -16.1108 -16.0232 -15.9125 -15.6489 -15.3795 -15.0405 -14.7469 -14.6264
   -14.4656 -14.3406 -14.3028 -14.1739 -14.0605 -14.0140 -13.9661 -13.8526
   -13.3320 -13.0778 -12.9587 -12.8396 -12.7819 -12.7550 -12.6641 -12.5491
   -12.3962 -12.0013 -11.9216 -11.8782 -11.8425 -11.5871 -11.4810 -11.3742
   -11.2340 -11.0640 -10.8656 -10.8359 -10.7154 -10.5825 -10.4071 -10.3121
   -10.2242 -10.0982  -9.9501  -9.8869  -9.7179  -9.6836  -9.5849  -9.5037
    -9.4431  -9.3783  -9.2822  -9.1898  -9.1113  -9.0543  -8.8791  -8.8646
    -8.8086  -8.6664  -8.6624  -8.6253  -8.5785  -8.5751  -8.5010  -8.4214
    -8.3089  -8.2885  -8.2808  -8.2344  -8.2194  -8.1620  -8.1121  -8.0789
    -8.0424  -7.9661  -7.8721  -7.8465  -7.7866  -7.7706  -7.6740  -7.6465
    -7.5839  -7.4578  -7.4484  -7.3822  -7.2560  -7.1843  -7.1797  -7.0507
    -7.0217  -7.0085  -6.9124  -6.8859  -6.7428  -6.7093  -6.5936  -6.5849
    -6.4046  -6.3950  -6.3416  -6.2427  -6.1556  -6.0312  -5.9705  -5.9035
    -5.8036  -5.7737  -5.7088  -5.6233  -5.4714  -5.3641  -5.2939  -5.1827
    -5.1321  -5.1208  -5.0118  -4.9798  -4.9747  -4.6693  -4.5138  -4.4420
    -4.2371  -4.0836  -3.9367  -3.9224  -3.8697  -3.8324  -3.5962  -3.3808
    -2.9306  -2.4851  -1.8152  -1.0477  -0.7152  -0.2836  -0.1644  -0.0122
     0.0140   0.0952   0.1783   0.2747   0.3541   0.5356   0.8701   1.1542
     1.1614   1.1733   1.3150   1.4565   1.4883   1.5175   1.5435   1.5774
     1.7677   1.7683   1.8322   1.9063   1.9561   2.0755   2.1053   2.1943
     2.2105   2.4280   2.4533   2.5821   2.6044   2.6896   2.7247   2.7802
     2.8436   2.8986   2.9549   2.9590   3.0693   3.1125   3.1711   3.2052
     3.2105   3.2436   3.2798   3.3355   3.3619   3.3860   3.3981   3.5146
     3.5560   3.5983   3.6482   3.6885   3.7536   3.8159   3.8443   3.8508
     3.9179   3.9383   3.9880   3.9955   4.1311   4.1779   4.2884   4.3062
     4.3274   4.3453   4.3789   4.4368   4.4641   4.5059   4.5787   4.6067
     4.6383   4.6549   4.6572   4.6880   4.7313   4.8015   4.8221   4.8598
     4.8802   4.9123   4.9401   4.9411   4.9660   4.9851   5.0441   5.0746
     5.1160   5.1567   5.1842   5.2286   5.2706   5.2928   5.3029   5.4365
     5.4609   5.4811   5.5393   5.5475   5.6046   5.6294   5.6478   5.6529
     5.6908   5.7268   5.7344   5.7656   5.7857   5.8321   5.8670   5.8978
     5.9209   5.9785   5.9941   6.0235   6.0696   6.0854   6.1175   6.1395
     6.1784   6.1885   6.2265   6.2321   6.2569   6.2866   6.3274   6.3329
     6.4075   6.4432   6.4510   6.4560   6.5025   6.5205   6.5357   6.5675
     6.5740   6.5927   6.6390   6.6645   6.6890   6.7244   6.7259   6.7466
     6.7747   6.8022   6.8166   6.8282   6.8618   6.8971   6.8991   6.9141
     6.9408   6.9800   7.0038   7.0050   7.0328   7.0332   7.0825   7.1126
     7.1263   7.1567   7.1909   7.2260   7.2416   7.2601   7.2690   7.2885
     7.3249   7.3328   7.3776   7.3787   7.4076   7.4253   7.4318   7.4681
     7.4822   7.5197   7.5396   7.5858   7.5950   7.6342   7.6511   7.6586
     7.7393   7.7804   7.8060   7.8270   7.8385   7.8532   7.8713   7.9211
     7.9351   7.9358   7.9731   7.9950   8.0216   8.0421   8.0427   8.0769
     8.0897   8.0984   8.1375   8.1451   8.2056   8.2135   8.2277   8.2693
     8.2938   8.3446   8.3732   8.3890   8.4066   8.4249   8.4311   8.4609
     8.5171   8.5411   8.5591   8.5817   8.6181   8.6647   8.6856   8.6966
     8.7320   8.7438   8.7654   8.7783   8.7968   8.8111   8.8398   8.8518
     8.8655   8.8970   8.9246   8.9503   8.9633   8.9640   8.9947   9.0405
     9.0494   9.0956   9.0989   9.1431   9.1493   9.1652   9.1701   9.2147
     9.2274   9.2499   9.2667   9.2973   9.3015   9.3177   9.3830   9.3975
     9.4216   9.4303   9.4790   9.4826   9.5077   9.5158   9.5208   9.5520
     9.5693   9.5820   9.5956   9.6107   9.6634   9.7009   9.7358   9.7490
     9.7492   9.7832   9.8116   9.8413   9.8509   9.8795   9.8850   9.9191
     9.9268   9.9327   9.9591   9.9593   9.9913  10.0019  10.0454  10.0735
    10.0826  10.1232  10.1491  10.1813  10.1953  10.2187  10.2597  10.3050
    10.3174  10.3475  10.3631  10.3958  10.4011  10.4494  10.4754  10.5135
    10.5322  10.5849  10.6059  10.6357  10.6600  10.6735  10.7006  10.7274
    10.7355  10.7578  10.7964  10.8305  10.8326  10.8435  10.8739  10.8806
    10.8968  10.9113  10.9132  10.9491  10.9544  10.9870  10.9894  11.0133
    11.0152  11.0779  11.0795  11.1067

          k = 0.0000 0.0000 0.0094 (103429 PWs)   bands (ev):

   -21.1221 -20.8556 -20.6644 -20.5811 -20.3514 -20.1164 -19.8986 -19.8425
   -19.6195 -19.4591 -19.3797 -19.2298 -18.9640 -18.8391 -18.6679 -18.5245
   -18.3493 -18.1715 -17.9627 -17.7373 -17.6646 -17.5512 -17.4615 -17.3647
   -17.2746 -17.0632 -16.8986 -16.6685 -16.4789 -16.3343 -16.3028 -16.1367
   -16.1078 -16.0442 -15.9237 -15.6465 -15.3938 -15.0527 -14.7324 -14.6213
   -14.4755 -14.3411 -14.2737 -14.1715 -14.0584 -14.0022 -13.9572 -13.8321
   -13.3417 -13.0977 -12.9733 -12.8600 -12.8304 -12.7545 -12.6564 -12.5639
   -12.3911 -11.9924 -11.8678 -11.8567 -11.8281 -11.5892 -11.4959 -11.3793
   -11.2265 -11.0618 -10.8754 -10.8223 -10.7148 -10.6069 -10.4069 -10.3001
   -10.2186 -10.1020  -9.9704  -9.8840  -9.7264  -9.7030  -9.5893  -9.4975
    -9.4405  -9.3693  -9.2795  -9.1875  -9.1103  -9.0318  -8.8784  -8.8757
    -8.8019  -8.6764  -8.6530  -8.6416  -8.5926  -8.5645  -8.5152  -8.4266
    -8.3009  -8.2989  -8.2886  -8.2425  -8.2280  -8.1509  -8.1035  -8.0666
    -8.0269  -7.9516  -7.8738  -7.8255  -7.7735  -7.7720  -7.7001  -7.6518
    -7.5724  -7.4580  -7.4532  -7.3864  -7.2404  -7.1994  -7.1676  -7.0658
    -7.0213  -7.0121  -6.9037  -6.8807  -6.7433  -6.6969  -6.6064  -6.5761
    -6.4163  -6.4053  -6.3607  -6.2419  -6.1461  -6.0203  -5.9748  -5.9090
    -5.8079  -5.7884  -5.7007  -5.6188  -5.4586  -5.3860  -5.3018  -5.1830
    -5.1375  -5.0958  -5.0156  -4.9793  -4.9639  -4.6531  -4.5213  -4.4404
    -4.2329  -4.0820  -3.9445  -3.9320  -3.8733  -3.8274  -3.5887  -3.3746
    -2.9378  -2.5021  -1.8177  -1.0318  -0.7052  -0.2876  -0.1610  -0.0052
     0.0243   0.0940   0.1847   0.2718   0.3579   0.5197   0.8662   1.1241
     1.1643   1.1643   1.3035   1.4576   1.4644   1.5036   1.5456   1.5790
     1.7707   1.7812   1.8368   1.8894   1.9782   2.0875   2.1162   2.2167
     2.2234   2.4384   2.4724   2.5848   2.5931   2.6862   2.7199   2.7890
     2.8320   2.8806   2.9393   2.9639   3.0531   3.0979   3.1851   3.2077
     3.2190   3.2432   3.2550   3.3378   3.3542   3.3959   3.4177   3.5381
     3.5468   3.6028   3.6573   3.6920   3.7609   3.7887   3.8682   3.8858
     3.9037   3.9527   3.9869   4.0048   4.1288   4.1757   4.2803   4.2992
     4.3074   4.3634   4.3672   4.4441   4.4446   4.5063   4.5690   4.6072
     4.6083   4.6406   4.6433   4.6986   4.7176   4.7980   4.8252   4.8577
     4.8924   4.9106   4.9252   4.9429   4.9606   4.9707   5.0233   5.0905
     5.1015   5.1441   5.1953   5.2550   5.2599   5.3265   5.3325   5.4420
     5.4649   5.4979   5.5414   5.5835   5.5846   5.6322   5.6540   5.6575
     5.6892   5.7239   5.7388   5.7728   5.7872   5.8273   5.8676   5.8874
     5.9176   5.9501   5.9661   6.0129   6.0649   6.0755   6.1034   6.1251
     6.1678   6.1793   6.2248   6.2343   6.2548   6.3073   6.3264   6.3649
     6.4080   6.4356   6.4690   6.4731   6.5095   6.5406   6.5550   6.5705
     6.5839   6.6003   6.6361   6.6503   6.6979   6.7366   6.7396   6.7468
     6.7839   6.8016   6.8213   6.8293   6.8548   6.8594   6.8994   6.9142
     6.9458   6.9694   6.9880   7.0089   7.0218   7.0414   7.0977   7.1108
     7.1183   7.1489   7.1895   7.2313   7.2314   7.2492   7.2651   7.2967
     7.2974   7.3270   7.3581   7.3793   7.4085   7.4169   7.4346   7.4583
     7.4781   7.5146   7.5551   7.5642   7.5966   7.6378   7.6478   7.6649
     7.7370   7.7792   7.8157   7.8366   7.8605   7.8847   7.8856   7.9406
     7.9512   7.9653   7.9673   8.0064   8.0222   8.0316   8.0323   8.0680
     8.1033   8.1319   8.1356   8.1766   8.1913   8.2152   8.2204   8.2626
     8.2872   8.3319   8.3534   8.3859   8.4064   8.4182   8.4365   8.4454
     8.4890   8.5263   8.5574   8.5861   8.5984   8.6590   8.6881   8.7143
     8.7501   8.7618   8.7821   8.7883   8.7900   8.8173   8.8438   8.8594
     8.8796   8.8836   8.9034   8.9288   8.9365   8.9580   8.9729   9.0452
     9.0461   9.0954   9.1061   9.1282   9.1451   9.1516   9.1720   9.2143
     9.2309   9.2356   9.2863   9.2934   9.2960   9.3237   9.3799   9.3944
     9.4280   9.4616   9.4670   9.4793   9.4979   9.5156   9.5267   9.5620
     9.5760   9.5831   9.5997   9.6131   9.6578   9.7063   9.7414   9.7416
     9.7559   9.8008   9.8135   9.8247   9.8448   9.8708   9.8866   9.9097
     9.9265   9.9355   9.9526   9.9590   9.9900  10.0093  10.0358  10.0527
    10.0887  10.1227  10.1652  10.1933  10.2118  10.2330  10.2651  10.3009
    10.3424  10.3571  10.3688  10.4142  10.4322  10.4412  10.4716  10.4922
    10.5064  10.5499  10.5939  10.6136  10.6567  10.6749  10.6937  10.7106
    10.7217  10.7535  10.7930  10.8275  10.8291  10.8367  10.8666  10.8839
    10.8910  10.9005  10.9056  10.9508  10.9591  10.9799  10.9880  11.0138
    11.0312  11.0661  11.0767  11.1170

          k = 0.0000 0.0000 0.0106 (103431 PWs)   bands (ev):

   -21.1201 -20.8664 -20.6565 -20.5724 -20.3593 -20.1035 -19.9108 -19.8543
   -19.6290 -19.4514 -19.3659 -19.2275 -18.9534 -18.8358 -18.6756 -18.5246
   -18.3397 -18.2040 -17.9560 -17.7663 -17.6656 -17.5505 -17.4374 -17.3643
   -17.2586 -17.0564 -16.8876 -16.6711 -16.4841 -16.3248 -16.2988 -16.1442
   -16.1047 -16.0666 -15.9318 -15.6462 -15.4068 -15.0661 -14.7278 -14.6040
   -14.4848 -14.3449 -14.2419 -14.1665 -14.0555 -13.9937 -13.9445 -13.8104
   -13.3518 -13.1176 -12.9893 -12.8976 -12.8707 -12.7508 -12.6523 -12.5754
   -12.3802 -11.9842 -11.8499 -11.8216 -11.7919 -11.5932 -11.5093 -11.3813
   -11.2226 -11.0611 -10.8839 -10.8071 -10.7114 -10.6301 -10.4104 -10.2925
   -10.2164 -10.0987  -9.9926  -9.8816  -9.7652  -9.6982  -9.5892  -9.4882
    -9.4391  -9.3577  -9.2724  -9.1848  -9.1090  -9.0116  -8.8918  -8.8822
    -8.8028  -8.6836  -8.6568  -8.6449  -8.6031  -8.5520  -8.5205  -8.4312
    -8.3127  -8.3090  -8.2772  -8.2537  -8.2377  -8.1406  -8.0969  -8.0540
    -8.0108  -7.9344  -7.8741  -7.8051  -7.7803  -7.7551  -7.7219  -7.6572
    -7.5608  -7.4682  -7.4508  -7.3879  -7.2346  -7.2147  -7.1500  -7.0824
    -7.0197  -7.0098  -6.9026  -6.8697  -6.7448  -6.6872  -6.6203  -6.5678
    -6.4260  -6.4251  -6.3670  -6.2414  -6.1380  -6.0095  -5.9814  -5.9154
    -5.8435  -5.7717  -5.6911  -5.6111  -5.4451  -5.4119  -5.3071  -5.1936
    -5.1436  -5.0626  -5.0175  -4.9845  -4.9468  -4.6426  -4.5311  -4.4308
    -4.2297  -4.0806  -3.9573  -3.9410  -3.8762  -3.8203  -3.5821  -3.3669
    -2.9456  -2.5207  -1.8203  -1.0147  -0.6942  -0.2944  -0.1530  -0.0015
     0.0393   0.0920   0.1897   0.2704   0.3601   0.5069   0.8582   1.0907
     1.1533   1.1677   1.2971   1.4286   1.4574   1.4914   1.5486   1.5947
     1.7644   1.7943   1.8502   1.8731   1.9990   2.0956   2.1314   2.2370
     2.2396   2.4238   2.5060   2.5879   2.5914   2.6767   2.7155   2.7990
     2.8239   2.8663   2.9246   2.9691   3.0364   3.0835   3.1943   3.1995
     3.2126   3.2292   3.2667   3.3436   3.3472   3.4079   3.4397   3.5339
     3.5617   3.6100   3.6481   3.7132   3.7634   3.7675   3.8694   3.9070
     3.9275   3.9659   3.9884   4.0177   4.1266   4.1731   4.2537   4.2900
     4.3042   4.3559   4.3739   4.4225   4.4546   4.5125   4.5484   4.5696
     4.6049   4.6245   4.6424   4.7053   4.7144   4.7966   4.8273   4.8429
     4.8814   4.8850   4.9396   4.9417   4.9572   4.9803   5.0111   5.0905
     5.1070   5.1300   5.2112   5.2404   5.2930   5.3507   5.3726   5.4464
     5.4693   5.5087   5.5223   5.5622   5.6142   5.6425   5.6551   5.6732
     5.6842   5.7238   5.7356   5.7860   5.7899   5.8301   5.8698   5.8894
     5.9079   5.9257   5.9432   5.9889   6.0563   6.0712   6.0970   6.1090
     6.1575   6.1580   6.2170   6.2537   6.2548   6.3191   6.3307   6.4031
     6.4073   6.4221   6.4772   6.4832   6.5100   6.5440   6.5601   6.5895
     6.6005   6.6140   6.6327   6.6635   6.7058   6.7433   6.7469   6.7503
     6.7878   6.8030   6.8155   6.8208   6.8371   6.8604   6.8977   6.9120
     6.9472   6.9600   6.9636   7.0129   7.0223   7.0640   7.0954   7.1118
     7.1215   7.1439   7.1852   7.1876   7.2387   7.2475   7.2626   7.2768
     7.3111   7.3300   7.3410   7.3716   7.4007   7.4094   7.4378   7.4605
     7.4658   7.5128   7.5456   7.5622   7.6041   7.6155   7.6462   7.6982
     7.7355   7.7810   7.8242   7.8480   7.8789   7.8983   7.9148   7.9441
     7.9547   7.9686   7.9863   8.0064   8.0162   8.0333   8.0410   8.0762
     8.1139   8.1334   8.1562   8.1742   8.2055   8.2133   8.2385   8.2581
     8.2765   8.2914   8.3560   8.3768   8.4089   8.4184   8.4369   8.4427
     8.4628   8.5110   8.5581   8.5819   8.5908   8.6529   8.6906   8.7292
     8.7537   8.7683   8.7755   8.7904   8.8085   8.8193   8.8340   8.8460
     8.8671   8.8767   8.9152   8.9178   8.9331   8.9367   8.9893   9.0391
     9.0535   9.0906   9.1050   9.1187   9.1383   9.1416   9.1748   9.2046
     9.2133   9.2200   9.2848   9.2899   9.3209   9.3462   9.3814   9.3868
     9.4358   9.4417   9.4666   9.4817   9.5097   9.5214   9.5278   9.5718
     9.5871   9.5940   9.6092   9.6140   9.6550   9.6967   9.7418   9.7438
     9.7606   9.7865   9.7980   9.8338   9.8560   9.8583   9.8878   9.9065
     9.9243   9.9390   9.9485   9.9548   9.9811  10.0008  10.0082  10.0600
    10.1022  10.1190  10.2035  10.2077  10.2199  10.2453  10.2636  10.3033
    10.3411  10.3773  10.3788  10.4162  10.4513  10.4516  10.4646  10.4861
    10.4941  10.5204  10.5735  10.5975  10.6507  10.6515  10.6965  10.7078
    10.7101  10.7540  10.7700  10.8259  10.8270  10.8345  10.8500  10.8764
    10.8903  10.9017  10.9032  10.9547  10.9589  10.9681  10.9897  11.0139
    11.0467  11.0610  11.0782  11.1180

          k = 0.0000 0.0000 0.0117 (103457 PWs)   bands (ev):

   -21.1179 -20.8770 -20.6495 -20.5624 -20.3669 -20.0903 -19.9280 -19.8605
   -19.6389 -19.4505 -19.3481 -19.2211 -18.9449 -18.8335 -18.6805 -18.5249
   -18.3321 -18.2343 -17.9484 -17.7955 -17.6667 -17.5585 -17.4056 -17.3633
   -17.2420 -17.0557 -16.8710 -16.6717 -16.4903 -16.3219 -16.2886 -16.1564
   -16.1024 -16.0891 -15.9358 -15.6488 -15.4175 -15.0808 -14.7318 -14.5761
   -14.4931 -14.3507 -14.2107 -14.1573 -14.0518 -13.9878 -13.9292 -13.7878
   -13.3620 -13.1374 -13.0069 -12.9515 -12.8969 -12.7525 -12.6530 -12.5777
   -12.3657 -11.9765 -11.8454 -11.7919 -11.7388 -11.5989 -11.5213 -11.3794
   -11.2232 -11.0613 -10.8901 -10.7911 -10.7073 -10.6501 -10.4159 -10.2893
   -10.2205 -10.0896 -10.0131  -9.8835  -9.8040  -9.6947  -9.5837  -9.4792
    -9.4358  -9.3448  -9.2623  -9.1819  -9.1070  -8.9953  -8.9050  -8.8963
    -8.8071  -8.7033  -8.6670  -8.6381  -8.6056  -8.5381  -8.5160  -8.4346
    -8.3270  -8.3187  -8.2688  -8.2625  -8.2467  -8.1312  -8.0931  -8.0420
    -7.9944  -7.9153  -7.8732  -7.7942  -7.7859  -7.7361  -7.7361  -7.6615
    -7.5501  -7.4789  -7.4514  -7.3859  -7.2372  -7.2302  -7.1289  -7.0989
    -7.0183  -7.0012  -6.9055  -6.8568  -6.7478  -6.6799  -6.6339  -6.5622
    -6.4526  -6.4292  -6.3647  -6.2408  -6.1325  -6.0002  -5.9887  -5.9220
    -5.8783  -5.7563  -5.6789  -5.6017  -5.4403  -5.4310  -5.3112  -5.2067
    -5.1504  -5.0387  -5.0068  -4.9902  -4.9299  -4.6395  -4.5388  -4.4159
    -4.2270  -4.0796  -3.9749  -3.9484  -3.8781  -3.8124  -3.5765  -3.3576
    -2.9536  -2.5408  -1.8231  -0.9965  -0.6822  -0.3035  -0.1411   0.0005
     0.0570   0.0894   0.1918   0.2713   0.3606   0.4982   0.8462   1.0565
     1.1387   1.1715   1.2913   1.3948   1.4533   1.4836   1.5522   1.6154
     1.7540   1.8069   1.8558   1.8697   2.0173   2.1017   2.1492   2.2527
     2.2630   2.4095   2.5129   2.5914   2.6133   2.6621   2.7121   2.8062
     2.8199   2.8580   2.9117   2.9742   3.0199   3.0698   3.1703   3.1980
     3.2003   3.2375   3.2797   3.3434   3.3529   3.4206   3.4624   3.5201
     3.5830   3.6165   3.6356   3.7280   3.7522   3.7723   3.8597   3.9257
     3.9646   3.9819   3.9917   4.0338   4.1247   4.1699   4.2220   4.2795
     4.3064   4.3443   4.3769   4.3980   4.4625   4.5160   4.5268   4.5367
     4.5996   4.6095   4.6427   4.6966   4.7265   4.7963   4.8263   4.8276
     4.8522   4.8717   4.9243   4.9512   4.9592   4.9934   5.0221   5.0886
     5.1157   5.1238   5.2158   5.2394   5.3271   5.3734   5.4126   5.4488
     5.4674   5.4744   5.5368   5.5572   5.6183   5.6413   5.6665   5.6803
     5.6906   5.7375   5.7398   5.7863   5.7941   5.8266   5.8675   5.8890
     5.8896   5.9299   5.9316   5.9599   6.0503   6.0656   6.0919   6.0923
     6.1323   6.1518   6.2120   6.2553   6.2762   6.3125   6.3504   6.4006
     6.4082   6.4410   6.4768   6.4985   6.5002   6.5248   6.5619   6.6061
     6.6229   6.6257   6.6591   6.6845   6.7088   6.7363   6.7451   6.7596
     6.7875   6.7897   6.8061   6.8230   6.8456   6.8657   6.8890   6.9213
     6.9339   6.9401   6.9641   7.0152   7.0256   7.0754   7.0946   7.1134
     7.1237   7.1419   7.1538   7.1826   7.2281   7.2373   7.2522   7.2900
     7.3149   7.3253   7.3421   7.3587   7.3831   7.4096   7.4439   7.4461
     7.4696   7.5136   7.5285   7.5651   7.5951   7.6097   7.6499   7.7256
     7.7408   7.7891   7.8303   7.8569   7.8810   7.9053   7.9373   7.9429
     7.9452   7.9573   7.9920   8.0198   8.0453   8.0470   8.0564   8.0872
     8.1120   8.1368   8.1606   8.1716   8.2013   8.2301   8.2370   8.2589
     8.2835   8.2840   8.3522   8.3675   8.3963   8.4095   8.4289   8.4496
     8.4612   8.5051   8.5488   8.5749   8.5959   8.6435   8.6898   8.7190
     8.7416   8.7502   8.7796   8.8068   8.8070   8.8205   8.8256   8.8441
     8.8545   8.8678   8.9087   8.9112   8.9543   8.9579   9.0002   9.0348
     9.0628   9.0849   9.0933   9.1121   9.1250   9.1383   9.1548   9.1984
     9.2028   9.2254   9.2760   9.2861   9.3186   9.3584   9.3840   9.4136
     9.4208   9.4415   9.4619   9.4687   9.5252   9.5259   9.5503   9.5808
     9.5960   9.6085   9.6189   9.6224   9.6530   9.6814   9.7312   9.7366
     9.7713   9.7775   9.7800   9.8370   9.8417   9.8574   9.8856   9.9051
     9.9216   9.9266   9.9526   9.9564   9.9751   9.9954  10.0080  10.0623
    10.1081  10.1206  10.2108  10.2226  10.2389  10.2625  10.2736  10.3119
    10.3348  10.3757  10.3854  10.4240  10.4298  10.4599  10.4682  10.4866
    10.4906  10.5301  10.5501  10.5899  10.6272  10.6403  10.6885  10.6941
    10.7270  10.7430  10.7542  10.8041  10.8312  10.8318  10.8466  10.8671
    10.8865  10.9036  10.9108  10.9394  10.9549  10.9715  10.9897  11.0138
    11.0522  11.0648  11.0895  11.1105

          k = 0.0000 0.0000 0.0129 (103443 PWs)   bands (ev):

   -21.1155 -20.8873 -20.6435 -20.5514 -20.3739 -20.0771 -19.9478 -19.8633
   -19.6493 -19.4546 -19.3280 -19.2108 -18.9387 -18.8326 -18.6820 -18.5253
   -18.3309 -18.2580 -17.9412 -17.8240 -17.6679 -17.5692 -17.3811 -17.3520
   -17.2257 -17.0598 -16.8501 -16.6704 -16.4968 -16.3230 -16.2751 -16.1739
   -16.1138 -16.0979 -15.9357 -15.6546 -15.4253 -15.0965 -14.7403 -14.5433
   -14.4989 -14.3577 -14.1856 -14.1396 -14.0474 -13.9835 -13.9129 -13.7642
   -13.3721 -13.1570 -13.0280 -13.0049 -12.9229 -12.7630 -12.6540 -12.5714
   -12.3491 -11.9696 -11.8424 -11.7646 -11.6866 -11.6033 -11.5323 -11.3733
   -11.2284 -11.0614 -10.8949 -10.7751 -10.7064 -10.6622 -10.4226 -10.2896
   -10.2305 -10.0870 -10.0220  -9.8984  -9.8314  -9.6939  -9.5727  -9.4728
    -9.4281  -9.3314  -9.2505  -9.1788  -9.1042  -8.9860  -8.9177  -8.9123
    -8.8121  -8.7310  -8.6786  -8.6321  -8.6033  -8.5230  -8.5029  -8.4356
    -8.3410  -8.3278  -8.2800  -8.2649  -8.2429  -8.1227  -8.0917  -8.0311
    -7.9778  -7.8956  -7.8709  -7.8149  -7.7688  -7.7428  -7.7149  -7.6633
    -7.5408  -7.4899  -7.4547  -7.3807  -7.2458  -7.2453  -7.1143  -7.1068
    -7.0179  -6.9866  -6.9099  -6.8448  -6.7535  -6.6749  -6.6456  -6.5614
    -6.4803  -6.4271  -6.3586  -6.2401  -6.1305  -5.9953  -5.9951  -5.9286
    -5.9090  -5.7439  -5.6634  -5.5914  -5.4703  -5.4165  -5.3147  -5.2197
    -5.1579  -5.0357  -4.9965  -4.9740  -4.9134  -4.6446  -4.5417  -4.3977
    -4.2244  -4.0792  -3.9952  -3.9550  -3.8795  -3.8049  -3.5720  -3.3466
    -2.9618  -2.5623  -1.8260  -0.9774  -0.6695  -0.3139  -0.1261   0.0019
     0.0751   0.0874   0.1899   0.2749   0.3601   0.4937   0.8304   1.0223
     1.1205   1.1756   1.2774   1.3743   1.4440   1.4815   1.5563   1.6379
     1.7420   1.8188   1.8405   1.8899   2.0322   2.1070   2.1683   2.2707
     2.2867   2.3957   2.5010   2.5951   2.6437   2.6465   2.7128   2.8057
     2.8215   2.8565   2.9030   2.9788   3.0043   3.0572   3.1358   3.1871
     3.2047   3.2413   3.2917   3.3436   3.3656   3.4330   3.4844   3.5076
     3.5959   3.6207   3.6245   3.7207   3.7720   3.7738   3.8549   3.9471
     3.9806   3.9963   4.0171   4.0525   4.1236   4.1655   4.1899   4.2684
     4.3100   4.3321   4.3714   4.3748   4.4659   4.4760   4.5105   4.5428
     4.5933   4.5986   4.6370   4.6922   4.7323   4.7959   4.8069   4.8236
     4.8372   4.8571   4.9007   4.9490   4.9694   5.0095   5.0413   5.0990
     5.1036   5.1412   5.2030   5.2570   5.3613   5.3871   5.4168   5.4520
     5.4607   5.4804   5.5443   5.5630   5.5983   5.6350   5.6821   5.6904
     5.6978   5.7522   5.7597   5.7811   5.8005   5.8163   5.8465   5.8740
     5.8763   5.9195   5.9449   5.9662   6.0374   6.0627   6.0760   6.0887
     6.1073   6.1488   6.2096   6.2554   6.2999   6.3062   6.3623   6.3776
     6.4071   6.4680   6.4766   6.4792   6.5154   6.5223   6.5649   6.6097
     6.6235   6.6518   6.6892   6.7012   6.7056   6.7158   6.7563   6.7678
     6.7801   6.7908   6.8090   6.8283   6.8518   6.8701   6.8838   6.9156
     6.9284   6.9409   6.9639   7.0197   7.0297   7.0603   7.0912   7.1022
     7.1200   7.1275   7.1671   7.1938   7.1959   7.2297   7.2620   7.2966
     7.3094   7.3095   7.3488   7.3622   7.3640   7.4104   7.4212   7.4557
     7.4759   7.5110   7.5183   7.5689   7.5787   7.6108   7.6599   7.7295
     7.7623   7.8091   7.8284   7.8556   7.8621   7.9107   7.9177   7.9426
     7.9545   7.9677   8.0103   8.0239   8.0610   8.0714   8.0843   8.1060
     8.1065   8.1353   8.1554   8.1733   8.1882   8.2190   8.2516   8.2582
     8.2871   8.3237   8.3555   8.3557   8.3803   8.3982   8.4064   8.4607
     8.4716   8.5105   8.5329   8.5750   8.6018   8.6246   8.6665   8.6871
     8.7309   8.7490   8.7873   8.7963   8.7981   8.8163   8.8425   8.8433
     8.8551   8.8565   8.9073   8.9196   8.9806   8.9840   8.9938   9.0415
     9.0721   9.0750   9.0805   9.0904   9.1143   9.1346   9.1506   9.1868
     9.1981   9.2326   9.2760   9.2813   9.3152   9.3295   9.3922   9.3974
     9.4381   9.4575   9.4676   9.4761   9.5250   9.5333   9.5758   9.5924
     9.6060   9.6159   9.6259   9.6275   9.6587   9.6681   9.7132   9.7207
     9.7536   9.7804   9.7915   9.8232   9.8324   9.8487   9.8751   9.8908
     9.9102   9.9159   9.9459   9.9817   9.9926  10.0005  10.0177  10.0654
    10.1066  10.1207  10.2044  10.2369  10.2426  10.2828  10.2842  10.3131
    10.3628  10.3658  10.3757  10.3983  10.4392  10.4467  10.4715  10.4842
    10.4996  10.5347  10.5633  10.5796  10.6179  10.6238  10.6794  10.6830
    10.7239  10.7389  10.7503  10.7848  10.8243  10.8342  10.8485  10.8662
    10.8772  10.9049  10.9078  10.9319  10.9486  10.9801  10.9881  11.0176
    11.0480  11.0714  11.0813  11.1113

          k = 0.0000 0.0000 0.0141 (103441 PWs)   bands (ev):

   -21.1129 -20.8973 -20.6382 -20.5398 -20.3803 -20.0645 -19.9682 -19.8644
   -19.6600 -19.4617 -19.3074 -19.1967 -18.9348 -18.8337 -18.6800 -18.5257
   -18.3427 -18.2679 -17.9359 -17.8504 -17.6693 -17.5801 -17.3771 -17.3193
   -17.2104 -17.0664 -16.8267 -16.6677 -16.5030 -16.3262 -16.2613 -16.1971
   -16.1341 -16.0963 -15.9326 -15.6633 -15.4299 -15.1134 -14.7508 -14.5215
   -14.4889 -14.3653 -14.1696 -14.1115 -14.0417 -13.9797 -13.8965 -13.7399
   -13.3819 -13.1767 -13.0699 -13.0383 -12.9503 -12.7819 -12.6513 -12.5604
   -12.3311 -11.9637 -11.8393 -11.7384 -11.6535 -11.5906 -11.5424 -11.3638
   -11.2377 -11.0606 -10.9000 -10.7596 -10.7121 -10.6617 -10.4297 -10.2924
   -10.2445 -10.1040 -10.0113  -9.9287  -9.8426  -9.6934  -9.5576  -9.4692
    -9.4159  -9.3181  -9.2382  -9.1753  -9.1009  -8.9896  -8.9301  -8.9212
    -8.8191  -8.7606  -8.6912  -8.6269  -8.6016  -8.5074  -8.4883  -8.4306
    -8.3546  -8.3360  -8.2918  -8.2754  -8.2297  -8.1161  -8.0908  -8.0215
    -7.9613  -7.8789  -7.8654  -7.8390  -7.7548  -7.7454  -7.6919  -7.6611
    -7.5337  -7.5014  -7.4591  -7.3741  -7.2607  -7.2567  -7.1281  -7.0852
    -7.0190  -6.9668  -6.9149  -6.8352  -6.7624  -6.6716  -6.6543  -6.5659
    -6.5068  -6.4189  -6.3505  -6.2388  -6.1328  -6.0016  -5.9997  -5.9349
    -5.9279  -5.7348  -5.6446  -5.5807  -5.5014  -5.4018  -5.3180  -5.2317
    -5.1661  -5.0377  -5.0032  -4.9359  -4.8979  -4.6561  -4.5403  -4.3781
    -4.2214  -4.0799  -4.0172  -3.9610  -3.8804  -3.7983  -3.5685  -3.3341
    -2.9700  -2.5849  -1.8288  -0.9577  -0.6563  -0.3250  -0.1089   0.0030
     0.0807   0.0982   0.1848   0.2804   0.3598   0.4929   0.8109   0.9889
     1.0988   1.1802   1.2509   1.3720   1.4317   1.4831   1.5608   1.6613
     1.7294   1.8252   1.8299   1.9117   2.0433   2.1122   2.1878   2.2902
     2.3106   2.3828   2.4838   2.5990   2.6226   2.6668   2.7263   2.7980
     2.8311   2.8550   2.9037   2.9822   2.9901   3.0468   3.1012   3.1758
     3.2075   3.2406   3.3020   3.3472   3.3813   3.4445   3.4881   3.5142
     3.5908   3.6190   3.6222   3.7227   3.7727   3.7971   3.8578   3.9683
     3.9891   4.0026   4.0555   4.0746   4.1242   4.1589   4.1595   4.2572
     4.3141   4.3187   4.3426   4.3692   4.4360   4.4669   4.4865   4.5442
     4.5817   4.6086   4.6216   4.6916   4.7350   4.7781   4.7920   4.8123
     4.8448   4.8469   4.8774   4.9384   4.9911   5.0214   5.0584   5.0888
     5.1275   5.1594   5.1889   5.2770   5.3536   5.3942   5.4120   5.4700
     5.4867   5.4908   5.5382   5.5739   5.5823   5.6289   5.6821   5.7045
     5.7099   5.7582   5.7740   5.7807   5.8084   5.8086   5.8212   5.8601
     5.8643   5.9116   5.9460   5.9976   6.0175   6.0630   6.0667   6.0859
     6.0873   6.1467   6.2090   6.2540   6.3006   6.3239   6.3464   6.3671
     6.4064   6.4366   6.4827   6.5048   6.5281   6.5375   6.5660   6.6025
     6.6293   6.6496   6.6843   6.6946   6.7124   6.7465   6.7616   6.7722
     6.7891   6.7981   6.8119   6.8360   6.8567   6.8682   6.8905   6.9083
     6.9240   6.9535   6.9636   7.0302   7.0304   7.0447   7.0492   7.0998
     7.1223   7.1304   7.1607   7.1735   7.2147   7.2361   7.2655   7.2868
     7.2925   7.3179   7.3431   7.3463   7.3761   7.3931   7.4178   7.4667
     7.4796   7.4931   7.5265   7.5662   7.5770   7.6122   7.6722   7.7288
     7.7765   7.8090   7.8295   7.8410   7.8509   7.9110   7.9115   7.9439
     7.9676   7.9694   8.0280   8.0320   8.0619   8.0894   8.1003   8.1120
     8.1278   8.1394   8.1405   8.1688   8.2114   8.2119   8.2408   8.2845
     8.2954   8.3293   8.3392   8.3682   8.3871   8.3879   8.3985   8.4541
     8.4951   8.5071   8.5238   8.5702   8.5899   8.6089   8.6358   8.6737
     8.7110   8.7423   8.7767   8.7848   8.8034   8.8212   8.8391   8.8427
     8.8513   8.8793   8.9124   8.9369   8.9750   8.9996   9.0087   9.0417
     9.0502   9.0710   9.0785   9.0870   9.1131   9.1314   9.1597   9.1789
     9.1819   9.2412   9.2725   9.2729   9.3003   9.3234   9.3714   9.3943
     9.4445   9.4472   9.4860   9.5260   9.5273   9.5410   9.5877   9.6042
     9.6043   9.6175   9.6274   9.6348   9.6545   9.6640   9.6954   9.7104
     9.7440   9.7845   9.7860   9.8089   9.8231   9.8394   9.8628   9.8752
     9.9080   9.9189   9.9470   9.9737  10.0092  10.0343  10.0359  10.0672
    10.1027  10.1170  10.2048  10.2296  10.2491  10.2817  10.3014  10.3178
    10.3511  10.3541  10.3767  10.4133  10.4154  10.4552  10.4641  10.4891
    10.5177  10.5283  10.5619  10.5926  10.6061  10.6261  10.6658  10.6800
    10.7155  10.7288  10.7397  10.7900  10.8242  10.8307  10.8484  10.8615
    10.8666  10.8981  10.9013  10.9425  10.9429  10.9872  10.9903  11.0238
    11.0367  11.0589  11.0763  11.1052

          k = 0.0000 0.0000 0.0153 (103453 PWs)   bands (ev):

   -21.1101 -20.9069 -20.6335 -20.5279 -20.3856 -20.0540 -19.9868 -19.8645
   -19.6711 -19.4705 -19.2872 -19.1791 -18.9332 -18.8365 -18.6749 -18.5258
   -18.3660 -18.2652 -17.9364 -17.8710 -17.6708 -17.5904 -17.3788 -17.2811
   -17.1967 -17.0732 -16.8022 -16.6638 -16.5084 -16.3311 -16.2484 -16.2243
   -16.1526 -16.0945 -15.9276 -15.6739 -15.4318 -15.1312 -14.7618 -14.5231
   -14.4527 -14.3730 -14.1584 -14.0802 -14.0330 -13.9759 -13.8809 -13.7149
   -13.3911 -13.1971 -13.1233 -13.0595 -12.9795 -12.8058 -12.6450 -12.5473
   -12.3124 -11.9595 -11.8352 -11.7145 -11.6516 -11.5608 -11.5378 -11.3531
   -11.2488 -11.0586 -10.9073 -10.7463 -10.7180 -10.6529 -10.4366 -10.2970
   -10.2609 -10.1328 -10.0029  -9.9535  -9.8473  -9.6905  -9.5403  -9.4669
    -9.4009  -9.3051  -9.2263  -9.1716  -9.0984  -9.0052  -8.9422  -8.9206
    -8.8318  -8.7874  -8.7025  -8.6221  -8.6014  -8.4917  -8.4810  -8.4160
    -8.3679  -8.3429  -8.3011  -8.2858  -8.2157  -8.1133  -8.0879  -8.0130
    -7.9457  -7.8724  -7.8636  -7.8516  -7.7461  -7.7446  -7.6684  -7.6528
    -7.5293  -7.5132  -7.4632  -7.3687  -7.2736  -7.2699  -7.1397  -7.0647
    -7.0219  -6.9426  -6.9199  -6.8295  -6.7739  -6.6701  -6.6599  -6.5745
    -6.5305  -6.4064  -6.3413  -6.2366  -6.1397  -6.0242  -6.0018  -5.9408
    -5.9303  -5.7285  -5.6235  -5.5702  -5.5333  -5.3870  -5.3211  -5.2421
    -5.1749  -5.0406  -5.0105  -4.8971  -4.8833  -4.6708  -4.5362  -4.3586
    -4.2171  -4.0822  -4.0397  -3.9664  -3.8812  -3.7931  -3.5657  -3.3201
    -2.9780  -2.6084  -1.8317  -0.9375  -0.6429  -0.3361  -0.0903   0.0037
     0.0776   0.1160   0.1794   0.2863   0.3614   0.4949   0.7882   0.9568
     1.0731   1.1851   1.2185   1.3812   1.4185   1.4864   1.5657   1.6852
     1.7167   1.8103   1.8402   1.9342   2.0511   2.1174   2.2074   2.3093
     2.3337   2.3716   2.4672   2.5966   2.6061   2.6695   2.7492   2.7864
     2.8473   2.8524   2.9151   2.9778   2.9831   3.0404   3.0671   3.1645
     3.2077   3.2382   3.3109   3.3516   3.3990   3.4546   3.4758   3.5373
     3.5728   3.6138   3.6212   3.7392   3.7714   3.8219   3.8668   3.9872
     3.9956   4.0121   4.0815   4.1054   4.1251   4.1358   4.1509   4.2458
     4.3031   4.3125   4.3188   4.3611   4.3992   4.4640   4.4666   4.5324
     4.5686   4.5979   4.6307   4.6955   4.7301   4.7569   4.7763   4.8010
     4.8404   4.8581   4.8615   4.9319   5.0153   5.0270   5.0681   5.0864
     5.1591   5.1776   5.1785   5.2891   5.3118   5.4148   5.4235   5.4800
     5.4972   5.5177   5.5341   5.5581   5.6025   5.6257   5.6784   5.7119
     5.7213   5.7497   5.7629   5.7746   5.7977   5.8167   5.8208   5.8587
     5.8661   5.9120   5.9529   5.9959   5.9966   6.0606   6.0638   6.0872
     6.0949   6.1445   6.2091   6.2499   6.2947   6.3173   6.3477   6.3559
     6.3973   6.4216   6.4872   6.5198   6.5355   6.5632   6.5663   6.5957
     6.6138   6.6370   6.6753   6.7064   6.7228   6.7581   6.7701   6.7731
     6.8012   6.8073   6.8183   6.8487   6.8626   6.8733   6.9007   6.9097
     6.9216   6.9573   6.9709   6.9967   7.0307   7.0439   7.0489   7.0981
     7.1178   7.1293   7.1363   7.1796   7.2076   7.2488   7.2719   7.2737
     7.2914   7.3199   7.3231   7.3494   7.3640   7.3882   7.4294   7.4676
     7.4761   7.4925   7.5346   7.5562   7.5922   7.6170   7.6841   7.7278
     7.7736   7.7743   7.8196   7.8277   7.8745   7.9083   7.9163   7.9464
     7.9629   7.9833   8.0394   8.0420   8.0443   8.0742   8.1092   8.1240
     8.1352   8.1510   8.1744   8.1811   8.2009   8.2399   8.2416   8.3006
     8.3018   8.3217   8.3302   8.3547   8.3769   8.3901   8.4457   8.4476
[...]
    -5.2455  -5.0814  -5.0778  -4.8660  -4.7581  -4.5297  -4.4861  -4.3231
    -4.2939  -4.1321  -4.0568  -3.9619  -3.8838  -3.8414  -3.5535  -3.1777
    -3.0049  -2.8247  -1.8504  -0.7752  -0.5876  -0.3448  -0.0895   0.0024
     0.0649   0.2118   0.2833   0.3978   0.4324   0.5190   0.5828   0.7124
     0.7511   1.0545   1.2471   1.3066   1.5221   1.5364   1.6164   1.6267
     1.6958   1.8740   1.8966   2.0484   2.1458   2.1736   2.2182   2.2535
     2.3274   2.4438   2.5114   2.5782   2.6207   2.6567   2.7353   2.7380
     2.7853   2.8342   2.9121   2.9408   3.0240   3.0728   3.0843   3.1364
     3.2344   3.2955   3.3039   3.3561   3.3827   3.4070   3.4352   3.6041
     3.6339   3.6392   3.7507   3.7954   3.8119   3.8355   3.9590   4.0136
     4.0310   4.0561   4.0953   4.1124   4.1170   4.1546   4.1738   4.2414
     4.2476   4.2724   4.2866   4.3315   4.3674   4.3733   4.3814   4.4448
     4.4503   4.4764   4.5170   4.5384   4.5601   4.6497   4.8043   4.8143
     4.8360   4.8913   4.9472   4.9752   5.0276   5.0645   5.0743   5.1214
     5.2336   5.2469   5.2852   5.2997   5.3427   5.3835   5.4684   5.4836
     5.4979   5.5020   5.5395   5.5446   5.5869   5.6129   5.6621   5.6733
     5.7187   5.7512   5.7911   5.8208   5.8592   5.8667   5.8947   5.9016
     5.9234   5.9252   5.9583   5.9766   6.0026   6.0138   6.0700   6.0903
     6.1242   6.1605   6.1678   6.2033   6.2323   6.2457   6.2609   6.2861
     6.3006   6.4382   6.4631   6.5136   6.5167   6.5493   6.5633   6.6079
     6.6307   6.6438   6.6605   6.7098   6.7243   6.7584   6.7891   6.7930
     6.8146   6.8345   6.8462   6.8633   6.8826   6.8902   6.9089   6.9394
     6.9396   6.9589   7.0049   7.0250   7.0561   7.0873   7.0913   7.1242
     7.1252   7.1632   7.1685   7.1895   7.1979   7.2129   7.2219   7.2715
     7.3052   7.3253   7.3316   7.3855   7.3922   7.4076   7.4429   7.4745
     7.4771   7.5072   7.5440   7.5680   7.5949   7.6024   7.6616   7.7052
     7.7167   7.7432   7.7866   7.8074   7.8443   7.8537   7.8796   7.9137
     7.9348   7.9561   7.9820   8.0191   8.0568   8.0894   8.1017   8.1305
     8.1629   8.1710   8.1864   8.2034   8.2272   8.2457   8.2615   8.2886
     8.3184   8.3371   8.3680   8.4007   8.4084   8.4365   8.4500   8.4579
     8.5043   8.5192   8.5799   8.5859   8.6122   8.6235   8.6429   8.6839
     8.7022   8.7152   8.7176   8.7445   8.7611   8.8210   8.8280   8.8600
     8.8904   8.9143   8.9321   8.9456   8.9625   8.9895   8.9897   9.0010
     9.0446   9.0521   9.0916   9.1157   9.1288   9.1376   9.1543   9.1761
     9.2077   9.2113   9.2264   9.2513   9.2792   9.2985   9.3054   9.3103
     9.3473   9.3901   9.4218   9.4831   9.4940   9.5277   9.5326   9.5658
     9.5804   9.6210   9.6315   9.6514   9.6642   9.6772   9.6982   9.7178
     9.7310   9.7469   9.7986   9.8253   9.8409   9.8477   9.8814   9.9050
     9.9518   9.9571   9.9823  10.0053  10.0078  10.0593  10.0666  10.1272
    10.1400  10.1447  10.1784  10.2058  10.2286  10.2441  10.2710  10.2997
    10.3089  10.3481  10.3750  10.4210  10.4304  10.4529  10.4559  10.4980
    10.5561  10.5719  10.5820  10.5893  10.6115  10.6238  10.6419  10.6657
    10.6869  10.7272  10.7367  10.7442  10.7511  10.7666  10.8184  10.8236
    10.8488  10.8789  10.9008  10.9127  10.9289  10.9613  10.9734  10.9863
    10.9904  11.0133  11.0302  11.0720

          k = 0.0000 0.0000 0.0270 (103398 PWs)   bands (ev):

   -21.0827 -20.9731 -20.6052 -20.4814 -20.3169 -20.2151 -19.8929 -19.8585
   -19.7946 -19.5452 -19.1282 -19.0249 -18.8961 -18.8612 -18.7626 -18.5789
   -18.3793 -18.2027 -18.1604 -17.8672 -17.6562 -17.6308 -17.4255 -17.2334
   -17.0464 -16.8290 -16.6953 -16.6530 -16.5883 -16.4567 -16.3185 -16.2676
   -16.1672 -16.1186 -15.9875 -15.6260 -15.4553 -15.2774 -14.8321 -14.5633
   -14.4379 -14.0858 -14.0277 -13.9721 -13.9493 -13.8184 -13.6933 -13.6230
   -13.5076 -13.4219 -13.3307 -13.3062 -13.2423 -12.9963 -12.5737 -12.4365
   -12.1685 -11.9538 -11.8285 -11.7140 -11.6367 -11.5319 -11.3970 -11.2228
   -11.1149 -11.0290 -10.9064 -10.6994 -10.6711 -10.5936 -10.5084 -10.4656
   -10.3771 -10.3590 -10.2021 -10.0824  -9.6073  -9.4853  -9.4659  -9.4016
    -9.3546  -9.3139  -9.1768  -9.1381  -9.1318  -9.0886  -9.0290  -9.0191
    -8.9545  -8.8498  -8.7448  -8.5899  -8.5792  -8.5531  -8.4545  -8.4466
    -8.4224  -8.3442  -8.2420  -8.2049  -8.1321  -8.1252  -8.0472  -7.9978
    -7.9548  -7.9018  -7.7720  -7.7701  -7.7310  -7.6850  -7.6468  -7.6325
    -7.5582  -7.5309  -7.3937  -7.3748  -7.3085  -7.2853  -7.1815  -7.0816
    -7.0097  -6.9215  -6.8886  -6.8770  -6.7761  -6.7388  -6.6341  -6.5987
    -6.4551  -6.4540  -6.3375  -6.2877  -6.2351  -6.0377  -6.0211  -5.9435
    -5.8869  -5.8148  -5.7141  -5.5412  -5.4112  -5.3165  -5.2923  -5.2770
    -5.2432  -5.0865  -5.0815  -4.8711  -4.7558  -4.4950  -4.4814  -4.3518
    -4.2996  -4.1325  -4.0490  -3.9541  -3.8834  -3.8535  -3.5529  -3.1691
    -3.0009  -2.8411  -1.8512  -0.7652  -0.5908  -0.3362  -0.1037   0.0030
     0.0642   0.2363   0.2867   0.3865   0.4524   0.5269   0.5781   0.6760
     0.7390   1.0491   1.2557   1.2960   1.5300   1.5415   1.6100   1.6335
     1.6866   1.8762   1.9101   2.0436   2.1644   2.1795   2.2073   2.2503
     2.3093   2.4537   2.5117   2.5994   2.6123   2.6602   2.7160   2.7573
     2.7685   2.8323   2.9167   2.9410   3.0126   3.0679   3.0816   3.1621
     3.2326   3.2766   3.3019   3.3476   3.3892   3.4277   3.4509   3.6088
     3.6290   3.6626   3.7405   3.7847   3.7924   3.8291   3.9620   4.0158
     4.0552   4.0569   4.0957   4.1148   4.1253   4.1510   4.1682   4.2333
     4.2388   4.2884   4.2906   4.3310   4.3552   4.3800   4.3885   4.4219
     4.4355   4.4623   4.5133   4.5469   4.5772   4.6447   4.7802   4.8124
     4.8169   4.8976   4.9426   4.9722   5.0509   5.0839   5.1004   5.1263
     5.2123   5.2328   5.2749   5.3039   5.3539   5.3924   5.4623   5.4897
     5.4898   5.4984   5.5368   5.5446   5.5938   5.6033   5.6661   5.6737
     5.7153   5.7441   5.8029   5.8276   5.8555   5.8699   5.8909   5.9083
     5.9263   5.9432   5.9636   5.9853   5.9973   6.0378   6.0617   6.0878
     6.1169   6.1296   6.1525   6.1997   6.2141   6.2347   6.2849   6.2915
     6.3235   6.4389   6.4672   6.4705   6.5060   6.5530   6.5819   6.6000
     6.6222   6.6594   6.6684   6.7125   6.7277   6.7661   6.7736   6.7967
     6.8121   6.8405   6.8485   6.8628   6.8877   6.8907   6.9081   6.9138
     6.9402   6.9591   7.0002   7.0321   7.0482   7.0874   7.1002   7.1292
     7.1352   7.1637   7.1689   7.1905   7.1945   7.2148   7.2408   7.2859
     7.3005   7.3148   7.3511   7.3787   7.3915   7.4104   7.4463   7.4550
     7.5033   7.5175   7.5359   7.5636   7.5915   7.5949   7.6497   7.6897
     7.7218   7.7436   7.7851   7.8097   7.8343   7.8698   7.8856   7.9027
     7.9374   7.9755   7.9850   8.0133   8.0421   8.0717   8.1068   8.1082
     8.1614   8.1637   8.1817   8.1927   8.2477   8.2511   8.2691   8.2776
     8.3262   8.3411   8.3675   8.3888   8.4042   8.4291   8.4490   8.4616
     8.4973   8.5357   8.5894   8.5958   8.6158   8.6331   8.6483   8.6787
     8.7096   8.7216   8.7458   8.7752   8.7781   8.7985   8.8044   8.8635
     8.8902   8.9134   8.9203   8.9547   8.9571   8.9730   8.9870   9.0167
     9.0466   9.0509   9.0564   9.1121   9.1250   9.1318   9.1701   9.1860
     9.1965   9.2122   9.2164   9.2619   9.2762   9.2939   9.3111   9.3228
     9.3373   9.3647   9.4248   9.4870   9.4894   9.5193   9.5256   9.5699
     9.5757   9.6254   9.6346   9.6645   9.6716   9.6746   9.6972   9.7100
     9.7213   9.7568   9.8110   9.8215   9.8464   9.8588   9.8703   9.9021
     9.9409   9.9510   9.9843   9.9991  10.0002  10.0516  10.0619  10.1115
    10.1387  10.1431  10.2017  10.2324  10.2480  10.2675  10.2721  10.2899
    10.3280  10.3527  10.3587  10.4220  10.4306  10.4441  10.4568  10.5051
    10.5502  10.5719  10.5808  10.5849  10.5951  10.6404  10.6439  10.6619
    10.6706  10.7133  10.7271  10.7426  10.7511  10.7744  10.8052  10.8095
    10.8452  10.8636  10.9062  10.9095  10.9346  10.9592  10.9807  10.9808
    11.0047  11.0194  11.0291  11.0727

          k = 0.0000 0.0000 0.0282 (103420 PWs)   bands (ev):

   -21.0816 -20.9749 -20.6044 -20.4819 -20.3050 -20.2288 -19.8841 -19.8584
   -19.8028 -19.5472 -19.1200 -19.0320 -18.8695 -18.8607 -18.7898 -18.5797
   -18.3679 -18.2106 -18.1641 -17.8677 -17.6538 -17.6313 -17.4280 -17.2360
   -17.0429 -16.7870 -16.7022 -16.6882 -16.5845 -16.4548 -16.3119 -16.2737
   -16.1617 -16.1267 -15.9919 -15.6163 -15.4619 -15.2804 -14.8337 -14.5643
   -14.4394 -14.0828 -14.0268 -13.9595 -13.9259 -13.8161 -13.7310 -13.5861
   -13.5207 -13.4238 -13.3403 -13.3092 -13.2542 -13.0012 -12.5717 -12.4332
   -12.1651 -11.9509 -11.8362 -11.7098 -11.6309 -11.5454 -11.3817 -11.2334
   -11.1117 -11.0251 -10.8665 -10.7293 -10.6669 -10.6093 -10.4972 -10.4678
   -10.3838 -10.3646 -10.1972 -10.0966  -9.5866  -9.4870  -9.4502  -9.4070
    -9.3553  -9.3275  -9.1829  -9.1300  -9.1226  -9.0924  -9.0317  -9.0293
    -8.9560  -8.8482  -8.7449  -8.5890  -8.5771  -8.5601  -8.4495  -8.4477
    -8.4308  -8.3429  -8.2239  -8.2070  -8.1519  -8.1224  -8.0398  -7.9932
    -7.9590  -7.8950  -7.7685  -7.7650  -7.7275  -7.6828  -7.6561  -7.6426
    -7.5569  -7.5349  -7.3847  -7.3774  -7.2980  -7.2706  -7.2078  -7.0786
    -7.0050  -6.9344  -6.8799  -6.8779  -6.7862  -6.7401  -6.6329  -6.5671
    -6.4854  -6.4413  -6.3508  -6.2896  -6.2334  -6.0230  -6.0177  -5.9424
    -5.9029  -5.8182  -5.7140  -5.5423  -5.3991  -5.3243  -5.2891  -5.2769
    -5.2410  -5.0898  -5.0840  -4.8744  -4.7544  -4.4829  -4.4560  -4.3844
    -4.3015  -4.1331  -4.0442  -3.9472  -3.8826  -3.8635  -3.5525  -3.1639
    -2.9973  -2.8522  -1.8517  -0.7587  -0.5933  -0.3299  -0.1132   0.0033
     0.0638   0.2535   0.2944   0.3669   0.4717   0.5388   0.5730   0.6473
     0.7315   1.0458   1.2645   1.2861   1.5349   1.5451   1.6054   1.6393
     1.6794   1.8767   1.9202   2.0396   2.1773   2.1837   2.2006   2.2515
     2.2921   2.4622   2.5116   2.5924   2.6358   2.6627   2.6925   2.7593
     2.7725   2.8272   2.9246   2.9411   2.9994   3.0668   3.0797   3.1876
     3.2304   3.2502   3.3075   3.3402   3.3953   3.4211   3.4917   3.6110
     3.6154   3.6856   3.7212   3.7599   3.8019   3.8256   3.9635   4.0163
     4.0525   4.0801   4.0943   4.1207   4.1210   4.1604   4.1623   4.2199
     4.2311   4.2919   4.3055   4.3373   4.3471   4.3831   4.3965   4.3978
     4.4272   4.4602   4.4916   4.5526   4.6047   4.6533   4.7352   4.8111
     4.8184   4.9023   4.9389   4.9700   5.0614   5.1002   5.1261   5.1439
     5.1873   5.2172   5.2447   5.3229   5.3777   5.3907   5.4375   5.4903
     5.4961   5.5067   5.5337   5.5428   5.5958   5.5962   5.6599   5.6776
     5.7309   5.7413   5.8052   5.8216   5.8340   5.8796   5.8994   5.9104
     5.9283   5.9616   5.9763   5.9787   6.0061   6.0487   6.0696   6.0900
     6.0962   6.1079   6.1467   6.1794   6.1970   6.2289   6.2902   6.3297
     6.3558   6.4245   6.4257   6.4657   6.5081   6.5428   6.5949   6.6107
     6.6172   6.6588   6.6814   6.7144   6.7291   6.7684   6.7722   6.7969
     6.8113   6.8445   6.8499   6.8594   6.8621   6.8972   6.9089   6.9177
     6.9390   6.9595   6.9960   7.0292   7.0418   7.0888   7.1184   7.1340
     7.1434   7.1576   7.1687   7.1924   7.1934   7.2140   7.2494   7.2898
     7.2910   7.3227   7.3609   7.3820   7.3926   7.4087   7.4285   7.4693
     7.4828   7.5232   7.5462   7.5769   7.5898   7.6111   7.6266   7.6799
     7.7168   7.7387   7.7783   7.7967   7.8329   7.8844   7.8976   7.9121
     7.9344   7.9830   7.9869   8.0177   8.0366   8.0587   8.0844   8.1128
     8.1504   8.1600   8.1777   8.1846   8.2449   8.2677   8.2737   8.2927
     8.3334   8.3356   8.3660   8.3801   8.3889   8.4135   8.4498   8.4774
     8.5069   8.5430   8.5772   8.6104   8.6135   8.6375   8.6494   8.6897
     8.7128   8.7290   8.7552   8.7671   8.7953   8.8127   8.8230   8.8587
     8.8845   8.8895   8.9169   8.9216   8.9534   8.9881   8.9881   9.0271
     9.0351   9.0574   9.0663   9.1063   9.1083   9.1292   9.1477   9.1896
     9.2142   9.2147   9.2249   9.2585   9.2704   9.2802   9.3151   9.3229
     9.3432   9.3718   9.4243   9.4721   9.4871   9.5142   9.5157   9.5677
     9.5814   9.6316   9.6346   9.6719   9.6785   9.6854   9.6987   9.7029
     9.7119   9.7610   9.8029   9.8271   9.8492   9.8719   9.8739   9.8907
     9.9304   9.9447   9.9736   9.9992  10.0097  10.0463  10.0626  10.0968
    10.1354  10.1390  10.2110  10.2413  10.2509  10.2884  10.2896  10.3013
    10.3433  10.3548  10.3697  10.3896  10.4172  10.4582  10.4585  10.4975
    10.5239  10.5708  10.5762  10.5945  10.6089  10.6342  10.6534  10.6546
    10.6660  10.7114  10.7121  10.7367  10.7579  10.7809  10.7893  10.8165
    10.8239  10.8629  10.8997  10.9155  10.9389  10.9513  10.9839  10.9971
    11.0083  11.0294  11.0301  11.0672

          k = 0.0000 0.0000-0.0293 (103456 PWs)   bands (ev):

   -21.0813 -20.9756 -20.6042 -20.4820 -20.2998 -20.2346 -19.8807 -19.8584
   -19.8060 -19.5478 -19.1169 -19.0347 -18.8626 -18.8521 -18.8052 -18.5800
   -18.3636 -18.2142 -18.1648 -17.8679 -17.6530 -17.6314 -17.4289 -17.2369
   -17.0417 -16.7557 -16.7287 -16.6932 -16.5831 -16.4542 -16.3088 -16.2765
   -16.1591 -16.1303 -15.9933 -15.6127 -15.4645 -15.2814 -14.8342 -14.5646
   -14.4399 -14.0818 -14.0265 -13.9582 -13.9116 -13.8146 -13.7479 -13.5606
   -13.5385 -13.4240 -13.3435 -13.3096 -13.2588 -13.0029 -12.5711 -12.4321
   -12.1640 -11.9498 -11.8389 -11.7084 -11.6280 -11.5509 -11.3758 -11.2380
   -11.1105 -11.0240 -10.8454 -10.7479 -10.6646 -10.6145 -10.4927 -10.4684
   -10.3873 -10.3660 -10.1948 -10.1020  -9.5784  -9.4891  -9.4442  -9.4089
    -9.3525  -9.3358  -9.1855  -9.1294  -9.1109  -9.0994  -9.0329  -9.0327
    -8.9565  -8.8477  -8.7448  -8.5887  -8.5763  -8.5626  -8.4481  -8.4459
    -8.4354  -8.3425  -8.2150  -8.2077  -8.1613  -8.1214  -8.0372  -7.9913
    -7.9612  -7.8921  -7.7679  -7.7627  -7.7258  -7.6819  -7.6597  -7.6466
    -7.5564  -7.5362  -7.3816  -7.3783  -7.2974  -7.2534  -7.2261  -7.0781
    -7.0017  -6.9403  -6.8806  -6.8737  -6.7902  -6.7405  -6.6327  -6.5469
    -6.5054  -6.4355  -6.3564  -6.2902  -6.2327  -6.0236  -6.0091  -5.9421
    -5.9105  -5.8189  -5.7140  -5.5427  -5.3943  -5.3277  -5.2880  -5.2767
    -5.2401  -5.0909  -5.0848  -4.8755  -4.7539  -4.4819  -4.4288  -4.4112
    -4.3020  -4.1333  -4.0426  -3.9442  -3.8819  -3.8678  -3.5524  -3.1621
    -2.9959  -2.8562  -1.8518  -0.7565  -0.5942  -0.3275  -0.1166   0.0034
     0.0636   0.2589   0.3011   0.3560   0.4790   0.5477   0.5682   0.6355
     0.7289   1.0447   1.2706   1.2796   1.5366   1.5464   1.6037   1.6418
     1.6765   1.8768   1.9239   2.0380   2.1826   2.1845   2.1983   2.2543
     2.2835   2.4656   2.5115   2.5885   2.6585   2.6604   2.6738   2.7565
     2.7788   2.8241   2.9290   2.9412   2.9931   3.0667   3.0791   3.2045
     3.2295   3.2330   3.3101   3.3370   3.3982   3.4180   3.5117   3.6045
     3.6117   3.6983   3.7140   3.7468   3.8076   3.8230   3.9639   4.0163
     4.0511   4.0938   4.0947   4.1103   4.1248   4.1593   4.1690   4.2115
     4.2280   4.2937   4.3105   4.3434   4.3457   4.3829   4.3832   4.4033
     4.4223   4.4687   4.4751   4.5544   4.6120   4.6781   4.7001   4.8111
     4.8189   4.9041   4.9374   4.9692   5.0646   5.1039   5.1430   5.1637
     5.1704   5.2002   5.2342   5.3317   5.3870   5.3955   5.4191   5.4927
     5.4984   5.5101   5.5325   5.5410   5.5931   5.5965   5.6575   5.6772
     5.7406   5.7481   5.7901   5.8170   5.8349   5.8881   5.8908   5.9207
     5.9291   5.9603   5.9689   5.9945   6.0247   6.0329   6.0694   6.0943
     6.0968   6.1015   6.1448   6.1598   6.1960   6.2272   6.2897   6.3682
     6.3767   6.3856   6.4100   6.4649   6.5128   6.5370   6.5931   6.6156
     6.6239   6.6586   6.6817   6.7151   6.7298   6.7713   6.7748   6.7960
     6.8113   6.8444   6.8458   6.8505   6.8618   6.8990   6.9108   6.9208
     6.9376   6.9597   6.9944   7.0270   7.0393   7.0895   7.1297   7.1360
     7.1468   7.1513   7.1686   7.1917   7.1976   7.2133   7.2412   7.2912
     7.2998   7.3288   7.3481   7.3773   7.4073   7.4229   7.4277   7.4413
     7.4836   7.5309   7.5443   7.5893   7.5929   7.6035   7.6407   7.6631
     7.7131   7.7345   7.7661   7.8076   7.8251   7.8919   7.9061   7.9195
     7.9280   7.9812   7.9875   8.0228   8.0369   8.0606   8.0683   8.1145
     8.1442   8.1595   8.1762   8.1809   8.2430   8.2678   8.2857   8.3035
     8.3282   8.3358   8.3641   8.3783   8.3791   8.4095   8.4501   8.4794
     8.5241   8.5450   8.5599   8.6100   8.6209   8.6397   8.6507   8.6944
     8.7146   8.7376   8.7481   8.7527   8.8113   8.8359   8.8446   8.8498
     8.8672   8.8892   8.8894   8.9203   8.9520   8.9884   8.9928   9.0210
     9.0393   9.0611   9.0902   9.0961   9.1022   9.1188   9.1360   9.1918
     9.2146   9.2292   9.2343   9.2464   9.2658   9.2735   9.3209   9.3279
     9.3303   9.3938   9.4201   9.4570   9.4865   9.5124   9.5149   9.5653
     9.5846   9.6339   9.6358   9.6738   9.6820   9.6875   9.6989   9.6993
     9.7166   9.7565   9.7967   9.8382   9.8493   9.8616   9.8805   9.8993
     9.9192   9.9405   9.9715   9.9995  10.0130  10.0472  10.0625  10.0904
    10.1314  10.1395  10.2143  10.2421  10.2470  10.2932  10.2975  10.3249
    10.3358  10.3665  10.3689  10.3950  10.4077  10.4346  10.4649  10.4895
    10.5292  10.5660  10.5824  10.5893  10.6203  10.6330  10.6371  10.6619
    10.6689  10.7037  10.7181  10.7304  10.7631  10.7800  10.7812  10.8143
    10.8333  10.8502  10.9003  10.9175  10.9397  10.9482  10.9851  11.0086
    11.0116  11.0309  11.0339  11.0503

     the Fermi energy is    -1.8109 ev

     Writing output data file AGNR_10_Defect_E.save/

     init_run     :     16.15s CPU     17.71s WALL (       1 calls)
     electrons    :  10307.88s CPU  10416.90s WALL (       1 calls)

     Called by init_run:
     wfcinit      :      0.00s CPU      0.00s WALL (       1 calls)
     potinit      :      1.00s CPU      1.13s WALL (       1 calls)
     hinit0       :     12.41s CPU     12.54s WALL (       1 calls)

     Called by electrons:
     c_bands      :  10307.87s CPU  10416.86s WALL (       1 calls)
     v_of_rho     :      0.77s CPU      0.81s WALL (       1 calls)
     newd         :      0.70s CPU      0.93s WALL (       1 calls)

     Called by c_bands:
     init_us_2    :      1.08s CPU      1.14s WALL (      26 calls)
     cegterg      :  10136.76s CPU  10234.16s WALL (     139 calls)

     Called by sum_band:

     Called by *egterg:
     h_psi        :   2749.39s CPU   2788.05s WALL (    2719 calls)
     s_psi        :    393.65s CPU    396.02s WALL (    2719 calls)
     g_psi        :     13.65s CPU     13.75s WALL (    2554 calls)
     cdiaghg      :   4317.53s CPU   4333.73s WALL (    2580 calls)

     Called by h_psi:
     h_psi:pot    :   2731.51s CPU   2762.81s WALL (    2719 calls)
     h_psi:calbec :    372.50s CPU    377.33s WALL (    2719 calls)
     vloc_psi     :   1964.26s CPU   1988.79s WALL (    2719 calls)
     add_vuspsi   :    394.71s CPU    396.66s WALL (    2719 calls)

     General routines
     calbec       :    372.48s CPU    377.31s WALL (    2719 calls)
     fft          :      0.83s CPU      0.91s WALL (      14 calls)
     ffts         :      0.01s CPU      0.01s WALL (       1 calls)
     fftw         :   1574.51s CPU   1594.40s WALL (  667812 calls)
     interpolate  :      0.05s CPU      0.05s WALL (       1 calls)
     davcio       :      0.00s CPU      8.41s WALL (      52 calls)

     Parallel routines
     fft_scatt_xy :    271.04s CPU    273.42s WALL (  667827 calls)
     fft_scatt_yz :    249.09s CPU    253.22s WALL (  667827 calls)

     PWSCF        :     2h52m CPU       52h 2m WALL

      59h

   This run was terminated on:  20:14:35  16Apr2021            

=------------------------------------------------------------------------------=
   JOB DONE.
=------------------------------------------------------------------------------=
