
     Program PWSCF v.6.3 starts on 16Apr2021 at 17:37:44 

     This program is part of the open-source Quantum ESPRESSO suite
     for quantum simulation of materials; please cite
         "P. Giannozzi et al., J. Phys.:Condens. Matter 21 395502 (2009);
         "P. Giannozzi et al., J. Phys.:Condens. Matter 29 465901 (2017);
          URL http://www.quantum-espresso.org", 
     in publications or presentations arising from this work. More details at
     http://www.quantum-espresso.org/quote

     Parallel version (MPI), running on    16 processors
     R & G space division:  proc/nbgrp/npool/nimage =      16
     Waiting for input...
     Reading input from standard input
     Message from routine read_cards :
     DEPRECATED: no units specified in CELL_PARAMETERS card

     Current dimensions of program PWSCF are:
     Max number of different atomic species (ntypx) = 10
     Max number of k-points (npk) =  40000
     Max angular momentum in pseudopotentials (lmaxx) =  3

     Atomic positions and unit cell read from directory:
     /home/zfwang/scratch/GNRDATASET/AGNR/AGNR_10_Defect_F/AGNR_10_Defect_F.save/


     Subspace diagonalization in iterative solution of the eigenvalue problem:
     a serial algorithm will be used


     Parallelization info
     --------------------
     sticks:   dense  smooth     PW     G-vecs:    dense   smooth      PW
     Min        1795     598    154               268889    51736    6769
     Max        1797     599    155               268893    51739    6771
     Sum       28723    9573   2475              4302255   827793  108323



     bravais-lattice index     =            0
     lattice parameter (alat)  =       1.8897  a.u.
     unit-cell volume          =   24226.2045 (a.u.)^3
     number of atoms/cell      =           96
     number of atomic types    =            2
     number of electrons       =       327.00
     number of Kohn-Sham states=          500
     kinetic-energy cutoff     =      40.0000  Ry
     charge density cutoff     =     480.0000  Ry
     Exchange-correlation      = PBE ( 1  4  3  4 0 0)

     celldm(1)=  18.897261  celldm(2)=   2.106780  celldm(3)=   1.704000
     celldm(4)=   0.000000  celldm(5)=   0.000000  celldm(6)=   0.000000

     crystal axes: (cart. coord. in units of alat)
               a(1) = (  10.000000   0.000000   0.000000 )  
               a(2) = (   0.000000  21.067800   0.000000 )  
               a(3) = (   0.000000   0.000000  17.040000 )  

     reciprocal axes: (cart. coord. in units 2 pi/alat)
               b(1) = (  0.100000  0.000000  0.000000 )  
               b(2) = (  0.000000  0.047466  0.000000 )  
               b(3) = (  0.000000  0.000000  0.058685 )  


     PseudoPot. # 1 for C  read from file:
     /home/zfwang/hp_home/MySoftware/qe-6.3/pseudo/C.pbe-n-rrkjus_psl.0.1.UPF
     MD5 check sum: fff530ed632a789b3b184014e67dd7f1
     Pseudo is Ultrasoft + core correction, Zval =  4.0
     Generated using "atomic" code by A. Dal Corso v.5.0.2 svn rev. 9415
     Using radial grid of 1073 points,  4 beta functions with: 
                l(1) =   0
                l(2) =   0
                l(3) =   1
                l(4) =   1
     Q(r) pseudized with 0 coefficients 


     PseudoPot. # 2 for H  read from file:
     /home/zfwang/hp_home/MySoftware/qe-6.3/pseudo/H.pbe-rrkjus_psl.0.1.UPF
     MD5 check sum: e164a6907b691c6980f16942be34de84
     Pseudo is Ultrasoft, Zval =  1.0
     Generated using "atomic" code by A. Dal Corso v.5.0.2 svn rev. 9415
     Using radial grid of  929 points,  2 beta functions with: 
                l(1) =   0
                l(2) =   0
     Q(r) pseudized with 0 coefficients 


     atomic species   valence    mass     pseudopotential
        C              4.00    12.01070     C ( 1.00)
        H              1.00     1.00794     H ( 1.00)

     No symmetry found



   Cartesian axes

     site n.     atom                  positions (alat units)
         1           C   tau(   1) = (   4.9999986   4.9097923   2.7753511  )
         2           C   tau(   2) = (   4.9999999   4.9254891   7.0635322  )
         3           C   tau(   3) = (   5.0000000   4.9760757  11.3132427  )
         4           C   tau(   4) = (   4.9999979   4.9473342  15.5480018  )
         5           C   tau(   5) = (   4.9999987   6.1130044   3.5175011  )
         6           C   tau(   6) = (   5.0000000   6.1410709   7.7884344  )
         7           C   tau(   7) = (   5.0000001   6.1883843  12.0357170  )
         8           C   tau(   8) = (   4.9999984   6.1480737  16.2878941  )
         9           C   tau(   9) = (   4.9999984   4.9186933   1.4082746  )
        10           C   tau(  10) = (   4.9999994   4.9110038   5.6964827  )
        11           C   tau(  11) = (   5.0000000   4.9697455   9.9510395  )
        12           C   tau(  12) = (   4.9999983   4.9634384  14.1827771  )
        13           C   tau(  13) = (   4.9999985   7.3440185   2.8116080  )
        14           C   tau(  14) = (   5.0000000   7.3593924   7.0788783  )
        15           C   tau(  15) = (   5.0000007   7.4190468  11.3365144  )
        16           C   tau(  16) = (   4.9999991   7.3853914  15.5906528  )
        17           C   tau(  17) = (   4.9999988   8.5770623   3.5226943  )
        18           C   tau(  18) = (   5.0000005   8.6004879   7.7902722  )
        19           C   tau(  19) = (   5.0000009   8.6650254  12.0443778  )
        20           C   tau(  20) = (   4.9999993   8.6158708  16.3058764  )
        21           C   tau(  21) = (   4.9999983   6.1311827   0.6788943  )
        22           C   tau(  22) = (   4.9999991   6.1120480   4.9508694  )
        23           C   tau(  23) = (   5.0000004   6.1732004   9.2171880  )
        24           C   tau(  24) = (   4.9999994   6.1775873  13.4635957  )
        25           C   tau(  25) = (   4.9999983   7.3560427   1.3871953  )
        26           C   tau(  26) = (   4.9999994   7.3434365   5.6533611  )
        27           C   tau(  27) = (   5.0000008   7.4141800   9.9153281  )
        28           C   tau(  28) = (   4.9999996   7.4048808  14.1683514  )
        29           C   tau(  29) = (   4.9999988   9.8086558   2.8040057  )
        30           C   tau(  30) = (   5.0000004   9.8134186   7.0701443  )
        31           C   tau(  31) = (   5.0000013   9.9021981  11.3412117  )
        32           C   tau(  32) = (   5.0000000   9.8578771  15.6051834  )
        33           C   tau(  33) = (   4.9999993  11.0306604   3.5037720  )
        34           C   tau(  34) = (   5.0000009  11.0527145   7.7686884  )
        35           C   tau(  35) = (   5.0000012  11.1382801  12.0614232  )
        36           C   tau(  36) = (   5.0000000  11.0805411  16.3224745  )
        37           C   tau(  37) = (   4.9999987   8.5976131   0.6774958  )
        38           C   tau(  38) = (   4.9999992   8.5712929   4.9356158  )
        39           C   tau(  39) = (   5.0000009   8.6502334   9.2036929  )
        40           C   tau(  40) = (   5.0000005   8.6488541  13.4631219  )
        41           C   tau(  41) = (   4.9999988   9.8250512   1.3895466  )
        42           C   tau(  42) = (   4.9999998   9.8010172   5.6462051  )
        43           C   tau(  43) = (   5.0000014   9.9123385   9.9085650  )
        44           C   tau(  44) = (   5.0000006   9.8765929  14.1827517  )
        45           C   tau(  45) = (   4.9999996  12.2820586   2.8236046  )
        46           C   tau(  46) = (   4.9999999  12.1818621   6.9677789  )
        47           C   tau(  47) = (   5.0000011  12.3810109  11.3760323  )
        48           C   tau(  48) = (   5.0000006  12.3221618  15.6307666  )
        49           C   tau(  49) = (   5.0000000  13.5214099   3.5443502  )
        50           C   tau(  50) = (   5.0000010  13.6192219  12.1152775  )
        51           C   tau(  51) = (   5.0000004  13.5530068  16.3571845  )
        52           C   tau(  52) = (   4.9999994  11.0655466   0.7013963  )
        53           C   tau(  53) = (   4.9999999  11.0079571   4.9095654  )
        54           C   tau(  54) = (   5.0000018  11.1430632   9.2023587  )
        55           C   tau(  55) = (   5.0000010  11.1164850  13.4894012  )
        56           C   tau(  56) = (   4.9999996  12.2933090   1.4214363  )
        57           C   tau(  57) = (   5.0000001  12.2230906   5.6097346  )
        58           C   tau(  58) = (   5.0000022  12.4193291   9.9378929  )
        59           C   tau(  59) = (   5.0000010  12.3389737  14.2189962  )
        60           C   tau(  60) = (   5.0000002  14.7694867   2.8719979  )
        61           C   tau(  61) = (   5.0000005  14.8911526  11.4850519  )
        62           C   tau(  62) = (   5.0000007  14.7912009  15.6799532  )
        63           C   tau(  63) = (   5.0000003  15.9655691   3.6076822  )
        64           C   tau(  64) = (   5.0000001  16.0782505  12.2203209  )
        65           C   tau(  65) = (   5.0000004  15.9931013  16.4118621  )
        66           C   tau(  66) = (   5.0000000  13.5446664   0.7326405  )
        67           C   tau(  67) = (   5.0000000  13.5099246   4.9520710  )
        68           C   tau(  68) = (   5.0000036  13.7060064   9.3914699  )
        69           C   tau(  69) = (   5.0000010  13.5906920  13.5333045  )
        70           C   tau(  70) = (   5.0000002  14.7693878   1.4403689  )
        71           C   tau(  71) = (   5.0000001  14.7224686   5.6499926  )
        72           C   tau(  72) = (   5.0000014  14.9475944  10.0569045  )
        73           C   tau(  73) = (   5.0000008  14.8115113  14.2555137  )
        74           C   tau(  74) = (   5.0000004  15.9822276   0.7337456  )
        75           C   tau(  75) = (   5.0000002  15.9412125   4.9883073  )
        76           C   tau(  76) = (   5.0000008  16.1110997   9.3120343  )
        77           C   tau(  77) = (   5.0000003  16.0441272  13.5813516  )
        78           H   tau(  78) = (   4.9999990   3.9498727   3.2862501  )
        79           H   tau(  79) = (   5.0000003   3.9736425   7.5875928  )
        80           H   tau(  80) = (   4.9999995   4.0228715  11.8336076  )
        81           H   tau(  81) = (   4.9999968   3.9857424  16.0547062  )
        82           H   tau(  82) = (   4.9999987   3.9648766   0.8863671  )
        83           H   tau(  83) = (   4.9999993   3.9491200   5.1895849  )
        84           H   tau(  84) = (   4.9999994   4.0131275   9.4364712  )
        85           H   tau(  85) = (   4.9999978   4.0127964  13.6573752  )
        86           H   tau(  86) = (   5.0000006  16.9268359   3.1016111  )
        87           H   tau(  87) = (   4.9999997  17.0350798  11.7039150  )
        88           H   tau(  88) = (   5.0000003  16.9532295  15.9073076  )
        89           H   tau(  89) = (   5.0000003  16.9304450   1.2628056  )
        90           H   tau(  90) = (   5.0000002  16.8734379   5.5536797  )
        91           H   tau(  91) = (   4.9999995  17.1065840   9.7463796  )
        92           H   tau(  92) = (   5.0000000  16.9811778  14.1280609  )
        93           H   tau(  93) = (   4.9999982  13.1331712   7.4031459  )
        94           H   tau(  94) = (   5.0000084  13.9256390   8.3545706  )
        95           H   tau(  95) = (   4.9999999  14.7476706   6.7330249  )
        96           H   tau(  96) = (   5.0000011  16.0643340   8.2254449  )

     number of k points=    26  Marzari-Vanderbilt smearing, width (Ry)=  0.0100
                       cart. coord. in units 2pi/alat
        k(    1) = (   0.0000000   0.0000000   0.0000000), wk =   0.0400000
        k(    2) = (   0.0000000   0.0000000   0.0011737), wk =   0.0800000
        k(    3) = (   0.0000000   0.0000000   0.0023474), wk =   0.0800000
        k(    4) = (   0.0000000   0.0000000   0.0035211), wk =   0.0800000
        k(    5) = (   0.0000000   0.0000000   0.0046948), wk =   0.0800000
        k(    6) = (   0.0000000   0.0000000   0.0058685), wk =   0.0800000
        k(    7) = (   0.0000000   0.0000000   0.0070423), wk =   0.0800000
        k(    8) = (   0.0000000   0.0000000   0.0082160), wk =   0.0800000
        k(    9) = (   0.0000000   0.0000000   0.0093897), wk =   0.0800000
        k(   10) = (   0.0000000   0.0000000   0.0105634), wk =   0.0800000
        k(   11) = (   0.0000000   0.0000000   0.0117371), wk =   0.0800000
        k(   12) = (   0.0000000   0.0000000   0.0129108), wk =   0.0800000
        k(   13) = (   0.0000000   0.0000000   0.0140845), wk =   0.0800000
        k(   14) = (   0.0000000   0.0000000   0.0152582), wk =   0.0800000
        k(   15) = (   0.0000000   0.0000000   0.0164319), wk =   0.0800000
        k(   16) = (   0.0000000   0.0000000   0.0176056), wk =   0.0800000
        k(   17) = (   0.0000000   0.0000000   0.0187793), wk =   0.0800000
        k(   18) = (   0.0000000   0.0000000   0.0199531), wk =   0.0800000
        k(   19) = (   0.0000000   0.0000000   0.0211268), wk =   0.0800000
        k(   20) = (   0.0000000   0.0000000   0.0223005), wk =   0.0800000
        k(   21) = (   0.0000000   0.0000000   0.0234742), wk =   0.0800000
        k(   22) = (   0.0000000   0.0000000   0.0246479), wk =   0.0800000
        k(   23) = (   0.0000000   0.0000000   0.0258216), wk =   0.0800000
        k(   24) = (   0.0000000   0.0000000   0.0269953), wk =   0.0800000
        k(   25) = (   0.0000000   0.0000000   0.0281690), wk =   0.0800000
        k(   26) = (   0.0000000   0.0000000  -0.0293427), wk =   0.0400000

     Dense  grid:  4302255 G-vectors     FFT dimensions: ( 135, 288, 225)

     Smooth grid:   827793 G-vectors     FFT dimensions: (  80, 162, 135)

     Estimated max dynamical RAM per process >     978.65 MB

     Estimated total dynamical RAM >      15.29 GB

     The potential is recalculated from file :
     /home/zfwang/scratch/GNRDATASET/AGNR/AGNR_10_Defect_F/AGNR_10_Defect_F.save/charge-density.dat


     negative rho (up, down):  1.299E-04 0.000E+00
     Starting wfcs are  327 randomized atomic wfcs +  173 random wfcs

     Band Structure Calculation
     Davidson diagonalization with overlap
     c_bands:  1 eigenvalues not converged
     c_bands:  2 eigenvalues not converged
     c_bands:  1 eigenvalues not converged
     c_bands:  1 eigenvalues not converged
     c_bands:  1 eigenvalues not converged

     ethr =  3.06E-09,  avg # of iterations = 96.6

     total cpu time spent up to now is    10436.7 secs

     End of band structure calculation

          k = 0.0000 0.0000 0.0000 (103407 PWs)   bands (ev):

   -21.1242 -20.7798 -20.7351 -20.5939 -20.3107 -20.1331 -19.9083 -19.6687
   -19.6039 -19.5918 -19.4378 -19.1824 -18.9243 -18.8001 -18.6065 -18.5585
   -18.4464 -18.0785 -17.8114 -17.7675 -17.6832 -17.5104 -17.4952 -17.3919
   -17.3013 -17.0260 -16.9421 -16.6672 -16.4611 -16.3866 -16.2689 -16.1736
   -16.1164 -15.9392 -15.8219 -15.6602 -15.2087 -15.0356 -14.8085 -14.8054
   -14.4116 -14.3760 -14.3145 -14.1048 -14.0775 -14.0565 -13.9727 -13.8715
   -13.5694 -13.0416 -12.9728 -12.9064 -12.8199 -12.7400 -12.6217 -12.3861
   -12.3338 -12.2972 -11.9602 -11.9361 -11.8529 -11.6992 -11.4077 -11.3622
   -11.2789 -11.2193 -10.9551 -10.8218 -10.7491 -10.5916 -10.4097 -10.3424
   -10.3056 -10.1714  -9.9573  -9.8785  -9.7304  -9.6705  -9.6354  -9.5884
    -9.5088  -9.4442  -9.2067  -9.1905  -9.1515  -9.1029  -9.0201  -8.8666
    -8.7789  -8.7721  -8.7432  -8.6597  -8.5791  -8.5240  -8.4511  -8.4350
    -8.4038  -8.3347  -8.2820  -8.2496  -8.2483  -8.2100  -8.1788  -8.0856
    -8.0537  -8.0448  -7.9588  -7.8711  -7.8374  -7.7886  -7.7404  -7.6085
    -7.4730  -7.4649  -7.4431  -7.4385  -7.4185  -7.3600  -7.2295  -7.1636
    -7.0641  -6.9803  -6.9593  -6.9378  -6.9156  -6.7627  -6.6940  -6.6282
    -6.5181  -6.3647  -6.3432  -6.2568  -6.1939  -6.1697  -6.1542  -6.0360
    -5.9031  -5.7929  -5.7705  -5.7356  -5.5118  -5.4433  -5.3618  -5.3203
    -5.1920  -5.1580  -5.1451  -5.0623  -4.9273  -4.9171  -4.6946  -4.5488
    -4.3689  -4.1883  -4.1695  -3.9397  -3.9103  -3.8766  -3.7330  -3.5624
    -3.4282  -2.6527  -2.5105  -1.8815  -1.1386  -0.9674  -0.2899  -0.2479
    -0.0620   0.0165   0.0802   0.1240   0.1916   0.3142   0.5626   0.8689
     0.9838   1.1617   1.2827   1.3374   1.3799   1.4873   1.5322   1.5792
     1.6590   1.6666   1.8142   1.9082   1.9712   1.9927   1.9929   2.0283
     2.0331   2.1129   2.3708   2.5395   2.5689   2.6456   2.6723   2.7859
     2.8953   2.9079   2.9522   3.0453   3.0560   3.0616   3.0961   3.1067
     3.1607   3.2253   3.2536   3.2659   3.3264   3.3911   3.4286   3.4614
     3.4851   3.5354   3.5487   3.5592   3.6539   3.6699   3.6962   3.7045
     3.7930   3.8514   3.8625   3.9885   4.0505   4.0690   4.1112   4.1420
     4.2592   4.2920   4.4202   4.4210   4.4730   4.4941   4.4998   4.5293
     4.5741   4.6188   4.6351   4.6964   4.7643   4.7791   4.8200   4.8629
     4.8704   4.8998   4.9022   4.9308   4.9402   4.9674   4.9758   5.0426
     5.0792   5.1368   5.1528   5.2331   5.2458   5.2605   5.2675   5.2869
     5.3098   5.3278   5.3694   5.4258   5.4263   5.4400   5.4515   5.5179
     5.6625   5.7246   5.7417   5.7801   5.8363   5.8564   5.9027   5.9481
     5.9545   5.9819   5.9964   6.0064   6.0141   6.0295   6.0361   6.0446
     6.0763   6.1663   6.1736   6.2053   6.2235   6.2691   6.2745   6.2750
     6.2867   6.2915   6.3355   6.3562   6.3766   6.4460   6.4611   6.4782
     6.5013   6.5277   6.5707   6.5792   6.5801   6.6291   6.6816   6.6967
     6.7394   6.7789   6.7890   6.8087   6.8271   6.8706   6.8901   6.9200
     6.9359   6.9562   6.9605   7.0048   7.0067   7.0256   7.0317   7.0645
     7.0855   7.0870   7.1414   7.1988   7.2453   7.2702   7.2903   7.2953
     7.3117   7.3221   7.3340   7.3418   7.3484   7.3900   7.4255   7.4315
     7.4317   7.5335   7.5473   7.5679   7.5840   7.6544   7.6671   7.6778
     7.6925   7.6949   7.7142   7.7481   7.7593   7.7763   7.7841   7.7967
     7.7995   7.8061   7.8225   7.8636   7.8981   7.9237   7.9246   8.0011
     8.0197   8.0386   8.0545   8.0828   8.1004   8.1933   8.2385   8.2698
     8.3350   8.3449   8.3695   8.3906   8.4292   8.4660   8.4820   8.4965
     8.5226   8.5452   8.5500   8.5838   8.5931   8.6081   8.6157   8.6343
     8.6407   8.6585   8.7043   8.7392   8.7415   8.7690   8.7786   8.7944
     8.8103   8.8141   8.8453   8.8466   8.8640   8.8985   8.9629   9.0180
     9.0402   9.0783   9.1044   9.1121   9.1570   9.1785   9.1808   9.2274
     9.2434   9.2496   9.2652   9.2664   9.2764   9.3141   9.3350   9.3574
     9.3653   9.3856   9.3869   9.3895   9.4624   9.4635   9.4854   9.4973
     9.5406   9.5586   9.5794   9.5861   9.5914   9.6088   9.6155   9.6618
     9.6782   9.7383   9.8052   9.8115   9.8653   9.8659   9.8843   9.8934
     9.8969   9.9119   9.9332   9.9581   9.9788  10.0185  10.0268  10.0482
    10.0507  10.0579  10.0706  10.0740  10.1237  10.1632  10.1679  10.1820
    10.2322  10.2990  10.3045  10.4118  10.4817  10.4913  10.5096  10.5338
    10.5868  10.5983  10.6310  10.6575  10.6762  10.6762  10.7088  10.7288
    10.7808  10.7883  10.7921  10.8029  10.8129  10.8264  10.8272  10.8404
    10.8520  10.8678  10.8903  10.9055  10.9541  10.9561  10.9744  10.9977
    11.0241  11.0538  11.0735  11.0772

          k = 0.0000 0.0000 0.0012 (103433 PWs)   bands (ev):

   -21.1241 -20.7826 -20.7323 -20.5935 -20.3113 -20.1323 -19.9084 -19.6758
   -19.6055 -19.5838 -19.4371 -19.1826 -18.9241 -18.7997 -18.6090 -18.5571
   -18.4451 -18.0791 -17.8293 -17.7494 -17.6831 -17.5220 -17.4842 -17.3919
   -17.3022 -17.0250 -16.9412 -16.6672 -16.4630 -16.3845 -16.2691 -16.1734
   -16.1163 -15.9415 -15.8213 -15.6610 -15.2086 -15.0387 -14.8068 -14.8037
   -14.4106 -14.3769 -14.3122 -14.1102 -14.0799 -14.0515 -13.9711 -13.8697
   -13.5689 -13.0427 -12.9776 -12.9019 -12.8223 -12.7397 -12.6209 -12.4119
   -12.3389 -12.2651 -11.9625 -11.9349 -11.8520 -11.6985 -11.4142 -11.3580
   -11.2789 -11.2169 -10.9547 -10.8220 -10.7507 -10.5924 -10.4128 -10.3411
   -10.3024 -10.1712  -9.9581  -9.8785  -9.7323  -9.6760  -9.6326  -9.5847
    -9.5069  -9.4435  -9.2178  -9.1904  -9.1475  -9.1013  -9.0179  -8.8629
    -8.7837  -8.7717  -8.7385  -8.6596  -8.5786  -8.5254  -8.4681  -8.4359
    -8.3895  -8.3356  -8.2841  -8.2490  -8.2477  -8.2088  -8.1783  -8.0852
    -8.0524  -8.0438  -7.9613  -7.8687  -7.8361  -7.7886  -7.7404  -7.6082
    -7.4860  -7.4697  -7.4424  -7.4336  -7.4070  -7.3605  -7.2289  -7.1644
    -7.0641  -6.9805  -6.9601  -6.9379  -6.9136  -6.7633  -6.6938  -6.6280
    -6.5176  -6.3663  -6.3455  -6.2558  -6.1972  -6.1693  -6.1528  -6.0330
    -5.9034  -5.7960  -5.7672  -5.7363  -5.5107  -5.4544  -5.3531  -5.3182
    -5.2005  -5.1495  -5.1454  -5.0620  -4.9276  -4.9176  -4.6944  -4.5486
    -4.3693  -4.1883  -4.1689  -3.9391  -3.9104  -3.8766  -3.7353  -3.5622
    -3.4264  -2.6539  -2.5111  -1.8817  -1.1379  -0.9662  -0.2914  -0.2478
    -0.0596   0.0162   0.0796   0.1241   0.1926   0.3146   0.5619   0.8662
     0.9852   1.1619   1.2832   1.3280   1.3885   1.4874   1.5324   1.5771
     1.6430   1.6830   1.8029   1.9185   1.9600   1.9966   2.0043   2.0130
     2.0476   2.1143   2.3706   2.5373   2.5677   2.6495   2.6732   2.7860
     2.8950   2.9011   2.9567   3.0344   3.0517   3.0638   3.0927   3.1224
     3.1600   3.2201   3.2592   3.2665   3.3263   3.3919   3.4160   3.4692
     3.4848   3.5289   3.5346   3.5854   3.6527   3.6724   3.6852   3.7184
     3.7885   3.8566   3.8628   3.9881   4.0389   4.0634   4.1288   4.1417
     4.2577   4.2924   4.4159   4.4202   4.4751   4.4887   4.5030   4.5333
     4.5572   4.6352   4.6380   4.6944   4.7581   4.7805   4.8247   4.8616
     4.8672   4.8923   4.8976   4.9288   4.9311   4.9601   4.9953   5.0524
     5.0847   5.1369   5.1461   5.2167   5.2420   5.2636   5.2791   5.2815
     5.2931   5.3510   5.3732   5.4269   5.4306   5.4408   5.4535   5.5213
     5.6608   5.7260   5.7411   5.7796   5.8334   5.8577   5.9026   5.9470
     5.9514   5.9597   5.9903   5.9909   6.0117   6.0200   6.0616   6.0636
     6.0871   6.1599   6.1785   6.2071   6.2196   6.2399   6.2795   6.2837
     6.2922   6.3031   6.3417   6.3552   6.3775   6.4323   6.4546   6.4757
     6.5135   6.5291   6.5727   6.5810   6.5887   6.6317   6.6809   6.6974
     6.7345   6.7788   6.7919   6.8081   6.8268   6.8666   6.8920   6.9155
     6.9340   6.9491   6.9692   7.0034   7.0049   7.0230   7.0305   7.0684
     7.0855   7.0954   7.1410   7.1999   7.2379   7.2645   7.2899   7.2943
     7.3080   7.3213   7.3302   7.3502   7.3510   7.3857   7.4246   7.4347
     7.4366   7.5340   7.5347   7.5690   7.5931   7.6364   7.6704   7.6742
     7.6888   7.6904   7.7389   7.7405   7.7567   7.7650   7.7905   7.7961
     7.8101   7.8180   7.8271   7.8610   7.8981   7.9279   7.9290   8.0000
     8.0164   8.0368   8.0598   8.0844   8.1050   8.1928   8.2373   8.2646
     8.3283   8.3434   8.3662   8.3897   8.4258   8.4671   8.4747   8.5008
     8.5282   8.5453   8.5535   8.5748   8.5962   8.5979   8.6169   8.6403
     8.6522   8.6646   8.7024   8.7236   8.7423   8.7610   8.7746   8.7890
     8.8006   8.8278   8.8484   8.8548   8.8727   8.9091   8.9590   9.0178
     9.0408   9.0778   9.1040   9.1213   9.1579   9.1669   9.1815   9.2210
     9.2368   9.2503   9.2625   9.2679   9.2762   9.3160   9.3289   9.3460
     9.3621   9.3795   9.3893   9.4174   9.4494   9.4642   9.4893   9.4988
     9.5364   9.5566   9.5701   9.5948   9.6077   9.6144   9.6191   9.6596
     9.6707   9.7409   9.7985   9.8107   9.8647   9.8659   9.8775   9.8920
     9.8967   9.9138   9.9410   9.9632   9.9778  10.0148  10.0306  10.0419
    10.0494  10.0566  10.0726  10.0747  10.1258  10.1700  10.1701  10.1925
    10.2353  10.2941  10.3043  10.4093  10.4817  10.4853  10.5072  10.5329
    10.5745  10.6042  10.6250  10.6553  10.6727  10.6874  10.7098  10.7289
    10.7568  10.7837  10.7981  10.8024  10.8146  10.8224  10.8302  10.8526
    10.8592  10.8692  10.8912  10.9113  10.9451  10.9573  10.9737  11.0002
    11.0203  11.0548  11.0584  11.0752

          k = 0.0000 0.0000 0.0023 (103431 PWs)   bands (ev):

   -21.1238 -20.7897 -20.7253 -20.5925 -20.3128 -20.1299 -19.9086 -19.6924
   -19.6084 -19.5665 -19.4353 -19.1831 -18.9234 -18.7984 -18.6155 -18.5538
   -18.4412 -18.0811 -17.8585 -17.7199 -17.6823 -17.5387 -17.4693 -17.3917
   -17.3047 -17.0223 -16.9383 -16.6670 -16.4684 -16.3789 -16.2698 -16.1731
   -16.1162 -15.9479 -15.8198 -15.6628 -15.2083 -15.0477 -14.8047 -14.7959
   -14.4095 -14.3772 -14.3062 -14.1232 -14.0841 -14.0424 -13.9661 -13.8645
   -13.5674 -13.0463 -12.9888 -12.8920 -12.8287 -12.7392 -12.6186 -12.4616
   -12.3385 -12.2127 -11.9685 -11.9320 -11.8495 -11.6966 -11.4292 -11.3501
   -11.2780 -11.2099 -10.9535 -10.8226 -10.7549 -10.5947 -10.4208 -10.3385
   -10.2934 -10.1699  -9.9605  -9.8787  -9.7381  -9.6881  -9.6259  -9.5762
    -9.5017  -9.4414  -9.2416  -9.1899  -9.1437  -9.0983  -9.0103  -8.8527
    -8.7942  -8.7702  -8.7284  -8.6593  -8.5773  -8.5307  -8.4966  -8.4385
    -8.3704  -8.3383  -8.2851  -8.2509  -8.2453  -8.2052  -8.1767  -8.0839
    -8.0486  -8.0410  -7.9678  -7.8627  -7.8324  -7.7889  -7.7402  -7.6075
    -7.5103  -7.4793  -7.4440  -7.4238  -7.3837  -7.3621  -7.2272  -7.1670
    -7.0641  -6.9825  -6.9606  -6.9381  -6.9082  -6.7652  -6.6930  -6.6273
    -6.5161  -6.3711  -6.3518  -6.2531  -6.2065  -6.1675  -6.1485  -6.0253
    -5.9042  -5.8025  -5.7602  -5.7383  -5.5073  -5.4782  -5.3410  -5.3081
    -5.2153  -5.1465  -5.1342  -5.0609  -4.9284  -4.9190  -4.6939  -4.5479
    -4.3706  -4.1883  -4.1671  -3.9373  -3.9108  -3.8764  -3.7420  -3.5617
    -3.4210  -2.6574  -2.5130  -1.8823  -1.1360  -0.9626  -0.2962  -0.2468
    -0.0527   0.0152   0.0779   0.1241   0.1952   0.3157   0.5597   0.8587
     0.9886   1.1625   1.2828   1.3119   1.4045   1.4880   1.5330   1.5702
     1.6241   1.7031   1.7810   1.9359   1.9426   1.9949   2.0107   2.0231
     2.0624   2.1191   2.3701   2.5306   2.5655   2.6600   2.6760   2.7857
     2.8865   2.8942   2.9650   3.0152   3.0324   3.0700   3.1037   3.1411
     3.1577   3.2109   3.2684   3.2702   3.3265   3.3943   3.3961   3.4571
     3.4904   3.5290   3.5322   3.6138   3.6464   3.6784   3.6815   3.7369
     3.7783   3.8636   3.8692   3.9871   4.0111   4.0618   4.1406   4.1596
     4.2535   4.2935   4.4057   4.4176   4.4753   4.4781   4.5130   4.5271
     4.5470   4.6356   4.6698   4.6888   4.7458   4.7815   4.8350   4.8483
     4.8569   4.8789   4.8917   4.9151   4.9244   4.9604   5.0205   5.0725
     5.0996   5.1290   5.1369   5.1983   5.2299   5.2517   5.2581   5.2851
     5.3142   5.3712   5.3912   5.4300   5.4393   5.4441   5.4623   5.5308
     5.6567   5.7297   5.7394   5.7782   5.8265   5.8589   5.9012   5.9153
     5.9428   5.9433   5.9626   5.9885   6.0093   6.0222   6.0779   6.0958
     6.1099   6.1451   6.1877   6.2116   6.2124   6.2165   6.2760   6.2783
     6.3070   6.3252   6.3515   6.3576   6.3786   6.4147   6.4395   6.4710
     6.5293   6.5379   6.5758   6.5860   6.6048   6.6417   6.6808   6.6988
     6.7243   6.7786   6.7966   6.8061   6.8252   6.8573   6.8961   6.9068
     6.9283   6.9421   6.9680   7.0032   7.0052   7.0196   7.0341   7.0749
     7.0856   7.1126   7.1396   7.2037   7.2163   7.2539   7.2830   7.2923
     7.3062   7.3073   7.3433   7.3516   7.3568   7.3815   7.4220   7.4397
     7.4471   7.5117   7.5380   7.5724   7.5834   7.6170   7.6745   7.6776
     7.6846   7.6962   7.7215   7.7356   7.7587   7.7794   7.7915   7.8122
     7.8160   7.8383   7.8440   7.8601   7.8997   7.9355   7.9421   7.9982
     8.0105   8.0352   8.0710   8.0871   8.1171   8.1915   8.2335   8.2500
     8.3120   8.3410   8.3586   8.3844   8.4161   8.4661   8.4667   8.5022
     8.5407   8.5459   8.5545   8.5636   8.5867   8.6006   8.6317   8.6397
     8.6626   8.6878   8.6902   8.7090   8.7248   8.7483   8.7654   8.7872
     8.7998   8.8401   8.8538   8.8681   8.8781   8.9444   8.9586   9.0172
     9.0402   9.0759   9.1017   9.1382   9.1445   9.1649   9.1827   9.1991
     9.2263   9.2476   9.2502   9.2528   9.2929   9.2979   9.3250   9.3463
     9.3565   9.3875   9.3918   9.4103   9.4657   9.4690   9.4932   9.5091
     9.5270   9.5496   9.5641   9.5961   9.6088   9.6178   9.6449   9.6552
     9.6785   9.7474   9.7793   9.8085   9.8531   9.8656   9.8777   9.8894
     9.9001   9.9181   9.9484   9.9714   9.9750  10.0121  10.0195  10.0360
    10.0416  10.0698  10.0713  10.0854  10.1333  10.1762  10.1899  10.2144
    10.2442  10.2810  10.3040  10.4021  10.4714  10.4817  10.4926  10.5320
    10.5608  10.5987  10.6135  10.6614  10.6631  10.7045  10.7113  10.7216
    10.7397  10.7648  10.7876  10.7979  10.8216  10.8241  10.8341  10.8652
    10.8783  10.8787  10.8939  10.9187  10.9360  10.9603  10.9648  11.0052
    11.0056  11.0466  11.0562  11.0736

          k = 0.0000 0.0000 0.0035 (103427 PWs)   bands (ev):

   -21.1232 -20.7988 -20.7165 -20.5907 -20.3154 -20.1262 -19.9091 -19.7127
   -19.6124 -19.5458 -19.4321 -19.1839 -18.9223 -18.7965 -18.6245 -18.5498
   -18.4350 -18.0849 -17.8877 -17.6954 -17.6765 -17.5544 -17.4561 -17.3913
   -17.3076 -17.0186 -16.9334 -16.6665 -16.4759 -16.3711 -16.2709 -16.1727
   -16.1159 -15.9576 -15.8190 -15.6647 -15.2080 -15.0618 -14.8026 -14.7822
   -14.4125 -14.3715 -14.2982 -14.1390 -14.0892 -14.0346 -13.9572 -13.8565
   -13.5648 -13.0532 -13.0011 -12.8824 -12.8368 -12.7391 -12.6155 -12.5148
   -12.3348 -12.1572 -11.9769 -11.9282 -11.8452 -11.6939 -11.4477 -11.3442
   -11.2747 -11.1993 -10.9518 -10.8242 -10.7612 -10.5978 -10.4310 -10.3368
   -10.2813 -10.1661  -9.9649  -9.8795  -9.7485  -9.6997  -9.6178  -9.5667
    -9.4937  -9.4380  -9.2680  -9.1892  -9.1449  -9.0971  -8.9963  -8.8389
    -8.8065  -8.7671  -8.7167  -8.6588  -8.5749  -8.5472  -8.5177  -8.4430
    -8.3658  -8.3386  -8.2775  -8.2539  -8.2456  -8.1993  -8.1738  -8.0823
    -8.0425  -8.0363  -7.9757  -7.8547  -7.8266  -7.7893  -7.7393  -7.6064
    -7.5369  -7.4897  -7.4476  -7.4131  -7.3643  -7.3578  -7.2243  -7.1711
    -7.0638  -6.9881  -6.9580  -6.9383  -6.9007  -6.7683  -6.6917  -6.6264
    -6.5137  -6.3790  -6.3612  -6.2496  -6.2199  -6.1644  -6.1416  -6.0149
    -5.9059  -5.8090  -5.7522  -5.7421  -5.5052  -5.5018  -5.3378  -5.2903
    -5.2271  -5.1482  -5.1189  -5.0587  -4.9297  -4.9210  -4.6930  -4.5469
    -4.3725  -4.1880  -4.1644  -3.9348  -3.9114  -3.8762  -3.7523  -3.5613
    -3.4123  -2.6631  -2.5161  -1.8832  -1.1327  -0.9567  -0.3047  -0.2438
    -0.0424   0.0138   0.0755   0.1243   0.1993   0.3176   0.5560   0.8481
     0.9928   1.1635   1.2718   1.3054   1.4202   1.4888   1.5339   1.5579
     1.6056   1.7237   1.7612   1.9246   1.9468   1.9770   2.0367   2.0429
     2.0743   2.1282   2.3701   2.5201   2.5644   2.6745   2.6802   2.7836
     2.8715   2.8922   2.9720   2.9919   3.0113   3.0787   3.1183   3.1535
     3.1547   3.2031   3.2713   3.2817   3.3273   3.3793   3.3986   3.4273
     3.4954   3.5286   3.5508   3.6335   3.6346   3.6805   3.7000   3.7562
     3.7670   3.8649   3.8850   3.9805   3.9856   4.0621   4.1385   4.1921
     4.2473   4.2957   4.3932   4.4127   4.4549   4.4794   4.5077   4.5282
     4.5574   4.6357   4.6802   4.6996   4.7344   4.7812   4.8140   4.8364
     4.8557   4.8670   4.8865   4.9044   4.9236   4.9628   5.0437   5.0829
     5.1013   5.1323   5.1347   5.1904   5.2102   5.2351   5.2437   5.2774
     5.3487   5.3806   5.4160   5.4354   5.4454   5.4545   5.4823   5.5444
     5.6522   5.7339   5.7360   5.7761   5.8170   5.8467   5.8744   5.9033
     5.9247   5.9378   5.9417   5.9886   6.0117   6.0233   6.0881   6.1172
     6.1247   6.1376   6.1678   6.2044   6.2174   6.2417   6.2666   6.2667
     6.3245   6.3291   6.3515   6.3761   6.3800   6.4079   6.4333   6.4728
     6.5286   6.5515   6.5870   6.5938   6.6115   6.6567   6.6828   6.7038
     6.7176   6.7782   6.7953   6.8021   6.8216   6.8498   6.8936   6.9043
     6.9191   6.9365   6.9565   7.0044   7.0058   7.0200   7.0451   7.0813
     7.0855   7.1281   7.1400   7.1843   7.2089   7.2434   7.2716   7.2917
     7.2926   7.3089   7.3420   7.3569   7.3612   7.3824   7.4233   7.4379
     7.4584   7.4925   7.5393   7.5403   7.5801   7.6206   7.6696   7.6752
     7.6856   7.7064   7.7088   7.7338   7.7625   7.7876   7.7997   7.8225
     7.8238   7.8471   7.8725   7.8798   7.9040   7.9444   7.9586   7.9993
     8.0076   8.0357   8.0838   8.0897   8.1312   8.1897   8.2272   8.2285
     8.2930   8.3395   8.3484   8.3762   8.4002   8.4572   8.4626   8.5009
     8.5246   8.5509   8.5572   8.5741   8.5839   8.5919   8.6388   8.6502
     8.6705   8.6719   8.6983   8.7099   8.7195   8.7406   8.7567   8.7821
     8.8010   8.8551   8.8631   8.8656   8.8920   8.9611   8.9988   9.0160
     9.0368   9.0705   9.0935   9.1279   9.1427   9.1571   9.1821   9.1964
     9.2107   9.2238   9.2350   9.2491   9.2682   9.3090   9.3265   9.3591
     9.3620   9.3686   9.3837   9.4323   9.4719   9.4746   9.4974   9.5169
     9.5256   9.5467   9.5646   9.5874   9.6041   9.6126   9.6467   9.6541
     9.7352   9.7485   9.7555   9.8052   9.8495   9.8644   9.8793   9.8874
     9.8995   9.9227   9.9516   9.9693   9.9697   9.9939  10.0151  10.0187
    10.0581  10.0710  10.0895  10.1012  10.1481  10.1864  10.2160  10.2307
    10.2568  10.2703  10.3046  10.3914  10.4528  10.4649  10.4812  10.5289
    10.5542  10.5789  10.6079  10.6478  10.6710  10.6893  10.7089  10.7254
    10.7459  10.7477  10.7760  10.7867  10.8237  10.8288  10.8365  10.8700
    10.8876  10.8917  10.9023  10.9060  10.9503  10.9627  10.9635  10.9868
    11.0102  11.0434  11.0533  11.0736

          k = 0.0000 0.0000 0.0047 (103427 PWs)   bands (ev):

   -21.1224 -20.8087 -20.7070 -20.5882 -20.3187 -20.1211 -19.9098 -19.7342
   -19.6175 -19.5242 -19.4278 -19.1846 -18.9208 -18.7941 -18.6347 -18.5460
   -18.4268 -18.0913 -17.9146 -17.6896 -17.6567 -17.5659 -17.4459 -17.3907
   -17.3093 -17.0147 -16.9263 -16.6656 -16.4845 -16.3622 -16.2720 -16.1725
   -16.1155 -15.9698 -15.8203 -15.6655 -15.2080 -15.0799 -14.8004 -14.7633
   -14.4201 -14.3591 -14.2898 -14.1551 -14.0948 -14.0291 -13.9448 -13.8464
   -13.5613 -13.0643 -13.0118 -12.8790 -12.8426 -12.7394 -12.6172 -12.5622
   -12.3296 -12.1020 -11.9862 -11.9237 -11.8390 -11.6906 -11.4680 -11.3425
   -11.2679 -11.1860 -10.9501 -10.8275 -10.7679 -10.6011 -10.4419 -10.3365
   -10.2697 -10.1576  -9.9716  -9.8815  -9.7639  -9.7061  -9.6108  -9.5578
    -9.4848  -9.4334  -9.2919  -9.1882  -9.1503  -9.0981  -8.9782  -8.8253
    -8.8194  -8.7613  -8.7048  -8.6582  -8.5753  -8.5716  -8.5273  -8.4495
    -8.3776  -8.3341  -8.2636  -8.2579  -8.2478  -8.1919  -8.1693  -8.0813
    -8.0347  -8.0302  -7.9826  -7.8461  -7.8197  -7.7899  -7.7371  -7.6052
    -7.5640  -7.4999  -7.4528  -7.4035  -7.3663  -7.3320  -7.2201  -7.1769
    -7.0632  -6.9960  -6.9532  -6.9383  -6.8916  -6.7726  -6.6901  -6.6254
    -6.5107  -6.3898  -6.3724  -6.2458  -6.2353  -6.1603  -6.1325  -6.0042
    -5.9088  -5.8139  -5.7483  -5.7435  -5.5315  -5.4944  -5.3402  -5.2809
    -5.2249  -5.1507  -5.1056  -5.0546  -4.9315  -4.9228  -4.6918  -4.5458
    -4.3751  -4.1874  -4.1609  -3.9320  -3.9119  -3.8760  -3.7650  -3.5614
    -3.4006  -2.6711  -2.5204  -1.8845  -1.1282  -0.9485  -0.3164  -0.2384
    -0.0302   0.0120   0.0729   0.1247   0.2044   0.3204   0.5504   0.8359
     0.9964   1.1649   1.2496   1.3109   1.4320   1.4900   1.5352   1.5412
     1.5875   1.7447   1.7484   1.9068   1.9511   1.9591   2.0632   2.0697
     2.0827   2.1417   2.3714   2.5070   2.5645   2.6853   2.6913   2.7770
     2.8610   2.8879   2.9667   2.9768   2.9924   3.0876   3.1296   3.1481
     3.1639   3.1985   3.2731   3.2926   3.3276   3.3706   3.3948   3.4047
     3.5000   3.5243   3.5787   3.6180   3.6473   3.6877   3.7244   3.7595
     3.7757   3.8666   3.9015   3.9511   3.9835   4.0631   4.1349   4.2238
     4.2403   4.2994   4.3799   4.4039   4.4301   4.4792   4.4956   4.5459
     4.5688   4.6348   4.6701   4.7062   4.7409   4.7745   4.7820   4.8212
     4.8505   4.8628   4.8881   4.9000   4.9285   4.9643   5.0609   5.0652
     5.0916   5.1271   5.1659   5.1894   5.1979   5.2222   5.2338   5.2682
     5.3829   5.3873   5.4286   5.4443   5.4504   5.4791   5.5094   5.5600
     5.6489   5.7303   5.7370   5.7738   5.7978   5.8089   5.8651   5.8984
     5.8999   5.9305   5.9367   5.9903   6.0178   6.0184   6.0930   6.1074
     6.1193   6.1510   6.1586   6.2026   6.2276   6.2448   6.2574   6.2812
     6.3107   6.3483   6.3525   6.3738   6.4057   6.4068   6.4512   6.4773
     6.5273   6.5543   6.5966   6.6036   6.6148   6.6652   6.6825   6.7102
     6.7294   6.7758   6.7850   6.7932   6.8205   6.8500   6.8841   6.9070
     6.9076   6.9339   6.9488   6.9940   7.0068   7.0280   7.0548   7.0851
     7.0882   7.1359   7.1462   7.1512   7.2110   7.2361   7.2589   7.2788
     7.2917   7.3140   7.3308   7.3518   7.3712   7.3841   7.4249   7.4360
     7.4697   7.4772   7.4951   7.5384   7.5907   7.6142   7.6545   7.6745
     7.6815   7.7069   7.7192   7.7476   7.7692   7.7879   7.8201   7.8239
     7.8309   7.8504   7.8917   7.9096   7.9227   7.9550   7.9747   8.0069
     8.0114   8.0382   8.0919   8.0954   8.1413   8.1873   8.2049   8.2194
     8.2773   8.3374   8.3389   8.3629   8.3896   8.4410   8.4529   8.5013
     8.5033   8.5420   8.5583   8.5678   8.5849   8.5936   8.6288   8.6635
     8.6698   8.6845   8.6914   8.7124   8.7303   8.7469   8.7505   8.7807
     8.8033   8.8558   8.8723   8.8763   8.9095   8.9781   9.0136   9.0257
     9.0533   9.0546   9.0844   9.1189   9.1230   9.1420   9.1665   9.1789
     9.2001   9.2154   9.2248   9.2469   9.2733   9.3011   9.3240   9.3574
     9.3738   9.3784   9.3890   9.4323   9.4736   9.4780   9.4978   9.5096
     9.5216   9.5441   9.5742   9.5748   9.6100   9.6148   9.6575   9.6592
     9.7115   9.7628   9.7960   9.8022   9.8513   9.8618   9.8777   9.8873
     9.9011   9.9253   9.9491   9.9561   9.9616   9.9745   9.9927  10.0298
    10.0747  10.0748  10.1073  10.1221  10.1688  10.2009  10.2124  10.2464
    10.2689  10.2880  10.3093  10.3783  10.4280  10.4361  10.4798  10.5204
    10.5519  10.5617  10.5988  10.6268  10.6611  10.6831  10.6978  10.7276
    10.7347  10.7663  10.7666  10.7732  10.8272  10.8276  10.8379  10.8728
    10.8742  10.8904  10.8940  10.9190  10.9576  10.9647  10.9816  10.9863
    11.0158  11.0343  11.0430  11.0683

          k = 0.0000 0.0000 0.0059 (103441 PWs)   bands (ev):

   -21.1214 -20.8191 -20.6974 -20.5848 -20.3226 -20.1149 -19.9108 -19.7558
   -19.6238 -19.5032 -19.4218 -19.1850 -18.9192 -18.7915 -18.6452 -18.5426
   -18.4169 -18.1011 -17.9379 -17.6903 -17.6425 -17.5665 -17.4390 -17.3902
   -17.3079 -17.0114 -16.9172 -16.6640 -16.4935 -16.3530 -16.2730 -16.1728
   -16.1151 -15.9839 -15.8247 -15.6641 -15.2089 -15.1007 -14.7985 -14.7399
   -14.4301 -14.3429 -14.2823 -14.1696 -14.1004 -14.0255 -13.9300 -13.8348
   -13.5567 -13.0793 -13.0201 -12.8857 -12.8442 -12.7388 -12.6469 -12.5796
   -12.3236 -12.0508 -11.9930 -11.9179 -11.8310 -11.6871 -11.4892 -11.3449
   -11.2578 -11.1710 -10.9490 -10.8332 -10.7732 -10.6044 -10.4524 -10.3380
   -10.2615 -10.1426  -9.9806  -9.8856  -9.7818  -9.7067  -9.6078  -9.5489
    -9.4766  -9.4278  -9.3095  -9.1869  -9.1584  -9.0997  -8.9588  -8.8324
    -8.8155  -8.7531  -8.6931  -8.6588  -8.6015  -8.5671  -8.5347  -8.4582
    -8.3948  -8.3296  -8.2626  -8.2576  -8.2439  -8.1836  -8.1630  -8.0813
    -8.0256  -8.0226  -7.9863  -7.8371  -7.8124  -7.7909  -7.7330  -7.6041
    -7.5908  -7.5094  -7.4592  -7.3972  -7.3660  -7.3076  -7.2141  -7.1839
    -7.0631  -7.0040  -6.9477  -6.9376  -6.8811  -6.7779  -6.6882  -6.6247
    -6.5073  -6.4033  -6.3845  -6.2509  -6.2420  -6.1557  -6.1216  -5.9947
    -5.9135  -5.8162  -5.7574  -5.7344  -5.5554  -5.4854  -5.3466  -5.2858
    -5.2062  -5.1538  -5.0953  -5.0480  -4.9338  -4.9238  -4.6903  -4.5447
    -4.3782  -4.1862  -4.1569  -3.9302  -3.9118  -3.8758  -3.7791  -3.5622
    -3.3863  -2.6814  -2.5257  -1.8861  -1.1225  -0.9382  -0.3304  -0.2306
    -0.0182   0.0108   0.0706   0.1258   0.2100   0.3241   0.5429   0.8234
     0.9987   1.1667   1.2239   1.3207   1.4342   1.4915   1.5262   1.5369
     1.5700   1.7435   1.7661   1.8892   1.9415   1.9522   2.0838   2.0889
     2.1039   2.1587   2.3756   2.4927   2.5655   2.6907   2.7096   2.7637
     2.8583   2.8786   2.9445   2.9751   2.9795   3.0931   3.1308   3.1439
     3.1748   3.1975   3.2711   3.3025   3.3247   3.3557   3.3828   3.4125
     3.5047   3.5200   3.6019   3.6078   3.6558   3.6978   3.7328   3.7742
     3.7951   3.8688   3.9087   3.9339   3.9813   4.0645   4.1294   4.2335
     4.2519   4.3062   4.3664   4.3849   4.4108   4.4778   4.4894   4.5634
     4.5796   4.6311   4.6611   4.6937   4.7330   4.7467   4.7935   4.8073
     4.8307   4.8661   4.8918   4.9065   4.9356   4.9636   5.0379   5.0655
     5.0820   5.1162   5.1718   5.2019   5.2092   5.2193   5.2345   5.2587
     5.3911   5.4136   5.4341   5.4559   5.4587   5.5124   5.5395   5.5761
     5.6481   5.7217   5.7348   5.7511   5.7718   5.7929   5.8594   5.8728
     5.8955   5.9222   5.9415   5.9927   6.0036   6.0278   6.0819   6.0963
     6.1048   6.1482   6.1722   6.2081   6.2150   6.2391   6.2563   6.2901
     6.3254   6.3404   6.3761   6.3762   6.4156   6.4364   6.4738   6.4844
     6.5266   6.5550   6.5920   6.6144   6.6167   6.6690   6.6868   6.7138
     6.7412   6.7671   6.7750   6.7939   6.8224   6.8552   6.8771   6.8927
     6.9082   6.9315   6.9500   6.9798   7.0083   7.0323   7.0569   7.0826
     7.0991   7.1067   7.1467   7.1656   7.2070   7.2324   7.2483   7.2632
     7.2922   7.3172   7.3238   7.3401   7.3634   7.3997   7.4071   7.4428
     7.4548   7.4727   7.4812   7.5350   7.5951   7.5974   7.6487   7.6735
     7.6744   7.7027   7.7376   7.7646   7.7798   7.7923   7.8268   7.8390
     7.8451   7.8531   7.9027   7.9154   7.9610   7.9750   7.9862   8.0233
     8.0235   8.0433   8.0920   8.1011   8.1445   8.1821   8.1865   8.2131
     8.2693   8.3225   8.3374   8.3513   8.3868   8.4221   8.4381   8.4810
     8.4962   8.5105   8.5544   8.5664   8.5811   8.6096   8.6108   8.6452
     8.6864   8.6988   8.7039   8.7136   8.7302   8.7571   8.7715   8.7833
     8.8063   8.8488   8.8854   8.8931   8.9270   8.9966   9.0071   9.0131
     9.0330   9.0770   9.0806   9.0997   9.1233   9.1234   9.1342   9.1694
     9.1896   9.2056   9.2285   9.2423   9.2873   9.2992   9.3233   9.3613
     9.3669   9.3954   9.4138   9.4171   9.4477   9.4770   9.4994   9.5079
     9.5272   9.5352   9.5611   9.5886   9.6029   9.6409   9.6666   9.6677
     9.6948   9.7658   9.8017   9.8327   9.8558   9.8579   9.8872   9.8885
     9.9071   9.9175   9.9415   9.9430   9.9547   9.9601   9.9778  10.0394
    10.0791  10.0866  10.1253  10.1454  10.1803  10.1888  10.2206  10.2746
    10.2755  10.3176  10.3229  10.3604  10.3998  10.4164  10.4772  10.5078
    10.5420  10.5589  10.5814  10.6005  10.6429  10.6813  10.6875  10.7205
    10.7291  10.7580  10.7610  10.7853  10.8207  10.8311  10.8381  10.8515
    10.8759  10.8823  10.8926  10.9347  10.9532  10.9630  10.9866  11.0108
    11.0198  11.0289  11.0330  11.0500

          k = 0.0000 0.0000 0.0070 (103457 PWs)   bands (ev):

   -21.1202 -20.8295 -20.6881 -20.5806 -20.3269 -20.1079 -19.9124 -19.7770
   -19.6309 -19.4841 -19.4137 -19.1849 -18.9174 -18.7893 -18.6554 -18.5396
   -18.4058 -18.1152 -17.9564 -17.6932 -17.6432 -17.5531 -17.4343 -17.3902
   -17.3024 -17.0090 -16.9065 -16.6615 -16.5026 -16.3444 -16.2735 -16.1739
   -16.1146 -15.9996 -15.8321 -15.6598 -15.2113 -15.1225 -14.7969 -14.7124
   -14.4411 -14.3255 -14.2773 -14.1799 -14.1051 -14.0230 -13.9138 -13.8222
   -13.5512 -13.0970 -13.0269 -12.8987 -12.8466 -12.7363 -12.6970 -12.5742
   -12.3173 -12.0254 -11.9771 -11.9092 -11.8213 -11.6836 -11.5108 -11.3503
   -11.2454 -11.1550 -10.9495 -10.8408 -10.7757 -10.6079 -10.4620 -10.3415
   -10.2571 -10.1216  -9.9918  -9.8935  -9.7983  -9.7031  -9.6116  -9.5394
    -9.4706  -9.4211  -9.3186  -9.1853  -9.1675  -9.1010  -8.9402  -8.8455
    -8.8111  -8.7470  -8.6821  -8.6654  -8.6136  -8.5614  -8.5425  -8.4693
    -8.4123  -8.3261  -8.2678  -8.2621  -8.2349  -8.1750  -8.1555  -8.0818
    -8.0159  -8.0139  -7.9858  -7.8283  -7.8050  -7.7924  -7.7265  -7.6170
    -7.6035  -7.5179  -7.4667  -7.3963  -7.3613  -7.2861  -7.2052  -7.1921
    -7.0647  -7.0102  -6.9425  -6.9361  -6.8693  -6.7839  -6.6861  -6.6245
    -6.5042  -6.4194  -6.3966  -6.2654  -6.2383  -6.1510  -6.1094  -5.9875
    -5.9199  -5.8155  -5.7703  -5.7245  -5.5757  -5.4750  -5.3575  -5.2935
    -5.1834  -5.1576  -5.0876  -5.0391  -4.9366  -4.9227  -4.6886  -4.5438
    -4.3815  -4.1843  -4.1524  -3.9305  -3.9103  -3.8761  -3.7931  -3.5634
    -3.3701  -2.6937  -2.5320  -1.8880  -1.1158  -0.9258  -0.3460  -0.2209
    -0.0102   0.0125   0.0693   0.1279   0.2157   0.3289   0.5332   0.8114
     0.9991   1.1689   1.1967   1.3328   1.4197   1.4931   1.5223   1.5385
     1.5535   1.7449   1.7879   1.8721   1.9241   1.9517   2.0929   2.1056
     2.1353   2.1779   2.3843   2.4779   2.5672   2.6952   2.7288   2.7455
     2.8612   2.8632   2.9289   2.9593   2.9805   3.0916   3.1208   3.1440
     3.1896   3.1994   3.2638   3.3119   3.3211   3.3245   3.3998   3.4210
     3.5097   3.5170   3.5859   3.6351   3.6635   3.7099   3.7273   3.8054
     3.8134   3.8719   3.8907   3.9469   3.9789   4.0663   4.1215   4.2282
     4.2720   4.3178   4.3527   4.3571   4.4005   4.4750   4.4872   4.5763
     4.5886   4.6243   4.6567   4.6789   4.6918   4.7336   4.7953   4.8097
     4.8166   4.8718   4.8928   4.9228   4.9387   4.9600   5.0148   5.0515
     5.0721   5.1071   5.1611   5.1953   5.2343   5.2368   5.2520   5.2581
     5.3923   5.4343   5.4380   5.4701   5.4766   5.5478   5.5703   5.5913
     5.6501   5.6921   5.7101   5.7397   5.7703   5.7759   5.8498   5.8547
     5.8923   5.9158   5.9489   5.9828   5.9959   6.0375   6.0523   6.0856
     6.1030   6.1394   6.1777   6.1906   6.2072   6.2393   6.2752   6.2788
     6.3361   6.3563   6.3849   6.3997   6.4341   6.4676   6.4855   6.4986
     6.5279   6.5562   6.5864   6.6100   6.6255   6.6707   6.6862   6.7145
     6.7320   6.7718   6.7740   6.8050   6.8255   6.8624   6.8749   6.8772
     6.9065   6.9275   6.9546   6.9675   7.0100   7.0322   7.0551   7.0569
     7.0885   7.1124   7.1611   7.1785   7.2013   7.2228   7.2452   7.2487
     7.2931   7.3082   7.3200   7.3269   7.3581   7.3907   7.4018   7.4172
     7.4582   7.4684   7.4932   7.5380   7.5761   7.5885   7.6534   7.6689
     7.6696   7.6966   7.7547   7.7829   7.7858   7.8025   7.8377   7.8386
     7.8673   7.8712   7.9111   7.9219   7.9760   7.9920   8.0124   8.0410
     8.0442   8.0579   8.0872   8.0950   8.1438   8.1747   8.1823   8.2067
     8.2683   8.3043   8.3326   8.3505   8.3845   8.4052   8.4235   8.4532
     8.4633   8.5022   8.5503   8.5602   8.5740   8.5879   8.6247   8.6284
     8.6877   8.7006   8.7201   8.7291   8.7516   8.7701   8.7885   8.7930
     8.8097   8.8451   8.8961   8.9115   8.9401   8.9844   8.9898   9.0137
     9.0215   9.0508   9.0710   9.0787   9.1023   9.1255   9.1548   9.1740
     9.1850   9.2048   9.2297   9.2332   9.2750   9.2993   9.3464   9.3579
     9.3705   9.3963   9.4017   9.4259   9.4266   9.4792   9.5016   9.5114
     9.5249   9.5394   9.5490   9.5952   9.5995   9.6342   9.6726   9.6877
     9.7243   9.7622   9.8033   9.8245   9.8542   9.8648   9.8873   9.8977
     9.9000   9.9266   9.9350   9.9380   9.9455   9.9622   9.9743  10.0479
    10.0810  10.0933  10.1427  10.1459  10.1669  10.2029  10.2411  10.2760
    10.3037  10.3354  10.3439  10.3492  10.3791  10.4068  10.4737  10.4946
    10.5305  10.5548  10.5642  10.5708  10.6296  10.6654  10.6819  10.7115
    10.7233  10.7443  10.7587  10.7879  10.8110  10.8329  10.8358  10.8445
    10.8693  10.8846  10.8943  10.9466  10.9480  10.9611  10.9731  11.0085
    11.0089  11.0357  11.0409  11.0533

          k = 0.0000 0.0000 0.0082 (103435 PWs)   bands (ev):

   -21.1187 -20.8399 -20.6794 -20.5754 -20.3315 -20.1001 -19.9148 -19.7972
   -19.6389 -19.4684 -19.4025 -19.1837 -18.9156 -18.7879 -18.6645 -18.5368
   -18.3938 -18.1337 -17.9700 -17.6990 -17.6510 -17.5354 -17.4290 -17.3900
   -17.2927 -17.0078 -16.8947 -16.6580 -16.5111 -16.3370 -16.2731 -16.1761
   -16.1141 -16.0172 -15.8416 -15.6529 -15.2170 -15.1433 -14.7957 -14.6814
   -14.4526 -14.3100 -14.2768 -14.1826 -14.1083 -14.0210 -13.8971 -13.8092
   -13.5447 -13.1161 -13.0332 -12.9145 -12.8539 -12.7570 -12.7235 -12.5639
   -12.3112 -12.0300 -11.9402 -11.8912 -11.8098 -11.6802 -11.5325 -11.3576
   -11.2322 -11.1386 -10.9526 -10.8484 -10.7754 -10.6118 -10.4699 -10.3469
   -10.2554 -10.0971 -10.0048  -9.9066  -9.8100  -9.6972  -9.6231  -9.5294
    -9.4668  -9.4122  -9.3196  -9.1835  -9.1758  -9.1015  -8.9239  -8.8584
    -8.8113  -8.7512  -8.6759  -8.6720  -8.6073  -8.5545  -8.5512  -8.4824
    -8.4277  -8.3237  -8.2733  -8.2674  -8.2297  -8.1681  -8.1486  -8.0803
    -8.0057  -8.0043  -7.9809  -7.8206  -7.7962  -7.7946  -7.7181  -7.6422
    -7.6035  -7.5249  -7.4752  -7.3998  -7.3534  -7.2694  -7.2012  -7.1924
    -7.0693  -7.0126  -6.9382  -6.9333  -6.8568  -6.7901  -6.6840  -6.6253
    -6.5021  -6.4378  -6.4078  -6.2782  -6.2345  -6.1468  -6.0962  -5.9832
    -5.9278  -5.8119  -5.7874  -5.7134  -5.5917  -5.4635  -5.3726  -5.2994
    -5.1638  -5.1621  -5.0811  -5.0279  -4.9398  -4.9188  -4.6866  -4.5431
    -4.3851  -4.1818  -4.1475  -3.9337  -3.9079  -3.8776  -3.8053  -3.5649
    -3.3525  -2.7080  -2.5393  -1.8901  -1.1081  -0.9115  -0.3624  -0.2094
    -0.0088   0.0188   0.0694   0.1317   0.2214   0.3346   0.5215   0.8005
     0.9976   1.1685   1.1714   1.3449   1.3917   1.4946   1.5296   1.5348
     1.5437   1.7507   1.8099   1.8554   1.9071   1.9504   2.0969   2.1272
     2.1616   2.1985   2.3993   2.4629   2.5694   2.6945   2.7286   2.7486
     2.8362   2.8732   2.9191   2.9457   2.9798   3.0839   3.1039   3.1479
     3.2035   3.2048   3.2504   3.2964   3.3196   3.3211   3.4231   3.4287
     3.5152   3.5169   3.5701   3.6514   3.6780   3.7227   3.7234   3.8289
     3.8294   3.8772   3.8813   3.9664   3.9769   4.0685   4.1114   4.2248
     4.2828   4.3153   4.3389   4.3451   4.3958   4.4703   4.4879   4.5758
     4.5950   4.6170   4.6557   4.6585   4.6638   4.7144   4.7884   4.7901
     4.8279   4.8823   4.8998   4.9287   4.9391   4.9561   5.0047   5.0265
     5.0658   5.0948   5.1595   5.1828   5.2268   5.2638   5.2751   5.2908
     5.3925   5.4418   5.4442   5.4862   5.5045   5.5828   5.5993   5.6050
     5.6367   5.6585   5.6971   5.7349   5.7567   5.7693   5.8303   5.8531
     5.8904   5.9113   5.9555   5.9591   5.9987   6.0197   6.0474   6.0735
     6.0994   6.1202   6.1755   6.1789   6.2068   6.2235   6.2754   6.3063
     6.3450   6.3674   6.4021   6.4235   6.4532   6.4923   6.4990   6.5062
     6.5359   6.5573   6.5896   6.6022   6.6363   6.6599   6.6759   6.7048
     6.7415   6.7756   6.7851   6.8142   6.8295   6.8618   6.8686   6.8786
     6.9045   6.9235   6.9390   6.9784   7.0071   7.0191   7.0297   7.0547
     7.0859   7.1239   7.1718   7.1859   7.2019   7.2121   7.2242   7.2547
     7.2919   7.2957   7.3007   7.3241   7.3612   7.3615   7.3808   7.4343
     7.4413   7.4700   7.5062   7.5501   7.5537   7.5824   7.6493   7.6595
     7.6728   7.6963   7.7655   7.7861   7.8036   7.8130   7.8353   7.8500
     7.8897   7.8998   7.9249   7.9296   7.9857   7.9944   8.0364   8.0575
     8.0620   8.0745   8.0775   8.1015   8.1435   8.1698   8.1928   8.1982
     8.2618   8.2971   8.3232   8.3549   8.3710   8.3936   8.4072   8.4229
     8.4478   8.4880   8.5421   8.5476   8.5562   8.5735   8.6146   8.6437
     8.6753   8.7150   8.7296   8.7565   8.7647   8.7822   8.7984   8.8113
     8.8145   8.8503   8.9009   8.9244   8.9384   8.9515   8.9737   9.0017
     9.0176   9.0325   9.0563   9.0774   9.0935   9.1283   9.1523   9.1676
     9.2029   9.2186   9.2230   9.2423   9.2671   9.2919   9.3338   9.3480
     9.3554   9.3998   9.4122   9.4187   9.4452   9.4821   9.5012   9.5235
     9.5235   9.5406   9.5417   9.5822   9.5901   9.6580   9.6756   9.7056
     9.7539   9.7676   9.7999   9.8102   9.8500   9.8655   9.8697   9.8946
     9.8966   9.9221   9.9240   9.9405   9.9477   9.9766   9.9943  10.0601
    10.0705  10.0992  10.1224  10.1575  10.1850  10.2108  10.2396  10.2895
    10.3191  10.3293  10.3591  10.3640  10.3805  10.4097  10.4696  10.4837
    10.5147  10.5372  10.5404  10.5667  10.6129  10.6522  10.6708  10.7054
    10.7156  10.7241  10.7578  10.7741  10.8115  10.8262  10.8346  10.8495
    10.8615  10.8865  10.8996  10.9335  10.9523  10.9625  10.9653  10.9912
    10.9951  11.0310  11.0530  11.0736

          k = 0.0000 0.0000 0.0094 (103429 PWs)   bands (ev):

   -21.1171 -20.8502 -20.6712 -20.5691 -20.3362 -20.0918 -19.9184 -19.8158
   -19.6475 -19.4571 -19.3874 -19.1813 -18.9138 -18.7880 -18.6720 -18.5341
   -18.3812 -18.1559 -17.9793 -17.7086 -17.6587 -17.5233 -17.4213 -17.3865
   -17.2799 -17.0077 -16.8824 -16.6536 -16.5187 -16.3316 -16.2713 -16.1793
   -16.1135 -16.0368 -15.8517 -15.6441 -15.2282 -15.1599 -14.7949 -14.6475
   -14.4642 -14.2992 -14.2815 -14.1749 -14.1093 -14.0190 -13.8803 -13.7959
   -13.5373 -13.1360 -13.0399 -12.9319 -12.8666 -12.8095 -12.7148 -12.5521
   -12.3057 -12.0387 -11.9185 -11.8552 -11.7950 -11.6766 -11.5539 -11.3660
   -11.2195 -11.1224 -10.9588 -10.8541 -10.7728 -10.6165 -10.4758 -10.3540
   -10.2553 -10.0737 -10.0172  -9.9240  -9.8159  -9.6918  -9.6395  -9.5198
    -9.4636  -9.4005  -9.3158  -9.1818  -9.1814  -9.1009  -8.9113  -8.8711
    -8.8156  -8.7671  -8.6817  -8.6628  -8.5927  -8.5605  -8.5462  -8.4953
    -8.4398  -8.3230  -8.2789  -8.2719  -8.2275  -8.1667  -8.1425  -8.0749
    -7.9949  -7.9940  -7.9730  -7.8151  -7.7979  -7.7843  -7.7086  -7.6659
    -7.6044  -7.5304  -7.4845  -7.4053  -7.3445  -7.2581  -7.2110  -7.1750
    -7.0771  -7.0109  -6.9351  -6.9290  -6.8452  -6.7951  -6.6819  -6.6274
    -6.5020  -6.4578  -6.4170  -6.2889  -6.2306  -6.1436  -6.0825  -5.9819
    -5.9360  -5.8082  -5.8064  -5.7011  -5.6035  -5.4512  -5.3906  -5.3031
    -5.1672  -5.1506  -5.0755  -5.0135  -4.9436  -4.9114  -4.6845  -4.5427
    -4.3888  -4.1786  -4.1425  -3.9396  -3.9053  -3.8813  -3.8138  -3.5664
    -3.3337  -2.7241  -2.5474  -1.8924  -1.0996  -0.8955  -0.3793  -0.1968
    -0.0111   0.0255   0.0711   0.1381   0.2269   0.3413   0.5078   0.7908
     0.9940   1.1396   1.1744   1.3423   1.3722   1.4947   1.5220   1.5422
     1.5455   1.7593   1.8302   1.8412   1.8904   1.9488   2.1006   2.1492
     2.1814   2.2200   2.4212   2.4479   2.5721   2.6800   2.7234   2.7686
     2.8072   2.8868   2.9100   2.9359   2.9777   3.0732   3.0830   3.1530
     3.2090   3.2139   3.2320   3.2781   3.3208   3.3304   3.4345   3.4471
     3.5208   3.5220   3.5552   3.6532   3.7004   3.7218   3.7377   3.8282
     3.8387   3.8873   3.9038   3.9753   3.9872   4.0710   4.0995   4.2235
     4.2811   4.2936   4.3252   4.3517   4.4019   4.4627   4.4913   4.5592
     4.5949   4.5973   4.6414   4.6482   4.6670   4.6964   4.7678   4.7862
     4.8308   4.8839   4.9046   4.9175   4.9422   4.9674   4.9997   5.0077
     5.0655   5.0802   5.1559   5.1786   5.2142   5.2925   5.2963   5.3313
     5.3941   5.4460   5.4503   5.5031   5.5341   5.5836   5.6131   5.6213
     5.6221   5.6646   5.6880   5.7276   5.7382   5.7682   5.8147   5.8548
     5.8891   5.9067   5.9366   5.9575   5.9828   6.0103   6.0460   6.0601
     6.0876   6.1107   6.1628   6.1742   6.2013   6.2169   6.2747   6.3411
     6.3592   6.3728   6.4177   6.4477   6.4604   6.4883   6.5106   6.5290
     6.5536   6.5624   6.5847   6.6101   6.6399   6.6465   6.6644   6.7098
     6.7484   6.7764   6.8031   6.8200   6.8327   6.8476   6.8700   6.8849
     6.9065   6.9141   6.9272   6.9674   6.9923   7.0171   7.0266   7.0600
     7.0832   7.1311   7.1714   7.1891   7.1955   7.1997   7.2230   7.2577
     7.2591   7.2917   7.3072   7.3234   7.3287   7.3669   7.3702   7.4218
     7.4491   7.4680   7.5190   7.5314   7.5534   7.5919   7.6408   7.6463
     7.6739   7.7059   7.7700   7.7835   7.8187   7.8189   7.8340   7.8654
     7.9125   7.9272   7.9410   7.9473   7.9920   7.9954   8.0460   8.0541
     8.0584   8.0763   8.0995   8.1424   8.1443   8.1681   8.1901   8.2120
     8.2478   8.3008   8.3109   8.3321   8.3623   8.3838   8.3867   8.4267
     8.4345   8.4674   8.5182   8.5305   8.5471   8.5622   8.6169   8.6563
     8.6662   8.7301   8.7340   8.7715   8.7816   8.7840   8.8052   8.8257
     8.8268   8.8613   8.8911   8.9051   8.9177   8.9441   8.9759   8.9796
     9.0157   9.0261   9.0571   9.0765   9.1003   9.1315   9.1416   9.1570
     9.2006   9.2161   9.2243   9.2624   9.2656   9.2922   9.3070   9.3357
     9.3376   9.4006   9.4136   9.4440   9.4695   9.4732   9.4962   9.5242
     9.5244   9.5392   9.5586   9.5751   9.5894   9.6756   9.6887   9.7230
     9.7431   9.7831   9.7873   9.8223   9.8336   9.8590   9.8610   9.8880
     9.8981   9.9135   9.9179   9.9391   9.9586   9.9805  10.0111  10.0408
    10.0715  10.1196  10.1205  10.1676  10.2004  10.2114  10.2237  10.2944
    10.3280  10.3496  10.3514  10.3710  10.4091  10.4193  10.4668  10.4703
    10.4959  10.5130  10.5364  10.5682  10.5916  10.6422  10.6623  10.6940
    10.7025  10.7048  10.7568  10.7670  10.8091  10.8135  10.8341  10.8526
    10.8607  10.8836  10.9051  10.9091  10.9532  10.9618  10.9635  10.9852
    10.9862  11.0287  11.0650  11.0811

          k = 0.0000 0.0000 0.0106 (103431 PWs)   bands (ev):

   -21.1153 -20.8603 -20.6639 -20.5620 -20.3408 -20.0833 -19.9237 -19.8322
   -19.6567 -19.4501 -19.3692 -19.1772 -18.9121 -18.7901 -18.6774 -18.5314
   -18.3685 -18.1804 -17.9856 -17.7220 -17.6638 -17.5203 -17.4153 -17.3731
   -17.2652 -17.0084 -16.8701 -16.6487 -16.5248 -16.3286 -16.2679 -16.1837
   -16.1131 -16.0585 -15.8611 -15.6341 -15.2462 -15.1707 -14.7945 -14.6113
   -14.4757 -14.2984 -14.2861 -14.1575 -14.1077 -14.0166 -13.8640 -13.7825
   -13.5290 -13.1562 -13.0478 -12.9510 -12.8870 -12.8575 -12.7030 -12.5400
   -12.3012 -12.0464 -11.9067 -11.8181 -11.7708 -11.6724 -11.5746 -11.3750
   -11.2089 -11.1068 -10.9670 -10.8571 -10.7684 -10.6222 -10.4793 -10.3623
   -10.2562 -10.0638 -10.0212  -9.9411  -9.8172  -9.6948  -9.6514  -9.5112
    -9.4597  -9.3863  -9.3104  -9.1843  -9.1790  -9.0987  -8.9047  -8.8835
    -8.8246  -8.7856  -8.6850  -8.6547  -8.5851  -8.5660  -8.5368  -8.5019
    -8.4484  -8.3239  -8.2843  -8.2755  -8.2260  -8.1731  -8.1354  -8.0667
    -7.9834  -7.9832  -7.9632  -7.8110  -7.8028  -7.7689  -7.6988  -7.6875
    -7.6061  -7.5340  -7.4945  -7.4117  -7.3359  -7.2516  -7.2214  -7.1542
    -7.0869  -7.0060  -6.9332  -6.9227  -6.8383  -6.7949  -6.6799  -6.6312
    -6.5051  -6.4789  -6.4232  -6.2971  -6.2265  -6.1417  -6.0685  -5.9839
    -5.9433  -5.8319  -5.8000  -5.6872  -5.6119  -5.4382  -5.4102  -5.3054
    -5.1730  -5.1445  -5.0720  -4.9945  -4.9477  -4.9007  -4.6822  -4.5423
    -4.3924  -4.1751  -4.1373  -3.9485  -3.9032  -3.8875  -3.8175  -3.5673
    -3.3142  -2.7419  -2.5563  -1.8949  -1.0903  -0.8780  -0.3962  -0.1835
    -0.0142   0.0300   0.0738   0.1478   0.2321   0.3488   0.4927   0.7823
     0.9883   1.1102   1.1778   1.3078   1.3824   1.4901   1.5137   1.5486
     1.5569   1.7695   1.8215   1.8566   1.8741   1.9471   2.1044   2.1715
     2.1953   2.2421   2.4333   2.4492   2.5752   2.6563   2.7265   2.7744
     2.7906   2.8990   2.9028   2.9306   2.9741   3.0602   3.0614   3.1582
     3.1946   3.2148   3.2267   3.2740   3.3245   3.3396   3.4381   3.4673
     3.5268   3.5320   3.5438   3.6495   3.7108   3.7324   3.7524   3.8234
     3.8420   3.9028   3.9406   3.9745   4.0087   4.0740   4.0866   4.2239
     4.2512   4.2954   4.3114   4.3489   4.4187   4.4511   4.4973   4.5311
     4.5645   4.5944   4.6324   4.6386   4.6808   4.6834   4.7505   4.7829
     4.8303   4.8741   4.8779   4.9179   4.9490   4.9721   4.9984   5.0155
     5.0675   5.0723   5.1442   5.1824   5.2040   5.3148   5.3202   5.3721
     5.4002   5.4514   5.4558   5.5119   5.5411   5.5603   5.6255   5.6265
     5.6472   5.6695   5.6940   5.7203   5.7263   5.7663   5.8042   5.8582
     5.8872   5.8932   5.9254   5.9455   5.9618   6.0147   6.0313   6.0462
     6.0815   6.1105   6.1461   6.1686   6.1832   6.2323   6.2735   6.3702
     6.3767   6.3821   6.4238   6.4557   6.4721   6.4821   6.5129   6.5496
     6.5550   6.5686   6.5963   6.6066   6.6502   6.6573   6.6577   6.7194
     6.7555   6.7752   6.8082   6.8313   6.8356   6.8375   6.8655   6.8920
     6.8997   6.9141   6.9238   6.9258   6.9970   7.0199   7.0255   7.0745
     7.0782   7.1331   7.1634   7.1718   7.1845   7.1977   7.2257   7.2397
     7.2571   7.2855   7.3003   7.3192   7.3336   7.3597   7.3726   7.4007
     7.4563   7.4740   7.5097   7.5277   7.5522   7.6033   7.6310   7.6346
     7.6799   7.7160   7.7663   7.7800   7.8207   7.8265   7.8358   7.8853
     7.9245   7.9453   7.9616   7.9738   7.9959   8.0008   8.0460   8.0497
     8.0565   8.0815   8.1328   8.1417   8.1681   8.1822   8.1872   8.2381
     8.2387   8.2804   8.3007   8.3135   8.3465   8.3816   8.3821   8.4217
     8.4238   8.4540   8.4929   8.5098   8.5493   8.5524   8.6215   8.6604
     8.6664   8.7282   8.7455   8.7717   8.7782   8.8044   8.8076   8.8311
     8.8346   8.8410   8.8823   8.8997   8.9062   8.9348   8.9694   8.9965
     9.0164   9.0291   9.0516   9.0760   9.1127   9.1317   9.1345   9.1448
     9.1821   9.2097   9.2305   9.2467   9.2587   9.2770   9.3154   9.3265
     9.3635   9.3791   9.4269   9.4540   9.4573   9.4813   9.5069   9.5147
     9.5337   9.5495   9.5794   9.5865   9.5931   9.6734   9.7147   9.7318
     9.7396   9.7673   9.7697   9.8122   9.8490   9.8496   9.8574   9.8817
     9.8973   9.9088   9.9231   9.9421   9.9674   9.9747  10.0159  10.0175
    10.0707  10.1254  10.1382  10.1711  10.2000  10.2230  10.2313  10.2840
    10.3343  10.3571  10.3607  10.3801  10.4262  10.4267  10.4427  10.4718
    10.4943  10.4946  10.5453  10.5596  10.5803  10.6358  10.6440  10.6786
    10.6890  10.7002  10.7547  10.7633  10.7919  10.8133  10.8292  10.8513
    10.8617  10.8789  10.8877  10.9086  10.9514  10.9518  10.9589  10.9824
    10.9986  11.0282  11.0765  11.0832

          k = 0.0000 0.0000 0.0117 (103457 PWs)   bands (ev):

   -21.1132 -20.8701 -20.6573 -20.5539 -20.3451 -20.0749 -19.9310 -19.8456
   -19.6663 -19.4463 -19.3493 -19.1712 -18.9105 -18.7947 -18.6805 -18.5287
   -18.3560 -18.2057 -17.9900 -17.7379 -17.6668 -17.5244 -17.4146 -17.3482
   -17.2493 -17.0096 -16.8582 -16.6439 -16.5284 -16.3281 -16.2630 -16.1892
   -16.1131 -16.0822 -15.8688 -15.6234 -15.2694 -15.1768 -14.7945 -14.5735
   -14.4868 -14.3085 -14.2868 -14.1337 -14.1036 -14.0133 -13.8485 -13.7693
   -13.5200 -13.1762 -13.0577 -12.9732 -12.9257 -12.8855 -12.6906 -12.5279
   -12.2978 -12.0521 -11.8968 -11.7969 -11.7310 -11.6666 -11.5933 -11.3839
   -11.2023 -11.0921 -10.9751 -10.8578 -10.7626 -10.6285 -10.4807 -10.3712
   -10.2582 -10.0759 -10.0180  -9.9464  -9.8167  -9.7130  -9.6494  -9.5039
    -9.4551  -9.3702  -9.3057  -9.1831  -9.1764  -9.0946  -8.9087  -8.8957
    -8.8355  -8.7995  -8.6892  -8.6475  -8.5942  -8.5680  -8.5263  -8.4959
    -8.4524  -8.3255  -8.2893  -8.2790  -8.2236  -8.1847  -8.1275  -8.0583
    -7.9723  -7.9716  -7.9525  -7.8100  -7.8070  -7.7506  -7.7061  -7.6897
    -7.6086  -7.5359  -7.5052  -7.4185  -7.3282  -7.2485  -7.2323  -7.1316
    -7.0971  -6.9993  -6.9325  -6.9142  -6.8396  -6.7862  -6.6780  -6.6371
    -6.5117  -6.5003  -6.4260  -6.3031  -6.2222  -6.1419  -6.0547  -5.9888
    -5.9489  -5.8574  -5.7935  -5.6717  -5.6179  -5.4305  -5.4248  -5.3067
    -5.1795  -5.1437  -5.0713  -4.9712  -4.9523  -4.8874  -4.6799  -4.5419
    -4.3959  -4.1712  -4.1321  -3.9607  -3.9024  -3.8944  -3.8173  -3.5672
    -3.2944  -2.7612  -2.5659  -1.8974  -1.0803  -0.8592  -0.4129  -0.1702
    -0.0168   0.0326   0.0762   0.1604   0.2373   0.3566   0.4769   0.7747
     0.9804   1.0804   1.1816   1.2688   1.3969   1.4789   1.5128   1.5522
     1.5725   1.7808   1.8061   1.8579   1.8797   1.9455   2.1084   2.1942
     2.2048   2.2648   2.4190   2.4810   2.5788   2.6305   2.7318   2.7434
     2.8093   2.8871   2.9204   2.9275   2.9692   3.0368   3.0496   3.1632
     3.1635   3.2203   3.2204   3.2815   3.3311   3.3478   3.4412   3.4798
     3.5205   3.5464   3.5496   3.6439   3.7064   3.7515   3.7663   3.8296
     3.8413   3.9217   3.9745   3.9804   4.0308   4.0737   4.0774   4.2193
     4.2255   4.2979   4.2984   4.3418   4.4335   4.4361   4.4956   4.5046
     4.5398   4.5862   4.6192   4.6337   4.6757   4.6917   4.7428   4.7801
     4.8277   4.8414   4.8635   4.9120   4.9286   4.9855   5.0243   5.0263
     5.0597   5.0856   5.1311   5.1772   5.2059   5.3269   5.3459   5.4124
     5.4126   5.4573   5.4618   5.4749   5.5469   5.5770   5.6210   5.6334
     5.6518   5.6783   5.7127   5.7138   5.7333   5.7629   5.8003   5.8589
     5.8700   5.8835   5.9222   5.9261   5.9465   6.0086   6.0300   6.0334
     6.0752   6.1119   6.1285   6.1601   6.1759   6.2502   6.2716   6.3745
     6.3949   6.4107   6.4118   6.4501   6.4854   6.4970   6.5026   6.5407
     6.5717   6.5733   6.5808   6.6333   6.6560   6.6714   6.6790   6.7309
     6.7644   6.7718   6.8076   6.8251   6.8345   6.8459   6.8612   6.8829
     6.8903   6.8995   6.9224   6.9314   6.9922   7.0224   7.0272   7.0688
     7.0902   7.1300   7.1423   7.1556   7.1824   7.1948   7.2024   7.2469
     7.2620   7.2754   7.2847   7.3284   7.3479   7.3530   7.3789   7.3819
     7.4577   7.4854   7.4886   7.5287   7.5599   7.6024   7.6150   7.6319
     7.6901   7.7275   7.7538   7.7774   7.8221   7.8295   7.8381   7.9028
     7.9274   7.9504   7.9845   7.9905   7.9942   8.0288   8.0486   8.0531
     8.0668   8.0860   8.1288   8.1662   8.1713   8.1868   8.2144   8.2351
     8.2418   8.2653   8.3023   8.3152   8.3264   8.3768   8.3810   8.3945
     8.4165   8.4442   8.4866   8.4929   8.5462   8.5540   8.6202   8.6605
     8.6742   8.7095   8.7489   8.7603   8.7805   8.7951   8.8109   8.8133
     8.8355   8.8489   8.8691   8.9049   8.9067   8.9408   8.9794   9.0052
     9.0263   9.0337   9.0450   9.0763   9.1062   9.1186   9.1367   9.1445
     9.1657   9.1817   9.2209   9.2499   9.2547   9.2829   9.3124   9.3144
     9.3570   9.4032   9.4377   9.4378   9.4587   9.5007   9.5041   9.5152
     9.5418   9.5831   9.5898   9.5922   9.6134   9.6722   9.7210   9.7276
     9.7437   9.7438   9.7722   9.7939   9.8365   9.8382   9.8544   9.8897
     9.8904   9.9149   9.9251   9.9491   9.9572   9.9753  10.0163  10.0300
    10.0659  10.1276  10.1339  10.1415  10.2351  10.2408  10.2487  10.2743
    10.3329  10.3570  10.3586  10.3953  10.4098  10.4243  10.4337  10.4867
    10.4949  10.5004  10.5394  10.5595  10.5823  10.6183  10.6331  10.6676
    10.6794  10.7008  10.7515  10.7603  10.7799  10.8020  10.8200  10.8495
    10.8605  10.8671  10.8880  10.9080  10.9437  10.9457  10.9556  10.9853
    11.0124  11.0262  11.0807  11.0867

          k = 0.0000 0.0000 0.0129 (103443 PWs)   bands (ev):

   -21.1111 -20.8797 -20.6515 -20.5452 -20.3490 -20.0671 -19.9403 -19.8556
   -19.6763 -19.4447 -19.3287 -19.1631 -18.9091 -18.8014 -18.6817 -18.5261
   -18.3444 -18.2302 -17.9937 -17.7551 -17.6683 -17.5324 -17.4165 -17.3171
   -17.2331 -17.0110 -16.8469 -16.6405 -16.5288 -16.3297 -16.2573 -16.1957
   -16.1177 -16.1034 -15.8744 -15.6127 -15.2950 -15.1803 -14.7948 -14.5359
   -14.4965 -14.3208 -14.2890 -14.1085 -14.0957 -14.0085 -13.8338 -13.7563
   -13.5102 -13.1960 -13.0713 -13.0033 -12.9665 -12.9016 -12.6790 -12.5161
   -12.2955 -12.0552 -11.8870 -11.7854 -11.6923 -11.6550 -11.6060 -11.3923
   -11.2016 -11.0785 -10.9804 -10.8574 -10.7556 -10.6347 -10.4804 -10.3800
   -10.2615 -10.0982 -10.0277  -9.9310  -9.8182  -9.7349  -9.6404  -9.4978
    -9.4503  -9.3525  -9.3017  -9.1791  -9.1736  -9.0878  -8.9264  -8.9075
    -8.8421  -8.8095  -8.6966  -8.6413  -8.6080  -8.5754  -8.5151  -8.4857
    -8.4477  -8.3264  -8.2937  -8.2826  -8.2200  -8.1982  -8.1193  -8.0513
    -7.9616  -7.9603  -7.9417  -7.8198  -7.8023  -7.7297  -7.7210  -7.6818
    -7.6115  -7.5363  -7.5164  -7.4252  -7.3219  -7.2477  -7.2435  -7.1086
    -7.1065  -6.9916  -6.9329  -6.9033  -6.8465  -6.7717  -6.6761  -6.6454
    -6.5215  -6.5211  -6.4260  -6.3070  -6.2178  -6.1444  -6.0415  -5.9956
    -5.9527  -5.8831  -5.7875  -5.6548  -5.6226  -5.4507  -5.4112  -5.3074
    -5.1865  -5.1467  -5.0729  -4.9573  -4.9458  -4.8720  -4.6774  -4.5412
    -4.3991  -4.1674  -4.1269  -3.9763  -3.9059  -3.8976  -3.8149  -3.5657
    -3.2743  -2.7818  -2.5761  -1.9000  -1.0698  -0.8395  -0.4292  -0.1578
    -0.0183   0.0345   0.0778   0.1749   0.2431   0.3641   0.4617   0.7677
     0.9699   1.0502   1.1857   1.2309   1.4116   1.4650   1.5152   1.5563
     1.5882   1.7908   1.7925   1.8424   1.9033   1.9442   2.1125   2.2115
     2.2173   2.2875   2.4055   2.5120   2.5827   2.6072   2.7113   2.7378
     2.8261   2.8772   2.9243   2.9387   2.9636   3.0145   3.0382   3.1301
     3.1693   3.2102   3.2250   3.2924   3.3414   3.3538   3.4459   3.4846
     3.5078   3.5615   3.5659   3.6384   3.7002   3.7697   3.7778   3.8397
     3.8466   3.9417   3.9752   4.0206   4.0536   4.0620   4.0815   4.1882
     4.2278   4.2849   4.3002   4.3345   4.4076   4.4491   4.4597   4.5081
     4.5196   4.5747   4.6141   4.6228   4.6716   4.6940   4.7515   4.7774
     4.8079   4.8180   4.8482   4.8933   4.9164   4.9980   5.0341   5.0514
     5.0659   5.1034   5.1203   5.1652   5.2153   5.3334   5.3681   5.4156
     5.4316   5.4494   5.4707   5.4763   5.5636   5.5752   5.6243   5.6291
     5.6460   5.6882   5.7093   5.7338   5.7530   5.7612   5.8035   5.8450
     5.8489   5.8810   5.9007   5.9295   5.9325   6.0030   6.0241   6.0358
     6.0631   6.1110   6.1114   6.1594   6.1728   6.2689   6.2692   6.3771
     6.3808   6.4054   6.4449   6.4452   6.4819   6.4914   6.5219   6.5381
     6.5728   6.5813   6.5819   6.6371   6.6694   6.6907   6.7020   6.7466
     6.7676   6.7794   6.8095   6.8099   6.8333   6.8486   6.8527   6.8632
     6.8870   6.9026   6.9236   6.9479   6.9879   7.0212   7.0306   7.0540
     7.0917   7.1160   7.1254   7.1497   7.1677   7.1866   7.2089   7.2457
     7.2534   7.2756   7.2900   7.3333   7.3366   7.3582   7.3716   7.3998
     7.4583   7.4680   7.4940   7.5300   7.5711   7.5962   7.5988   7.6316
     7.6896   7.7347   7.7469   7.7755   7.8237   7.8259   7.8399   7.9134
     7.9283   7.9552   7.9848   8.0029   8.0049   8.0545   8.0590   8.0708
     8.0862   8.0941   8.1137   8.1619   8.1823   8.1979   8.2122   8.2391
     8.2474   8.2792   8.3014   8.3186   8.3276   8.3631   8.3747   8.3764
     8.4137   8.4214   8.4777   8.4984   8.5425   8.5610   8.6097   8.6648
     8.6798   8.6812   8.7143   8.7712   8.7762   8.7891   8.7971   8.8059
     8.8267   8.8605   8.8718   8.9111   8.9175   8.9502   8.9982   9.0060
     9.0255   9.0395   9.0493   9.0793   9.0834   9.0989   9.1354   9.1424
     9.1559   9.1625   9.2151   9.2489   9.2560   9.2954   9.3010   9.3193
     9.3365   9.4018   9.4163   9.4750   9.4866   9.4938   9.5192   9.5231
     9.5487   9.5882   9.5974   9.6244   9.6264   9.6739   9.7057   9.7141
     9.7298   9.7500   9.7820   9.7882   9.8199   9.8217   9.8447   9.8752
     9.8919   9.9039   9.9228   9.9459   9.9775   9.9919  10.0262  10.0461
    10.0636  10.1048  10.1167  10.1435  10.2318  10.2564  10.2638  10.2966
    10.3323  10.3444  10.3563  10.3789  10.3977  10.4130  10.4554  10.4936
    10.4964  10.5194  10.5276  10.5598  10.5928  10.6084  10.6311  10.6457
    10.6794  10.7045  10.7488  10.7580  10.7723  10.7824  10.8088  10.8475
    10.8557  10.8616  10.9003  10.9016  10.9373  10.9411  10.9567  10.9912
    11.0107  11.0316  11.0702  11.0896

          k = 0.0000 0.0000 0.0141 (103441 PWs)   bands (ev):

   -21.1087 -20.8890 -20.6464 -20.5360 -20.3523 -20.0606 -19.9507 -19.8627
   -19.6867 -19.4448 -19.3083 -19.1527 -18.9078 -18.8099 -18.6815 -18.5240
   -18.3348 -18.2517 -17.9972 -17.7725 -17.6690 -17.5422 -17.4195 -17.2837
   -17.2167 -17.0121 -16.8363 -16.6391 -16.5252 -16.3330 -16.2516 -16.2033
   -16.1398 -16.1078 -15.8781 -15.6025 -15.3211 -15.1827 -14.7953 -14.5159
   -14.4886 -14.3319 -14.2931 -14.0946 -14.0748 -14.0006 -13.8203 -13.7435
   -13.4998 -13.2154 -13.0926 -13.0410 -12.9973 -12.9135 -12.6690 -12.5045
   -12.2942 -12.0556 -11.8768 -11.7783 -11.6788 -11.6395 -11.5933 -11.3994
   -11.2077 -11.0666 -10.9810 -10.8569 -10.7477 -10.6396 -10.4795 -10.3882
   -10.2665 -10.1254 -10.0444  -9.9054  -9.8282  -9.7485  -9.6294  -9.4926
    -9.4461  -9.3341  -9.2976  -9.1740  -9.1705  -9.0778  -8.9534  -8.9190
    -8.8455  -8.8179  -8.7084  -8.6358  -8.6214  -8.5847  -8.5034  -8.4829
    -8.4328  -8.3259  -8.2974  -8.2856  -8.2208  -8.2062  -8.1113  -8.0460
    -7.9518  -7.9499  -7.9312  -7.8318  -7.7965  -7.7319  -7.7069  -7.6751
    -7.6145  -7.5355  -7.5280  -7.4318  -7.3174  -7.2548  -7.2484  -7.1145
    -7.0859  -6.9842  -6.9342  -6.8901  -6.8554  -6.7550  -6.6745  -6.6560
    -6.5405  -6.5333  -6.4242  -6.3091  -6.2138  -6.1497  -6.0296  -6.0030
    -5.9551  -5.9074  -5.7821  -5.6368  -5.6269  -5.4702  -5.3974  -5.3078
    -5.1942  -5.1520  -5.0758  -4.9626  -4.9201  -4.8551  -4.6744  -4.5400
    -4.4020  -4.1639  -4.1219  -3.9945  -3.9124  -3.8973  -3.8118  -3.5622
    -3.2544  -2.8035  -2.5868  -1.9026  -1.0589  -0.8191  -0.4448  -0.1474
    -0.0183   0.0369   0.0787   0.1894   0.2501   0.3699   0.4490   0.7607
     0.9560   1.0198   1.1902   1.1960   1.4255   1.4506   1.5189   1.5607
     1.6037   1.7758   1.8046   1.8272   1.9274   1.9433   2.1169   2.2171
     2.2407   2.3100   2.3932   2.5297   2.5869   2.5978   2.6789   2.7441
     2.8342   2.8755   2.9189   2.9512   2.9634   2.9958   3.0275   3.0968
     3.1756   3.1988   3.2288   3.3022   3.3556   3.3570   3.4524   3.4838
     3.4964   3.5696   3.5852   3.6333   3.7015   3.7840   3.7873   3.8406
     3.8692   3.9613   3.9766   4.0530   4.0580   4.0764   4.0891   4.1593
     4.2297   4.2729   4.2995   4.3297   4.3728   4.4273   4.4572   4.5023
     4.5023   4.5629   4.6047   4.6186   4.6713   4.6942   4.7669   4.7732
     4.7778   4.7960   4.8425   4.8629   4.9176   5.0023   5.0452   5.0589
     5.0893   5.1219   5.1242   5.1528   5.2250   5.3375   5.3678   5.3850
     5.4411   5.4678   5.4965   5.4995   5.5634   5.5741   5.6151   5.6341
     5.6508   5.6827   5.7193   5.7392   5.7658   5.7707   5.8140   5.8218
     5.8338   5.8720   5.8889   5.9296   5.9302   6.0014   6.0211   6.0312
     6.0554   6.0958   6.1087   6.1642   6.1725   6.2647   6.2887   6.3486
     6.3794   6.4000   6.4340   6.4733   6.4777   6.4820   6.5457   6.5463
     6.5730   6.5855   6.5915   6.6357   6.6765   6.7075   6.7101   6.7616
     6.7769   6.7853   6.7959   6.8139   6.8349   6.8421   6.8526   6.8668
     6.8887   6.9033   6.9241   6.9548   6.9957   7.0031   7.0380   7.0455
     7.0803   7.0943   7.1203   7.1436   7.1455   7.1853   7.2205   7.2340
     7.2528   7.2903   7.3003   7.3142   7.3405   7.3431   7.3894   7.4206
     7.4482   7.4606   7.4992   7.5346   7.5781   7.5824   7.5928   7.6355
     7.6814   7.7113   7.7608   7.7763   7.8060   7.8310   7.8463   7.9220
     7.9312   7.9647   7.9730   8.0127   8.0178   8.0603   8.0779   8.0831
     8.0923   8.1193   8.1230   8.1296   8.1862   8.2100   8.2255   8.2508
     8.2577   8.2840   8.2955   8.3085   8.3445   8.3474   8.3631   8.3875
     8.4009   8.4211   8.4642   8.5030   8.5372   8.5698   8.5934   8.6441
     8.6626   8.6821   8.7025   8.7574   8.7648   8.7870   8.7954   8.8056
     8.8217   8.8547   8.8946   8.9197   8.9323   8.9571   8.9935   9.0055
     9.0285   9.0450   9.0468   9.0612   9.0841   9.0866   9.1302   9.1313
     9.1551   9.1584   9.2116   9.2395   9.2624   9.2874   9.3009   9.3184
     9.3449   9.3950   9.4037   9.4843   9.4930   9.5219   9.5393   9.5476
     9.5587   9.5757   9.6074   9.6226   9.6563   9.6679   9.6809   9.6982
     9.7388   9.7559   9.7797   9.7973   9.8002   9.8060   9.8410   9.8465
     9.8890   9.8902   9.9276   9.9507   9.9998  10.0064  10.0395  10.0442
    10.0621  10.0995  10.1045  10.1538  10.2105  10.2603  10.2806  10.3072
    10.3235  10.3360  10.3421  10.3659  10.4006  10.4110  10.4736  10.4848
    10.5024  10.5179  10.5422  10.5683  10.5920  10.6133  10.6243  10.6444
    10.6676  10.7138  10.7458  10.7480  10.7665  10.7777  10.7945  10.8467
    10.8483  10.8622  10.8903  10.9123  10.9298  10.9485  10.9600  10.9972
    10.9986  11.0410  11.0522  11.0794

          k = 0.0000 0.0000 0.0153 (103453 PWs)   bands (ev):

   -21.1062 -20.8980 -20.6418 -20.5265 -20.3547 -20.0566 -19.9603 -19.8673
   -19.6974 -19.4460 -19.2887 -19.1400 -18.9068 -18.8195 -18.6806 -18.5229
   -18.3301 -18.2664 -18.0014 -17.7896 -17.6693 -17.5525 -17.4229 -17.2501
   -17.2005 -17.0120 -16.8264 -16.6403 -16.5179 -16.3378 -16.2465 -16.2140
   -16.1645 -16.1075 -15.8801 -15.5932 -15.3466 -15.1845 -14.7960 -14.5234
   -14.4557 -14.3387 -14.2984 -14.0867 -14.0505 -13.9869 -13.8080 -13.7311
   -13.4889 -13.2345 -13.1287 -13.0721 -13.0239 -12.9216 -12.6612 -12.4931
   -12.2935 -12.0534 -11.8662 -11.7742 -11.6846 -11.6333 -11.5501 -11.4043
   -11.2203 -11.0572 -10.9763 -10.8570 -10.7394 -10.6420 -10.4787 -10.3950
   -10.2739 -10.1562 -10.0607  -9.8819  -9.8452  -9.7494  -9.6176  -9.4881
    -9.4426  -9.3162  -9.2916  -9.1696  -9.1672  -9.0647  -8.9834  -8.9301
    -8.8509  -8.8248  -8.7245  -8.6329  -8.6310  -8.5935  -8.4917  -8.4843
    -8.4167  -8.3255  -8.2999  -8.2850  -8.2321  -8.2007  -8.1037  -8.0425
    -7.9442  -7.9406  -7.9216  -7.8445  -7.7898  -7.7393  -7.6844  -7.6681
    -7.6172  -7.5401  -7.5341  -7.4381  -7.3151  -7.2656  -7.2503  -7.1203
    -7.0641  -6.9789  -6.9353  -6.8745  -6.8643  -6.7386  -6.6730  -6.6684
    -6.5578  -6.5462  -6.4217  -6.3096  -6.2107  -6.1579  -6.0203  -6.0101
    -5.9566  -5.9279  -5.7775  -5.6319  -5.6180  -5.4885  -5.3838  -5.3079
    -5.2024  -5.1588  -5.0794  -4.9681  -4.8958  -4.8372  -4.6707  -4.5382
    -4.4043  -4.1611  -4.1173  -4.0145  -3.9188  -3.8967  -3.8090  -3.5565
    -3.2348  -2.8259  -2.5980  -1.9052  -1.0477  -0.7984  -0.4594  -0.1400
    -0.0170   0.0412   0.0792   0.2018   0.2594   0.3721   0.4415   0.7534
     0.9378   0.9892   1.1658   1.1952   1.4363   1.4382   1.5234   1.5656
     1.6185   1.7612   1.8124   1.8170   1.9430   1.9518   2.1216   2.2223
     2.2643   2.3302   2.3839   2.5185   2.5915   2.6166   2.6467   2.7506
     2.8292   2.8829   2.9118   2.9466   2.9798   2.9831   3.0180   3.0638
     3.1825   3.1871   3.2317   3.3104   3.3580   3.3728   3.4564   3.4791
     3.4914   3.5670   3.6060   3.6274   3.7163   3.7827   3.8055   3.8461
     3.8930   3.9748   3.9824   4.0489   4.0840   4.0896   4.1126   4.1386
     4.2294   4.2631   4.2951   4.3288   4.3329   4.3972   4.4584   4.4870
     4.4914   4.5512   4.5813   4.6244   4.6793   4.6969   4.7392   4.7590
     4.7766   4.7948   4.8306   4.8437   4.9209   5.0016   5.0576   5.0599
     5.0998   5.1390   5.1468   5.1524   5.2320   5.3174   5.3448   5.3946
     5.4493   5.4729   5.5296   5.5297   5.5553   5.5630   5.6197   5.6443
     5.6552   5.6724   5.7295   5.7356   5.7579   5.7787   5.8029   5.8187
     5.8353   5.8674   5.8916   5.9261   5.9342   6.0001   6.0131   6.0244
     6.0594   6.0841   6.1068   6.1631   6.1805   6.2568   6.3080   6.3160
     6.3792   6.3826   6.4234   6.4610   6.4897   6.4916   6.5556   6.5641
     6.5777   6.5965   6.6023   6.6342   6.6767   6.7082   6.7084   6.7677
     6.7780   6.7895   6.8000   6.8186   6.8418   6.8491   6.8638   6.8710
     6.8893   6.9074   6.9291   6.9555   6.9689   7.0062   7.0466   7.0503
     7.0711   7.0736   7.1139   7.1289   7.1367   7.1807   7.2171   7.2240
     7.2692   7.2915   7.3069   7.3176   7.3254   7.3498   7.4049   7.4294
     7.4322   7.4720   7.5052   7.5382   7.5656   7.5760   7.5988   7.6447
     7.6730   7.6852   7.7562   7.7794   7.7836   7.8326   7.8638   7.9319
     7.9346   7.9639   7.9748   8.0197   8.0213   8.0545   8.0705   8.0900
     8.0930   8.1152   8.1477   8.1657   8.1857   8.2139   8.2434   8.2468
     8.2708   8.2747   8.2995   8.3205   8.3331   8.3440   8.3560   8.3876
[...]
    -5.2737  -5.2158  -5.1074  -5.0172  -4.7836  -4.7587  -4.5590  -4.4642
    -4.3865  -4.2661  -4.1622  -4.0692  -3.9561  -3.8874  -3.8198  -3.4338
    -3.1280  -2.9897  -2.6939  -1.9214  -0.9593  -0.6856  -0.4934  -0.1680
    -0.0379   0.0673   0.1474   0.2628   0.3303   0.4812   0.5186   0.5849
     0.6960   0.7434   1.0967   1.2549   1.3240   1.4864   1.5828   1.6223
     1.6484   1.6939   1.7018   1.9025   2.0192   2.1681   2.1901   2.2451
     2.2729   2.3053   2.3629   2.4937   2.5823   2.6452   2.6631   2.7285
     2.7537   2.7718   2.8193   2.9046   2.9934   3.0204   3.0958   3.1160
     3.1266   3.2118   3.2864   3.2871   3.3382   3.3817   3.4248   3.4326
     3.5792   3.6068   3.6320   3.7051   3.7961   3.8059   3.8489   3.9112
     3.9971   4.0347   4.0531   4.0812   4.1133   4.1356   4.1377   4.1593
     4.2049   4.2517   4.2520   4.3128   4.3288   4.3573   4.3782   4.3854
     4.4460   4.4474   4.4487   4.5116   4.5430   4.5486   4.5795   4.6368
     4.7621   4.8340   4.8880   4.9596   4.9689   4.9981   5.0247   5.0436
     5.1169   5.1636   5.2079   5.2380   5.2857   5.3410   5.3832   5.4171
     5.4376   5.4756   5.4998   5.5157   5.5200   5.5403   5.5891   5.6079
     5.6407   5.6812   5.7427   5.7564   5.8297   5.8332   5.8614   5.8732
     5.8858   5.9165   5.9242   5.9419   5.9836   5.9914   5.9967   6.0450
     6.0792   6.1103   6.1159   6.1514   6.1663   6.2347   6.2381   6.2525
     6.2571   6.2717   6.3617   6.4016   6.4558   6.4951   6.5317   6.5474
     6.5912   6.6111   6.6203   6.6278   6.6639   6.7117   6.7465   6.7544
     6.7660   6.8009   6.8209   6.8407   6.8494   6.8524   6.8807   6.9032
     6.9380   6.9492   6.9493   6.9812   7.0247   7.0250   7.0619   7.0934
     7.0958   7.1079   7.1319   7.1385   7.1842   7.1949   7.2061   7.2364
     7.2577   7.2974   7.3134   7.3400   7.3497   7.3637   7.3821   7.4333
     7.4336   7.4415   7.4774   7.4972   7.5296   7.5750   7.5949   7.6324
     7.7143   7.7301   7.7501   7.7710   7.8055   7.8277   7.8487   7.8696
     7.8893   7.9185   7.9439   7.9710   7.9875   8.0434   8.0562   8.0588
     8.0995   8.1257   8.1457   8.1562   8.1814   8.1890   8.2004   8.2565
     8.2823   8.2840   8.3330   8.3566   8.3653   8.3828   8.4064   8.4341
     8.4433   8.4632   8.4732   8.5147   8.5605   8.6015   8.6039   8.6212
     8.6685   8.6990   8.7118   8.7148   8.7325   8.7500   8.7907   8.8106
     8.8425   8.8442   8.8825   8.9087   8.9185   8.9443   8.9552   8.9609
     8.9898   9.0186   9.0364   9.0675   9.1104   9.1321   9.1446   9.1456
     9.1792   9.1941   9.2186   9.2370   9.2532   9.2600   9.2766   9.2994
     9.3192   9.3494   9.3990   9.4230   9.4602   9.4784   9.5007   9.5029
     9.5500   9.5783   9.5903   9.6186   9.6346   9.6459   9.6759   9.6944
     9.7040   9.7210   9.7611   9.7950   9.8242   9.8380   9.8548   9.8762
     9.8970   9.9234   9.9528   9.9820   9.9953  10.0137  10.0651  10.0818
    10.1128  10.1199  10.1604  10.1641  10.1968  10.2409  10.2745  10.2770
    10.2993  10.3281  10.3333  10.3826  10.3858  10.4393  10.4635  10.4978
    10.5102  10.5354  10.5564  10.5655  10.5825  10.6090  10.6121  10.6397
    10.6617  10.6897  10.7076  10.7254  10.7448  10.7530  10.7750  10.7828
    10.8118  10.8371  10.8674  10.8845  10.9010  10.9266  10.9389  10.9605
    10.9740  10.9990  11.0157  11.0317

          k = 0.0000 0.0000 0.0270 (103398 PWs)   bands (ev):

   -21.0828 -20.9581 -20.6186 -20.4739 -20.3066 -20.1754 -19.9122 -19.8619
   -19.8073 -19.4722 -19.1562 -19.0125 -18.8862 -18.8478 -18.7341 -18.6282
   -18.3076 -18.1932 -18.1035 -17.8961 -17.6608 -17.6097 -17.4564 -17.1554
   -17.0437 -16.7946 -16.7690 -16.6641 -16.6043 -16.4558 -16.3247 -16.2287
   -16.1536 -16.1002 -15.9131 -15.5992 -15.4406 -15.2002 -14.8038 -14.5961
   -14.4598 -14.3528 -14.0588 -13.9717 -13.9157 -13.7777 -13.6943 -13.6656
   -13.5922 -13.4154 -13.3591 -13.2777 -13.2328 -12.8878 -12.7062 -12.3911
   -12.2885 -11.9566 -11.8521 -11.8347 -11.6735 -11.5715 -11.4914 -11.3177
   -11.1599 -11.0089 -10.9071 -10.8125 -10.6849 -10.6081 -10.5450 -10.4888
   -10.4001 -10.3106 -10.1646 -10.0815  -9.7397  -9.5911  -9.4870  -9.4216
    -9.3700  -9.3591  -9.2527  -9.1404  -9.1349  -9.0590  -9.0551  -9.0069
    -8.9551  -8.8505  -8.8109  -8.7507  -8.6461  -8.6055  -8.4853  -8.4338
    -8.4282  -8.3918  -8.3145  -8.2277  -8.1616  -8.0861  -8.0856  -8.0680
    -7.9581  -7.8988  -7.8424  -7.7920  -7.7503  -7.7367  -7.6735  -7.6679
    -7.6420  -7.5750  -7.5325  -7.3670  -7.3147  -7.3028  -7.2792  -7.2015
    -7.0272  -6.9314  -6.9125  -6.8566  -6.8367  -6.7518  -6.7066  -6.6526
    -6.5565  -6.4780  -6.4510  -6.3661  -6.3341  -6.2549  -6.0503  -5.9853
    -5.9496  -5.8725  -5.7728  -5.7575  -5.5580  -5.4464  -5.3111  -5.3053
    -5.2723  -5.2181  -5.1087  -5.0201  -4.7813  -4.7572  -4.5548  -4.4435
    -4.3834  -4.2886  -4.1663  -4.0677  -3.9574  -3.8864  -3.8215  -3.4230
    -3.1295  -2.9939  -2.6995  -1.9221  -0.9545  -0.6849  -0.4882  -0.1724
    -0.0407   0.0670   0.1465   0.2640   0.3609   0.4895   0.5151   0.5712
     0.6791   0.7281   1.0976   1.2621   1.3148   1.4867   1.5903   1.6283
     1.6389   1.6939   1.6963   1.9035   2.0360   2.1727   2.2174   2.2287
     2.2672   2.3049   2.3335   2.5190   2.6103   2.6364   2.6505   2.7143
     2.7488   2.7522   2.8258   2.8979   2.9970   3.0350   3.0915   3.1090
     3.1511   3.2249   3.2619   3.2925   3.3254   3.3883   3.4242   3.4316
     3.5835   3.6096   3.6506   3.7204   3.7711   3.7923   3.8653   3.8869
     4.0168   4.0550   4.0625   4.0743   4.1159   4.1339   4.1389   4.1660
     4.1947   4.2398   4.2584   4.3093   4.3324   4.3721   4.3741   4.3855
     4.4209   4.4393   4.4464   4.5064   4.5389   4.5547   4.5826   4.6318
     4.7659   4.7866   4.8929   4.9611   4.9674   4.9998   5.0492   5.0726
     5.1302   5.1534   5.2011   5.2337   5.2536   5.3620   5.4004   5.4036
     5.4353   5.4788   5.4845   5.5091   5.5222   5.5537   5.5840   5.6199
     5.6352   5.6820   5.7296   5.7499   5.8239   5.8436   5.8597   5.8806
     5.8963   5.9206   5.9276   5.9579   5.9871   6.0021   6.0215   6.0376
     6.0737   6.1024   6.1070   6.1377   6.1546   6.2059   6.2303   6.2534
     6.2860   6.2872   6.3679   6.4017   6.4660   6.4892   6.4940   6.5337
     6.5816   6.6069   6.6288   6.6346   6.6644   6.7151   6.7317   6.7565
     6.7605   6.8063   6.8193   6.8419   6.8531   6.8642   6.8810   6.9090
     6.9449   6.9476   6.9578   6.9837   7.0188   7.0290   7.0620   7.0980
     7.1002   7.1120   7.1374   7.1501   7.1781   7.1872   7.2190   7.2294
     7.2489   7.2879   7.3183   7.3466   7.3529   7.3743   7.3913   7.3992
     7.4294   7.4350   7.5119   7.5224   7.5292   7.5465   7.6029   7.6290
     7.6865   7.7242   7.7488   7.7762   7.7986   7.8359   7.8638   7.8843
     7.8945   7.9262   7.9434   7.9570   7.9972   8.0333   8.0395   8.0600
     8.0746   8.1170   8.1452   8.1517   8.1775   8.1817   8.2118   8.2505
     8.2795   8.2852   8.3425   8.3532   8.3641   8.3777   8.3939   8.4320
     8.4591   8.4782   8.4819   8.5359   8.5614   8.5835   8.6022   8.6236
     8.6649   8.6895   8.7108   8.7370   8.7490   8.7750   8.7927   8.8130
     8.8355   8.8473   8.8846   8.9098   8.9191   8.9384   8.9495   8.9626
     8.9682   9.0177   9.0380   9.0453   9.1095   9.1345   9.1634   9.1647
     9.1875   9.1936   9.1956   9.2476   9.2530   9.2590   9.2876   9.2910
     9.3263   9.3283   9.3789   9.4279   9.4520   9.4733   9.4988   9.5058
     9.5447   9.5617   9.5900   9.6171   9.6291   9.6438   9.6827   9.6939
     9.6971   9.7281   9.7598   9.8068   9.8402   9.8458   9.8541   9.8929
     9.8988   9.9290   9.9330   9.9633   9.9895  10.0063  10.0570  10.0632
    10.1189  10.1213  10.1614  10.1882  10.2415  10.2480  10.2563  10.2836
    10.3058  10.3249  10.3473  10.3779  10.3965  10.4406  10.4698  10.4706
    10.5227  10.5543  10.5606  10.5709  10.5817  10.5886  10.6090  10.6371
    10.6552  10.6683  10.6856  10.7200  10.7216  10.7482  10.7742  10.7839
    10.8010  10.8431  10.8667  10.8853  10.8917  10.9280  10.9433  10.9681
    10.9784  10.9927  11.0066  11.0337

          k = 0.0000 0.0000 0.0282 (103420 PWs)   bands (ev):

   -21.0820 -20.9598 -20.6181 -20.4733 -20.3008 -20.1834 -19.9088 -19.8583
   -19.8143 -19.4731 -19.1519 -19.0123 -18.8857 -18.8340 -18.7495 -18.6315
   -18.3025 -18.1893 -18.1103 -17.8987 -17.6603 -17.6105 -17.4576 -17.1558
   -17.0398 -16.7903 -16.7373 -16.6652 -16.6385 -16.4590 -16.3228 -16.2275
   -16.1492 -16.1008 -15.9168 -15.6013 -15.4401 -15.2009 -14.8041 -14.5980
   -14.4616 -14.3541 -14.0580 -13.9630 -13.8819 -13.7809 -13.7015 -13.6891
   -13.5752 -13.4266 -13.3640 -13.2720 -13.2475 -12.8842 -12.7107 -12.3874
   -12.2884 -11.9499 -11.8567 -11.8393 -11.6640 -11.5683 -11.5060 -11.3060
   -11.1723 -10.9776 -10.9146 -10.8047 -10.6941 -10.6170 -10.5469 -10.4869
   -10.4026 -10.3084 -10.1772 -10.0809  -9.7410  -9.5778  -9.4839  -9.4247
    -9.3684  -9.3585  -9.2462  -9.1580  -9.1337  -9.0548  -9.0427  -9.0091
    -8.9718  -8.8469  -8.8001  -8.7623  -8.6495  -8.6049  -8.4845  -8.4334
    -8.4319  -8.3944  -8.3127  -8.2191  -8.1608  -8.0965  -8.0841  -8.0683
    -7.9508  -7.8973  -7.8359  -7.7882  -7.7515  -7.7323  -7.6760  -7.6705
    -7.6494  -7.5786  -7.5347  -7.3536  -7.3098  -7.2952  -7.2802  -7.2242
    -7.0209  -6.9387  -6.9073  -6.8575  -6.8350  -6.7536  -6.7110  -6.6523
    -6.5370  -6.4668  -6.4610  -6.3819  -6.3410  -6.2547  -6.0515  -5.9804
    -5.9491  -5.8661  -5.7832  -5.7572  -5.5588  -5.4391  -5.3153  -5.3051
    -5.2708  -5.2196  -5.1095  -5.0219  -4.7802  -4.7561  -4.5527  -4.4257
    -4.3819  -4.3062  -4.1690  -4.0668  -3.9583  -3.8858  -3.8226  -3.4159
    -3.1313  -2.9957  -2.7030  -1.9225  -0.9515  -0.6848  -0.4845  -0.1753
    -0.0425   0.0668   0.1455   0.2643   0.3933   0.4714   0.5167   0.5728
     0.6653   0.7189   1.0982   1.2680   1.3078   1.4868   1.5968   1.6310
     1.6330   1.6882   1.6978   1.9039   2.0485   2.1754   2.2156   2.2452
     2.2638   2.3045   2.3057   2.5428   2.6118   2.6383   2.6540   2.6937
     2.7355   2.7510   2.8305   2.8930   2.9993   3.0468   3.0883   3.1013
     3.1753   3.2361   3.2374   3.2973   3.3143   3.3951   3.4164   3.4358
     3.5853   3.6116   3.6692   3.7366   3.7494   3.7786   3.8621   3.8849
     4.0325   4.0518   4.0710   4.0775   4.1201   4.1309   4.1424   4.1794
     4.1871   4.2245   4.2491   4.3201   4.3387   4.3653   4.3855   4.3919
     4.3966   4.4342   4.4510   4.4891   4.5341   4.5502   4.5987   4.6482
     4.7408   4.7683   4.8963   4.9582   4.9699   4.9986   5.0708   5.0989
     5.1381   5.1478   5.1929   5.2210   5.2336   5.3792   5.4023   5.4082
     5.4412   5.4527   5.4893   5.4973   5.5306   5.5571   5.5813   5.6318
     5.6407   5.6811   5.7199   5.7457   5.8008   5.8539   5.8641   5.8838
     5.9070   5.9179   5.9357   5.9679   5.9933   6.0093   6.0341   6.0577
     6.0662   6.0801   6.1064   6.1309   6.1493   6.1652   6.2275   6.2492
     6.3046   6.3243   6.3787   6.3916   6.4567   6.4671   6.4918   6.5302
     6.5686   6.6008   6.6298   6.6597   6.6651   6.7098   6.7170   6.7565
     6.7580   6.8097   6.8181   6.8424   6.8535   6.8804   6.8825   6.9129
     6.9354   6.9498   6.9615   6.9914   7.0119   7.0388   7.0610   7.0917
     7.1042   7.1231   7.1427   7.1528   7.1769   7.1835   7.2202   7.2297
     7.2441   7.2763   7.3203   7.3420   7.3708   7.3727   7.3917   7.4055
     7.4205   7.4301   7.4909   7.5182   7.5526   7.5777   7.6171   7.6306
     7.6568   7.6998   7.7277   7.7842   7.8004   7.8372   7.8737   7.9028
     7.9077   7.9375   7.9430   7.9498   8.0012   8.0168   8.0349   8.0624
     8.0629   8.0967   8.1253   8.1549   8.1806   8.1919   8.2222   8.2436
     8.2776   8.2797   8.3362   8.3596   8.3598   8.3771   8.3885   8.4320
     8.4670   8.4858   8.5071   8.5542   8.5613   8.5627   8.5846   8.6413
     8.6556   8.6766   8.7078   8.7286   8.7691   8.7956   8.8200   8.8249
     8.8429   8.8503   8.8864   8.9066   8.9090   8.9281   8.9289   8.9586
     8.9621   8.9790   9.0561   9.0694   9.1080   9.1313   9.1666   9.1739
     9.1814   9.1857   9.1969   9.2388   9.2609   9.2677   9.2887   9.3052
     9.3102   9.3379   9.3651   9.4157   9.4466   9.4748   9.4915   9.5145
     9.5374   9.5473   9.5923   9.6107   9.6255   9.6510   9.6834   9.6936
     9.7004   9.7290   9.7581   9.8225   9.8390   9.8510   9.8700   9.8902
     9.8971   9.9285   9.9391   9.9401   9.9852  10.0103  10.0496  10.0497
    10.1073  10.1289  10.1670  10.2073  10.2377  10.2478  10.2776  10.2952
    10.3078  10.3216  10.3690  10.3709  10.4086  10.4328  10.4513  10.4828
    10.5056  10.5543  10.5704  10.5749  10.5922  10.5953  10.6112  10.6208
    10.6453  10.6536  10.6671  10.7066  10.7180  10.7469  10.7658  10.7811
    10.8088  10.8474  10.8700  10.8839  10.8854  10.9276  10.9466  10.9706
    10.9828  10.9829  11.0033  11.0319

          k = 0.0000 0.0000-0.0293 (103456 PWs)   bands (ev):

   -21.0817 -20.9603 -20.6179 -20.4731 -20.2986 -20.1862 -19.9077 -19.8568
   -19.8171 -19.4734 -19.1504 -19.0124 -18.8856 -18.8275 -18.7565 -18.6325
   -18.3007 -18.1879 -18.1128 -17.8996 -17.6602 -17.6108 -17.4579 -17.1559
   -17.0385 -16.7899 -16.7157 -16.6726 -16.6530 -16.4600 -16.3222 -16.2271
   -16.1476 -16.1010 -15.9181 -15.6020 -15.4399 -15.2011 -14.8042 -14.5986
   -14.4623 -14.3546 -14.0578 -13.9608 -13.8642 -13.7855 -13.7152 -13.6881
   -13.5679 -13.4322 -13.3653 -13.2648 -13.2575 -12.8829 -12.7123 -12.3862
   -12.2884 -11.9474 -11.8586 -11.8408 -11.6605 -11.5667 -11.5119 -11.3014
   -11.1771 -10.9637 -10.9200 -10.8015 -10.6990 -10.6195 -10.5473 -10.4862
   -10.4034 -10.3074 -10.1817 -10.0807  -9.7414  -9.5730  -9.4821  -9.4280
    -9.3697  -9.3551  -9.2426  -9.1660  -9.1332  -9.0537  -9.0357  -9.0099
    -8.9795  -8.8460  -8.7936  -8.7686  -8.6507  -8.6047  -8.4842  -8.4333
    -8.4331  -8.3953  -8.3121  -8.2158  -8.1606  -8.1005  -8.0834  -8.0683
    -7.9485  -7.8967  -7.8334  -7.7870  -7.7521  -7.7304  -7.6792  -7.6682
    -7.6535  -7.5797  -7.5354  -7.3496  -7.3089  -7.2873  -7.2805  -7.2359
    -7.0183  -6.9416  -6.9055  -6.8581  -6.8340  -6.7544  -6.7126  -6.6522
    -6.5270  -6.4755  -6.4533  -6.3891  -6.3433  -6.2546  -6.0519  -5.9787
    -5.9489  -5.8635  -5.7871  -5.7571  -5.5591  -5.4365  -5.3169  -5.3051
    -5.2702  -5.2200  -5.1098  -5.0225  -4.7799  -4.7557  -4.5521  -4.4180
    -4.3819  -4.3134  -4.1699  -4.0665  -3.9585  -3.8856  -3.8230  -3.4135
    -3.1321  -2.9962  -2.7042  -1.9227  -0.9505  -0.6848  -0.4832  -0.1763
    -0.0431   0.0668   0.1452   0.2644   0.4148   0.4518   0.5190   0.5755
     0.6595   0.7158   1.0984   1.2705   1.3049   1.4868   1.5997   1.6279
     1.6345   1.6861   1.6983   1.9041   2.0533   2.1764   2.2106   2.2609
     2.2705   2.2804   2.3061   2.5563   2.5982   2.6544   2.6616   2.6730
     2.7317   2.7505   2.8322   2.8912   3.0001   3.0519   3.0872   3.0976
     3.1903   3.2222   3.2406   3.3001   3.3087   3.3991   3.4122   3.4371
     3.5858   3.6124   3.6787   3.7390   3.7465   3.7699   3.8564   3.8889
     4.0391   4.0491   4.0708   4.0798   4.1237   4.1295   4.1455   4.1839
     4.1871   4.2167   4.2418   4.3321   4.3373   4.3636   4.3842   4.3903
     4.3955   4.4329   4.4541   4.4804   4.5300   4.5500   4.6009   4.6737
     4.7095   4.7691   4.8976   4.9569   4.9711   4.9978   5.0817   5.1092
     5.1289   5.1681   5.1786   5.2059   5.2340   5.3819   5.4093   5.4147
     5.4342   5.4468   5.4910   5.4910   5.5341   5.5569   5.5804   5.6306
     5.6525   5.6792   5.7165   5.7442   5.7899   5.8581   5.8659   5.8840
     5.9121   5.9174   5.9386   5.9646   6.0030   6.0202   6.0314   6.0539
     6.0722   6.0743   6.1174   6.1293   6.1354   6.1476   6.2265   6.2478
     6.3106   6.3525   6.3730   6.3866   6.4464   6.4583   6.4958   6.5307
     6.5619   6.5992   6.6302   6.6654   6.6840   6.6863   6.7177   6.7550
     6.7585   6.8109   6.8177   6.8426   6.8537   6.8801   6.8938   6.9142
     6.9258   6.9517   6.9618   6.9989   7.0058   7.0444   7.0605   7.0878
     7.1054   7.1310   7.1443   7.1469   7.1818   7.1844   7.2146   7.2282
     7.2429   7.2797   7.3203   7.3362   7.3636   7.3742   7.3966   7.4145
     7.4279   7.4450   7.4484   7.5167   7.5773   7.5964   7.6086   7.6389
     7.6592   7.6715   7.7128   7.7837   7.8093   7.8372   7.8737   7.9093
     7.9166   7.9390   7.9429   7.9592   7.9874   8.0107   8.0433   8.0568
     8.0633   8.0943   8.1083   8.1560   8.1802   8.2043   8.2264   8.2373
     8.2753   8.2768   8.3337   8.3575   8.3643   8.3741   8.3880   8.4324
     8.4727   8.4869   8.5234   8.5510   8.5614   8.5619   8.5741   8.6457
     8.6550   8.6721   8.7062   8.7204   8.7802   8.8011   8.8213   8.8275
     8.8722   8.8753   8.8815   8.8845   8.8980   8.9195   8.9203   8.9558
     8.9592   8.9661   9.0685   9.0831   9.1066   9.1275   9.1554   9.1655
     9.1894   9.1914   9.1989   9.2335   9.2622   9.2709   9.2915   9.2998
     9.3200   9.3399   9.3603   9.4071   9.4448   9.4759   9.4891   9.5205
     9.5325   9.5396   9.5964   9.6063   9.6247   9.6545   9.6790   9.6935
     9.7092   9.7264   9.7556   9.8321   9.8404   9.8528   9.8713   9.8843
     9.9040   9.9183   9.9386   9.9427   9.9837  10.0116  10.0464  10.0467
    10.1000  10.1319  10.1716  10.2143  10.2310  10.2462  10.2845  10.3025
    10.3129  10.3210  10.3630  10.3874  10.4195  10.4318  10.4444  10.4505
    10.5234  10.5565  10.5763  10.5771  10.5880  10.5978  10.6124  10.6174
    10.6314  10.6537  10.6621  10.7016  10.7165  10.7472  10.7620  10.7779
    10.8155  10.8485  10.8737  10.8789  10.8853  10.9271  10.9477  10.9693
    10.9800  10.9849  11.0021  11.0308

     the Fermi energy is    -1.8843 ev

     Writing output data file AGNR_10_Defect_F.save/

     init_run     :     16.39s CPU     16.92s WALL (       1 calls)
     electrons    :  10305.66s CPU  10418.57s WALL (       1 calls)

     Called by init_run:
     wfcinit      :      0.00s CPU      0.01s WALL (       1 calls)
     potinit      :      0.99s CPU      1.09s WALL (       1 calls)
     hinit0       :     12.62s CPU     12.77s WALL (       1 calls)

     Called by electrons:
     c_bands      :  10305.65s CPU  10418.27s WALL (       1 calls)
     v_of_rho     :      0.77s CPU      0.82s WALL (       1 calls)
     newd         :      0.73s CPU      0.96s WALL (       1 calls)

     Called by c_bands:
     init_us_2    :      1.06s CPU      1.29s WALL (      26 calls)
     cegterg      :  10135.29s CPU  10236.97s WALL (     136 calls)

     Called by sum_band:

     Called by *egterg:
     h_psi        :   2745.25s CPU   2786.83s WALL (    2674 calls)
     s_psi        :    403.45s CPU    405.71s WALL (    2674 calls)
     g_psi        :     13.56s CPU     13.71s WALL (    2512 calls)
     cdiaghg      :   4250.23s CPU   4266.60s WALL (    2538 calls)

     Called by h_psi:
     h_psi:pot    :   2727.57s CPU   2761.80s WALL (    2674 calls)
     h_psi:calbec :    388.23s CPU    392.92s WALL (    2674 calls)
     vloc_psi     :   1935.34s CPU   1962.51s WALL (    2674 calls)
     add_vuspsi   :    403.97s CPU    406.29s WALL (    2674 calls)

     General routines
     calbec       :    388.21s CPU    392.85s WALL (    2674 calls)
     fft          :      0.80s CPU      0.86s WALL (      14 calls)
     ffts         :      0.00s CPU      0.01s WALL (       1 calls)
     fftw         :   1524.25s CPU   1546.13s WALL (  661490 calls)
     interpolate  :      0.05s CPU      0.05s WALL (       1 calls)
     davcio       :      0.00s CPU      7.85s WALL (      52 calls)

     Parallel routines
     fft_scatt_xy :    272.08s CPU    274.56s WALL (  661505 calls)
     fft_scatt_yz :    248.85s CPU    254.39s WALL (  661505 calls)

     PWSCF        :     2h52m CPU       52h 2m WALL

      58h

   This run was terminated on:  20:35:58  16Apr2021            

=------------------------------------------------------------------------------=
   JOB DONE.
=------------------------------------------------------------------------------=
