
     Program PWSCF v.6.3 starts on 16Apr2021 at 17:46:12 

     This program is part of the open-source Quantum ESPRESSO suite
     for quantum simulation of materials; please cite
         "P. Giannozzi et al., J. Phys.:Condens. Matter 21 395502 (2009);
         "P. Giannozzi et al., J. Phys.:Condens. Matter 29 465901 (2017);
          URL http://www.quantum-espresso.org", 
     in publications or presentations arising from this work. More details at
     http://www.quantum-espresso.org/quote

     Parallel version (MPI), running on    16 processors
     R & G space division:  proc/nbgrp/npool/nimage =      16
     Waiting for input...
     Reading input from standard input
     Message from routine read_cards :
     DEPRECATED: no units specified in CELL_PARAMETERS card

     Current dimensions of program PWSCF are:
     Max number of different atomic species (ntypx) = 10
     Max number of k-points (npk) =  40000
     Max angular momentum in pseudopotentials (lmaxx) =  3

     Atomic positions and unit cell read from directory:
     /home/zfwang/scratch/GNRDATASET/AGNR/AGNR_10_Defect_G/AGNR_10_Defect_G.save/


     Subspace diagonalization in iterative solution of the eigenvalue problem:
     a serial algorithm will be used


     Parallelization info
     --------------------
     sticks:   dense  smooth     PW     G-vecs:    dense   smooth      PW
     Min        1795     598    154               268889    51736    6769
     Max        1797     599    155               268893    51739    6771
     Sum       28723    9573   2475              4302255   827793  108323



     bravais-lattice index     =            0
     lattice parameter (alat)  =       1.8897  a.u.
     unit-cell volume          =   24226.2045 (a.u.)^3
     number of atoms/cell      =           94
     number of atomic types    =            2
     number of electrons       =       325.00
     number of Kohn-Sham states=          500
     kinetic-energy cutoff     =      40.0000  Ry
     charge density cutoff     =     480.0000  Ry
     Exchange-correlation      = PBE ( 1  4  3  4 0 0)

     celldm(1)=  18.897261  celldm(2)=   2.106780  celldm(3)=   1.704000
     celldm(4)=   0.000000  celldm(5)=   0.000000  celldm(6)=   0.000000

     crystal axes: (cart. coord. in units of alat)
               a(1) = (  10.000000   0.000000   0.000000 )  
               a(2) = (   0.000000  21.067800   0.000000 )  
               a(3) = (   0.000000   0.000000  17.040000 )  

     reciprocal axes: (cart. coord. in units 2 pi/alat)
               b(1) = (  0.100000  0.000000  0.000000 )  
               b(2) = (  0.000000  0.047466  0.000000 )  
               b(3) = (  0.000000  0.000000  0.058685 )  


     PseudoPot. # 1 for C  read from file:
     /home/zfwang/hp_home/MySoftware/qe-6.3/pseudo/C.pbe-n-rrkjus_psl.0.1.UPF
     MD5 check sum: fff530ed632a789b3b184014e67dd7f1
     Pseudo is Ultrasoft + core correction, Zval =  4.0
     Generated using "atomic" code by A. Dal Corso v.5.0.2 svn rev. 9415
     Using radial grid of 1073 points,  4 beta functions with: 
                l(1) =   0
                l(2) =   0
                l(3) =   1
                l(4) =   1
     Q(r) pseudized with 0 coefficients 


     PseudoPot. # 2 for H  read from file:
     /home/zfwang/hp_home/MySoftware/qe-6.3/pseudo/H.pbe-rrkjus_psl.0.1.UPF
     MD5 check sum: e164a6907b691c6980f16942be34de84
     Pseudo is Ultrasoft, Zval =  1.0
     Generated using "atomic" code by A. Dal Corso v.5.0.2 svn rev. 9415
     Using radial grid of  929 points,  2 beta functions with: 
                l(1) =   0
                l(2) =   0
     Q(r) pseudized with 0 coefficients 


     atomic species   valence    mass     pseudopotential
        C              4.00    12.01070     C ( 1.00)
        H              1.00     1.00794     H ( 1.00)

     No symmetry found



   Cartesian axes

     site n.     atom                  positions (alat units)
         1           C   tau(   1) = (   5.0000008   4.9974266   2.7839170  )
         2           C   tau(   2) = (   5.0000004   4.9860735   7.0555143  )
         3           C   tau(   3) = (   5.0000002   5.0086075  11.3263035  )
         4           C   tau(   4) = (   5.0000001   5.0220588  15.5737711  )
         5           C   tau(   5) = (   5.0000009   6.2006814   3.5208355  )
         6           C   tau(   6) = (   5.0000004   6.1935109   7.7888904  )
         7           C   tau(   7) = (   5.0000001   6.2204189  12.0507874  )
         8           C   tau(   8) = (   5.0000002   6.2279299  16.3026340  )
         9           C   tau(   9) = (   5.0000005   5.0063939   1.4176481  )
        10           C   tau(  10) = (   5.0000006   4.9861163   5.6879977  )
        11           C   tau(  11) = (   5.0000003   4.9983256   9.9600561  )
        12           C   tau(  12) = (   5.0000000   5.0242885  14.2090054  )
        13           C   tau(  13) = (   5.0000007   7.4329015   2.8186675  )
        14           C   tau(  14) = (   5.0000006   7.4209828   7.0837412  )
        15           C   tau(  15) = (   5.0000000   7.4463178  11.3469960  )
        16           C   tau(  16) = (   5.0000001   7.4608603  15.6011021  )
        17           C   tau(  17) = (   5.0000007   8.6669638   3.5305848  )
        18           C   tau(  18) = (   5.0000005   8.6586103   7.7965749  )
        19           C   tau(  19) = (   5.0000000   8.6904810  12.0574081  )
        20           C   tau(  20) = (   5.0000000   8.7002008  16.3091564  )
        21           C   tau(  21) = (   5.0000004   6.2174764   0.6917780  )
        22           C   tau(  22) = (   5.0000009   6.1929185   4.9536670  )
        23           C   tau(  23) = (   5.0000003   6.2002456   9.2221794  )
        24           C   tau(  24) = (   5.0000000   6.2306687  13.4804423  )
        25           C   tau(  25) = (   5.0000005   7.4460386   1.3954757  )
        26           C   tau(  26) = (   5.0000008   7.4213172   5.6592366  )
        27           C   tau(  27) = (   5.0000002   7.4335483   9.9244975  )
        28           C   tau(  28) = (   5.0000000   7.4649303  14.1810747  )
        29           C   tau(  29) = (   5.0000001   9.8991543   2.8190654  )
        30           C   tau(  30) = (   5.0000005   9.8844699   7.0839939  )
        31           C   tau(  31) = (   5.0000002   9.9164844  11.3500440  )
        32           C   tau(  32) = (   4.9999997   9.9364187  15.6021293  )
        33           C   tau(  33) = (   4.9999998  11.1228813   3.5319913  )
        34           C   tau(  34) = (   5.0000005  11.1115294   7.7922093  )
        35           C   tau(  35) = (   5.0000000  11.1548280  12.0579600  )
        36           C   tau(  36) = (   4.9999995  11.1743856  16.3078744  )
        37           C   tau(  37) = (   5.0000001   8.6860215   0.6852086  )
        38           C   tau(  38) = (   5.0000007   8.6576507   4.9464138  )
        39           C   tau(  39) = (   5.0000003   8.6666596   9.2124700  )
        40           C   tau(  40) = (   5.0000000   8.7061936  13.4729513  )
        41           C   tau(  41) = (   4.9999999   9.9157896   1.3962673  )
        42           C   tau(  42) = (   5.0000005   9.8851822   5.6590530  )
        43           C   tau(  43) = (   5.0000003   9.9003424   9.9233917  )
        44           C   tau(  44) = (   4.9999998   9.9468064  14.1807713  )
        45           C   tau(  45) = (   4.9999994  12.3588726   2.8303218  )
        46           C   tau(  46) = (   5.0000004  12.3355281   7.0725328  )
        47           C   tau(  47) = (   5.0000001  12.3814517  11.3440742  )
        48           C   tau(  48) = (   4.9999992  12.4136367  15.6096103  )
        49           C   tau(  49) = (   4.9999994  13.5865278   3.5538965  )
        50           C   tau(  50) = (   5.0000005  13.5720762   7.7672664  )
        51           C   tau(  51) = (   4.9999999  13.6275398  12.0422145  )
        52           C   tau(  52) = (   4.9999990  13.6465486  16.3401586  )
        53           C   tau(  53) = (   4.9999995  11.1510008   0.6947789  )
        54           C   tau(  54) = (   5.0000001  11.1088494   4.9502416  )
        55           C   tau(  55) = (   5.0000004  11.1185917   9.2125579  )
        56           C   tau(  56) = (   4.9999997  11.1875040  13.4766222  )
        57           C   tau(  57) = (   4.9999992  12.3739917   1.4171048  )
        58           C   tau(  58) = (   5.0000000  12.3380388   5.6631951  )
        59           C   tau(  59) = (   5.0000004  12.3586842   9.9202303  )
        60           C   tau(  60) = (   4.9999994  12.4494348  14.1803496  )
        61           C   tau(  61) = (   4.9999993  14.8272269   2.8825639  )
        62           C   tau(  62) = (   5.0000003  14.7693040   7.0657596  )
        63           C   tau(  63) = (   5.0000001  14.7889756  11.2461389  )
        64           C   tau(  64) = (   4.9999990  14.8898472  15.6686338  )
        65           C   tau(  65) = (   4.9999996  16.0406513   3.6228779  )
        66           C   tau(  66) = (   4.9999993  16.0654383  16.4456936  )
        67           C   tau(  67) = (   4.9999990  13.6188320   0.7262341  )
        68           C   tau(  68) = (   4.9999997  13.5677202   4.9648731  )
        69           C   tau(  69) = (   5.0000007  13.5663231   9.1929574  )
        70           C   tau(  70) = (   4.9999995  13.6934687  13.4706176  )
        71           C   tau(  71) = (   4.9999991  14.8321589   1.4617680  )
        72           C   tau(  72) = (   5.0000000  14.7965485   5.6805389  )
        73           C   tau(  73) = (   5.0000006  14.7724961   9.8910341  )
        74           C   tau(  74) = (   4.9999991  14.9796044  14.2029713  )
        75           C   tau(  75) = (   4.9999992  16.0460253   0.7642280  )
        76           C   tau(  76) = (   5.0000000  16.0293736   4.9829236  )
        77           C   tau(  77) = (   4.9999987  16.2739960  13.7295901  )
        78           H   tau(  78) = (   5.0000009   4.0384936   3.2957948  )
        79           H   tau(  79) = (   5.0000001   4.0295520   7.5722932  )
        80           H   tau(  80) = (   5.0000000   4.0558772  11.8489399  )
        81           H   tau(  81) = (   5.0000000   4.0660594  16.0899395  )
        82           H   tau(  82) = (   5.0000003   4.0525543   0.8972055  )
        83           H   tau(  83) = (   5.0000004   4.0290115   5.1729051  )
        84           H   tau(  84) = (   5.0000003   4.0385573   9.4505109  )
        85           H   tau(  85) = (   5.0000000   4.0692003  13.6921336  )
        86           H   tau(  86) = (   4.9999998  16.9969783   3.1082602  )
        87           H   tau(  87) = (   4.9999999  17.0485157  15.9947016  )
        88           H   tau(  88) = (   4.9999996  16.9949711   1.2911180  )
        89           H   tau(  89) = (   5.0000003  16.9590884   5.5536935  )
        90           H   tau(  90) = (   4.9999978  17.0968089  14.4274797  )
        91           H   tau(  91) = (   5.0000004  15.7261801   7.5796777  )
        92           H   tau(  92) = (   4.9999997  15.7552949  11.6858789  )
        93           H   tau(  93) = (   5.0000007  15.7266389   9.3737399  )
        94           H   tau(  94) = (   4.9999995  16.6584519  12.7294835  )

     number of k points=    26  Marzari-Vanderbilt smearing, width (Ry)=  0.0100
                       cart. coord. in units 2pi/alat
        k(    1) = (   0.0000000   0.0000000   0.0000000), wk =   0.0400000
        k(    2) = (   0.0000000   0.0000000   0.0011737), wk =   0.0800000
        k(    3) = (   0.0000000   0.0000000   0.0023474), wk =   0.0800000
        k(    4) = (   0.0000000   0.0000000   0.0035211), wk =   0.0800000
        k(    5) = (   0.0000000   0.0000000   0.0046948), wk =   0.0800000
        k(    6) = (   0.0000000   0.0000000   0.0058685), wk =   0.0800000
        k(    7) = (   0.0000000   0.0000000   0.0070423), wk =   0.0800000
        k(    8) = (   0.0000000   0.0000000   0.0082160), wk =   0.0800000
        k(    9) = (   0.0000000   0.0000000   0.0093897), wk =   0.0800000
        k(   10) = (   0.0000000   0.0000000   0.0105634), wk =   0.0800000
        k(   11) = (   0.0000000   0.0000000   0.0117371), wk =   0.0800000
        k(   12) = (   0.0000000   0.0000000   0.0129108), wk =   0.0800000
        k(   13) = (   0.0000000   0.0000000   0.0140845), wk =   0.0800000
        k(   14) = (   0.0000000   0.0000000   0.0152582), wk =   0.0800000
        k(   15) = (   0.0000000   0.0000000   0.0164319), wk =   0.0800000
        k(   16) = (   0.0000000   0.0000000   0.0176056), wk =   0.0800000
        k(   17) = (   0.0000000   0.0000000   0.0187793), wk =   0.0800000
        k(   18) = (   0.0000000   0.0000000   0.0199531), wk =   0.0800000
        k(   19) = (   0.0000000   0.0000000   0.0211268), wk =   0.0800000
        k(   20) = (   0.0000000   0.0000000   0.0223005), wk =   0.0800000
        k(   21) = (   0.0000000   0.0000000   0.0234742), wk =   0.0800000
        k(   22) = (   0.0000000   0.0000000   0.0246479), wk =   0.0800000
        k(   23) = (   0.0000000   0.0000000   0.0258216), wk =   0.0800000
        k(   24) = (   0.0000000   0.0000000   0.0269953), wk =   0.0800000
        k(   25) = (   0.0000000   0.0000000   0.0281690), wk =   0.0800000
        k(   26) = (   0.0000000   0.0000000  -0.0293427), wk =   0.0400000

     Dense  grid:  4302255 G-vectors     FFT dimensions: ( 135, 288, 225)

     Smooth grid:   827793 G-vectors     FFT dimensions: (  80, 162, 135)

     Estimated max dynamical RAM per process >     978.23 MB

     Estimated total dynamical RAM >      15.28 GB

     The potential is recalculated from file :
     /home/zfwang/scratch/GNRDATASET/AGNR/AGNR_10_Defect_G/AGNR_10_Defect_G.save/charge-density.dat


     negative rho (up, down):  1.387E-04 0.000E+00
     Starting wfcs are  325 randomized atomic wfcs +  175 random wfcs

     Band Structure Calculation
     Davidson diagonalization with overlap
     c_bands:  1 eigenvalues not converged
     c_bands:  1 eigenvalues not converged
     c_bands:  2 eigenvalues not converged
     c_bands:  1 eigenvalues not converged

     ethr =  3.08E-09,  avg # of iterations = 92.3

     total cpu time spent up to now is    10305.2 secs

     End of band structure calculation

          k = 0.0000 0.0000 0.0000 (103407 PWs)   bands (ev):

   -21.1419 -20.7821 -20.7628 -20.6283 -20.2764 -20.2506 -19.8720 -19.6811
   -19.6666 -19.5148 -19.4451 -19.2285 -19.0833 -18.8407 -18.5822 -18.5010
   -18.2819 -18.1858 -17.8818 -17.8678 -17.6388 -17.5339 -17.4914 -17.3650
   -17.3056 -17.0758 -16.9219 -16.6499 -16.6417 -16.4170 -16.2442 -16.1925
   -16.0154 -15.8800 -15.8421 -15.5598 -15.3788 -14.9618 -14.8720 -14.6522
   -14.5311 -14.4723 -14.3286 -14.2455 -14.1225 -14.0173 -13.9787 -13.7109
   -13.4979 -13.0349 -12.9090 -12.8442 -12.7823 -12.6699 -12.3851 -12.3667
   -12.3546 -12.2925 -12.0521 -11.9938 -11.9406 -11.8444 -11.3956 -11.3727
   -11.2832 -10.9210 -10.8655 -10.7625 -10.6759 -10.5838 -10.4593 -10.4036
   -10.2941 -10.0905 -10.0353  -9.8083  -9.7212  -9.6860  -9.6097  -9.5252
    -9.3610  -9.2829  -9.2401  -9.2197  -9.2134  -9.0183  -8.9753  -8.8444
    -8.7838  -8.7656  -8.6280  -8.5919  -8.5391  -8.4574  -8.4419  -8.4149
    -8.3970  -8.3548  -8.3001  -8.2521  -8.2177  -8.2051  -8.1883  -8.1855
    -8.0957  -8.0370  -7.8921  -7.8428  -7.8230  -7.7605  -7.6934  -7.5974
    -7.5713  -7.4880  -7.4796  -7.3424  -7.2758  -7.2021  -7.1793  -7.0813
    -7.0092  -6.9589  -6.9443  -6.8620  -6.8462  -6.7451  -6.6050  -6.5532
    -6.3924  -6.3017  -6.2918  -6.1886  -6.0816  -6.0697  -5.9810  -5.9311
    -5.9153  -5.8085  -5.7495  -5.5711  -5.4938  -5.4794  -5.2720  -5.1817
    -5.1564  -5.1212  -5.0005  -4.9704  -4.9177  -4.7548  -4.5522  -4.3367
    -4.2916  -4.1678  -4.0047  -3.8986  -3.8835  -3.7291  -3.5848  -3.3235
    -2.9139  -2.3927  -1.8885  -1.1625  -0.7951  -0.4198  -0.1860  -0.1154
    -0.0928   0.0932   0.1526   0.1990   0.5580   0.6213   0.8459   0.9477
     1.1667   1.2784   1.3639   1.4700   1.5022   1.5239   1.5619   1.6419
     1.6791   1.8095   1.9145   1.9463   1.9506   2.0046   2.0236   2.0350
     2.1000   2.4128   2.5324   2.5998   2.6268   2.6489   2.7096   2.7927
     2.8612   2.9806   3.0212   3.0240   3.0835   3.1010   3.1080   3.1806
     3.2440   3.2565   3.2870   3.3436   3.3650   3.4627   3.4687   3.4921
     3.5262   3.5441   3.5520   3.6953   3.7003   3.7557   3.8080   3.8172
     3.9566   3.9758   4.0466   4.1111   4.1192   4.1799   4.2713   4.2778
     4.3568   4.4077   4.4291   4.4908   4.4957   4.5225   4.5767   4.6008
     4.6130   4.6679   4.7168   4.7495   4.7735   4.7914   4.8186   4.8222
     4.9172   4.9220   4.9572   4.9635   4.9847   5.0695   5.0871   5.1247
     5.1529   5.1663   5.1870   5.2325   5.2536   5.2582   5.3305   5.3390
     5.3560   5.3674   5.4227   5.4646   5.4731   5.4881   5.5946   5.6833
     5.6869   5.7692   5.8521   5.8861   5.9138   5.9558   5.9794   5.9877
     6.0119   6.0192   6.0212   6.0351   6.0420   6.0750   6.0851   6.1408
     6.2124   6.2222   6.2512   6.2535   6.2625   6.2933   6.2958   6.3120
     6.3453   6.3862   6.4086   6.4173   6.4818   6.4998   6.5400   6.5527
     6.5703   6.5902   6.5925   6.6033   6.6191   6.6486   6.6889   6.7311
     6.7563   6.7680   6.8038   6.8419   6.8512   6.8653   6.8932   6.9553
     6.9742   6.9772   6.9861   6.9967   7.0452   7.0478   7.1010   7.1241
     7.1335   7.1751   7.1923   7.2272   7.2616   7.2752   7.2971   7.3097
     7.3328   7.3443   7.3707   7.3736   7.3884   7.4214   7.4587   7.4827
     7.4841   7.5387   7.5682   7.6081   7.6110   7.6288   7.6601   7.6729
     7.6908   7.7089   7.7270   7.7592   7.7855   7.7925   7.8040   7.8139
     7.8437   7.8766   7.8974   7.9280   7.9469   8.0031   8.0248   8.0255
     8.0313   8.0447   8.0882   8.1183   8.1524   8.2301   8.3036   8.3346
     8.3635   8.3748   8.3921   8.3984   8.4548   8.4782   8.5361   8.5545
     8.5562   8.5757   8.5870   8.6124   8.6216   8.6349   8.6413   8.6965
     8.6975   8.7413   8.7506   8.7569   8.7813   8.7972   8.8114   8.8231
     8.8347   8.8454   8.9062   8.9656   8.9736   9.0385   9.0672   9.0955
     9.1123   9.1139   9.1880   9.1896   9.2022   9.2077   9.2368   9.2651
     9.2660   9.2846   9.2895   9.3366   9.3397   9.3518   9.3652   9.3961
     9.3999   9.4192   9.4556   9.4728   9.4840   9.4929   9.5146   9.5436
     9.5679   9.5705   9.5733   9.6013   9.6262   9.6728   9.7010   9.7104
     9.7261   9.7751   9.8175   9.8648   9.8826   9.9057   9.9195   9.9249
     9.9355   9.9847   9.9877  10.0239  10.0259  10.0340  10.0460  10.0555
    10.0645  10.0835  10.0920  10.0925  10.1286  10.1744  10.1904  10.1963
    10.2138  10.2976  10.3291  10.3497  10.3810  10.5415  10.5465  10.5894
    10.6279  10.6576  10.6953  10.7115  10.7234  10.7306  10.7485  10.7753
    10.7852  10.7947  10.8120  10.8188  10.8204  10.8344  10.8419  10.8790
    10.8804  10.9016  10.9126  10.9242  10.9691  10.9733  10.9892  11.0161
    11.0183  11.0458  11.0758  11.1056

          k = 0.0000 0.0000 0.0012 (103433 PWs)   bands (ev):

   -21.1418 -20.7891 -20.7558 -20.6280 -20.2822 -20.2446 -19.8719 -19.7020
   -19.6461 -19.5162 -19.4429 -19.2330 -19.0783 -18.8406 -18.5854 -18.4989
   -18.2830 -18.1832 -17.9166 -17.8328 -17.6401 -17.5403 -17.4884 -17.3724
   -17.2941 -17.0753 -16.9227 -16.6729 -16.6175 -16.4180 -16.2438 -16.1917
   -16.0179 -15.8822 -15.8410 -15.5605 -15.3803 -14.9621 -14.8696 -14.6555
   -14.5294 -14.4694 -14.3300 -14.2425 -14.1221 -14.0208 -13.9746 -13.7114
   -13.4977 -13.0353 -12.9148 -12.8380 -12.7851 -12.6676 -12.4366 -12.3671
   -12.3139 -12.2871 -12.0506 -11.9944 -11.9359 -11.8432 -11.4013 -11.3704
   -11.2802 -10.9221 -10.8643 -10.7722 -10.6700 -10.5801 -10.4643 -10.4000
   -10.2938 -10.0986 -10.0271  -9.8100  -9.7232  -9.6836  -9.6078  -9.5245
    -9.3693  -9.3015  -9.2437  -9.2132  -9.1916  -9.0163  -8.9750  -8.8439
    -8.7934  -8.7559  -8.6276  -8.5950  -8.5400  -8.4726  -8.4450  -8.4122
    -8.3878  -8.3598  -8.2877  -8.2543  -8.2180  -8.2149  -8.1860  -8.1780
    -8.0950  -8.0355  -7.8924  -7.8424  -7.8220  -7.7604  -7.6918  -7.6010
    -7.5671  -7.5160  -7.4523  -7.3446  -7.2723  -7.2047  -7.1801  -7.0800
    -7.0087  -6.9682  -6.9448  -6.8524  -6.8471  -6.7455  -6.6049  -6.5513
    -6.3975  -6.3047  -6.2875  -6.1870  -6.1074  -6.0444  -5.9843  -5.9312
    -5.9099  -5.8122  -5.7468  -5.5698  -5.5305  -5.4428  -5.2728  -5.1929
    -5.1457  -5.1216  -5.0008  -4.9875  -4.9017  -4.7523  -4.5523  -4.3396
    -4.2954  -4.1634  -4.0025  -3.8996  -3.8833  -3.7329  -3.5809  -3.3245
    -2.9143  -2.3943  -1.8886  -1.1609  -0.7945  -0.4187  -0.1882  -0.1186
    -0.0863   0.0917   0.1544   0.1993   0.5455   0.6313   0.8468   0.9478
     1.1669   1.2743   1.3667   1.4702   1.4789   1.5241   1.5867   1.6342
     1.6872   1.8097   1.8887   1.9113   2.0017   2.0093   2.0170   2.0478
     2.1009   2.4095   2.5298   2.5970   2.6325   2.6509   2.7093   2.7915
     2.8607   2.9777   3.0139   3.0290   3.0716   3.1075   3.1189   3.1803
     3.2408   3.2484   3.2961   3.3454   3.3665   3.4555   3.4648   3.4922
     3.5215   3.5304   3.5857   3.6785   3.7169   3.7566   3.7940   3.8312
     3.9530   3.9754   4.0392   4.1069   4.1229   4.1859   4.2714   4.2812
     4.3517   4.4119   4.4297   4.4811   4.4964   4.5319   4.5571   4.6125
     4.6161   4.6686   4.7153   4.7465   4.7724   4.7998   4.8177   4.8240
     4.9066   4.9146   4.9529   4.9735   4.9896   5.0641   5.0875   5.1280
     5.1505   5.1654   5.1792   5.2304   5.2518   5.2560   5.3217   5.3409
     5.3694   5.3854   5.4246   5.4651   5.4745   5.4904   5.5958   5.6833
     5.6880   5.7688   5.8500   5.8855   5.9093   5.9462   5.9632   5.9690
     5.9965   6.0103   6.0431   6.0529   6.0624   6.0822   6.0913   6.1420
     6.1917   6.2106   6.2423   6.2701   6.2717   6.2846   6.3045   6.3268
     6.3371   6.3797   6.3993   6.4403   6.4665   6.5072   6.5378   6.5428
     6.5593   6.5921   6.6018   6.6174   6.6188   6.6544   6.6914   6.7291
     6.7537   6.7643   6.8063   6.8440   6.8569   6.8663   6.8935   6.9441
     6.9663   6.9739   6.9891   7.0151   7.0411   7.0434   7.0986   7.1256
     7.1359   7.1615   7.1896   7.2340   7.2528   7.2831   7.2984   7.3070
     7.3379   7.3478   7.3710   7.3712   7.3885   7.4192   7.4553   7.4859
     7.4863   7.5357   7.5514   7.6078   7.6097   7.6339   7.6458   7.6752
     7.7111   7.7206   7.7222   7.7632   7.7750   7.7867   7.8065   7.8182
     7.8593   7.8759   7.8977   7.9236   7.9479   7.9888   8.0243   8.0245
     8.0466   8.0536   8.0896   8.1181   8.1558   8.2302   8.2994   8.3173
     8.3603   8.3643   8.3956   8.4217   8.4485   8.4811   8.5278   8.5455
     8.5565   8.5795   8.5878   8.6066   8.6340   8.6364   8.6486   8.6902
     8.7023   8.7261   8.7412   8.7561   8.7728   8.7873   8.8109   8.8412
     8.8490   8.8632   8.9072   8.9597   8.9723   9.0387   9.0643   9.1070
     9.1109   9.1150   9.1804   9.1867   9.1933   9.2056   9.2361   9.2604
     9.2694   9.2805   9.3006   9.3203   9.3369   9.3506   9.3646   9.3856
     9.3976   9.4293   9.4579   9.4782   9.4865   9.4990   9.5190   9.5417
     9.5673   9.5712   9.5924   9.5992   9.6252   9.6679   9.6959   9.7075
     9.7320   9.7743   9.8174   9.8645   9.8813   9.8915   9.9201   9.9210
     9.9442   9.9852   9.9872  10.0196  10.0268  10.0343  10.0482  10.0502
    10.0721  10.0741  10.0946  10.0980  10.1252  10.1848  10.1970  10.2012
    10.2189  10.2928  10.3227  10.3550  10.3807  10.5394  10.5414  10.5845
    10.6211  10.6638  10.6930  10.7113  10.7216  10.7264  10.7490  10.7701
    10.7750  10.7933  10.8056  10.8274  10.8306  10.8426  10.8437  10.8697
    10.8816  10.9055  10.9153  10.9279  10.9619  10.9749  10.9935  11.0189
    11.0191  11.0562  11.0641  11.1023

          k = 0.0000 0.0000 0.0023 (103431 PWs)   bands (ev):

   -21.1413 -20.8010 -20.7435 -20.6270 -20.2932 -20.2328 -19.8717 -19.7288
   -19.6208 -19.5194 -19.4369 -19.2451 -19.0651 -18.8405 -18.5940 -18.4934
   -18.2857 -18.1758 -17.9571 -17.7915 -17.6442 -17.5541 -17.4859 -17.3829
   -17.2699 -17.0740 -16.9252 -16.6976 -16.5891 -16.4210 -16.2426 -16.1893
   -16.0250 -15.8892 -15.8372 -15.5628 -15.3847 -14.9631 -14.8621 -14.6648
   -14.5248 -14.4611 -14.3336 -14.2343 -14.1212 -14.0280 -13.9654 -13.7128
   -13.4971 -13.0366 -12.9278 -12.8248 -12.7919 -12.6614 -12.4969 -12.3918
   -12.2832 -12.2499 -12.0468 -11.9952 -11.9223 -11.8397 -11.4144 -11.3667
   -11.2723 -10.9252 -10.8610 -10.7938 -10.6592 -10.5701 -10.4749 -10.3928
   -10.2928 -10.1151 -10.0103  -9.8143  -9.7279  -9.6777  -9.6022  -9.5225
    -9.3942  -9.3305  -9.2380  -9.2127  -9.1500  -9.0104  -8.9737  -8.8427
    -8.8084  -8.7406  -8.6264  -8.6048  -8.5440  -8.4949  -8.4559  -8.4217
    -8.3778  -8.3458  -8.2699  -8.2549  -8.2299  -8.2191  -8.1873  -8.1621
    -8.0927  -8.0314  -7.8935  -7.8411  -7.8190  -7.7600  -7.6874  -7.6083
    -7.5580  -7.5479  -7.4232  -7.3491  -7.2633  -7.2124  -7.1820  -7.0769
    -7.0074  -6.9896  -6.9459  -6.8496  -6.8300  -6.7467  -6.6047  -6.5460
    -6.4107  -6.3131  -6.2769  -6.1829  -6.1382  -6.0152  -5.9917  -5.9314
    -5.8965  -5.8214  -5.7403  -5.5733  -5.5660  -5.3998  -5.2755  -5.2109
    -5.1294  -5.1227  -5.0172  -5.0018  -4.8752  -4.7445  -4.5528  -4.3491
    -4.3036  -4.1526  -3.9959  -3.9028  -3.8827  -3.7430  -3.5703  -3.3275
    -2.9155  -2.3993  -1.8889  -1.1563  -0.7929  -0.4154  -0.1948  -0.1221
    -0.0731   0.0877   0.1592   0.2002   0.5192   0.6497   0.8499   0.9480
     1.1675   1.2641   1.3689   1.4464   1.4707   1.5247   1.6191   1.6275
     1.7032   1.8049   1.8367   1.9030   1.9869   2.0233   2.0644   2.0705
     2.1042   2.3999   2.5226   2.5929   2.6454   2.6564   2.7083   2.7884
     2.8591   2.9719   2.9966   3.0409   3.0533   3.1192   3.1366   3.1793
     3.2340   3.2346   3.3131   3.3490   3.3695   3.4439   3.4557   3.4677
     3.5317   3.5406   3.6247   3.6595   3.7340   3.7603   3.7764   3.8483
     3.9421   3.9741   4.0272   4.0802   4.1483   4.1953   4.2716   4.2890
     4.3400   4.4208   4.4327   4.4636   4.4976   4.5291   4.5483   4.6111
     4.6299   4.6703   4.7153   4.7367   4.7780   4.8140   4.8146   4.8298
     4.8798   4.9064   4.9465   4.9789   4.9983   5.0647   5.0886   5.1182
     5.1439   5.1470   5.1896   5.2226   5.2458   5.2503   5.3150   5.3560
     5.3905   5.4198   5.4315   5.4666   5.4807   5.4965   5.5992   5.6835
     5.6913   5.7673   5.8436   5.8762   5.8966   5.9133   5.9331   5.9626
     5.9925   5.9947   6.0552   6.0786   6.0806   6.0976   6.1258   6.1433
     6.1624   6.1875   6.2336   6.2602   6.2741   6.3094   6.3107   6.3331
     6.3482   6.3698   6.4007   6.4411   6.4716   6.5074   6.5079   6.5389
     6.5683   6.5807   6.6105   6.6228   6.6520   6.6625   6.6999   6.7218
     6.7432   6.7683   6.8096   6.8482   6.8618   6.8727   6.8930   6.9264
     6.9622   6.9725   6.9911   7.0235   7.0267   7.0499   7.0909   7.1285
     7.1331   7.1442   7.1942   7.2313   7.2333   7.2885   7.2973   7.3206
     7.3420   7.3506   7.3719   7.3719   7.3910   7.4158   7.4502   7.4869
     7.4898   7.5237   7.5299   7.5799   7.6052   7.6461   7.6517   7.6897
     7.7117   7.7207   7.7452   7.7652   7.7655   7.7904   7.8124   7.8236
     7.8755   7.8859   7.8992   7.9131   7.9513   7.9773   8.0240   8.0259
     8.0501   8.0809   8.0992   8.1195   8.1633   8.2301   8.2811   8.2891
     8.3537   8.3557   8.3984   8.4346   8.4511   8.4868   8.5160   8.5314
     8.5585   8.5639   8.6020   8.6031   8.6342   8.6577   8.6650   8.6705
     8.6970   8.7166   8.7175   8.7462   8.7742   8.7881   8.8139   8.8450
     8.8718   8.9103   8.9109   8.9495   8.9712   9.0392   9.0633   9.1050
     9.1070   9.1360   9.1514   9.1830   9.1885   9.1975   9.2273   9.2523
     9.2666   9.2724   9.2927   9.3221   9.3251   9.3401   9.3550   9.3925
     9.3941   9.4452   9.4620   9.4907   9.4927   9.5115   9.5280   9.5413
     9.5650   9.5751   9.5923   9.6243   9.6305   9.6566   9.6863   9.7064
     9.7432   9.7715   9.8172   9.8539   9.8768   9.8775   9.9029   9.9218
     9.9603   9.9848   9.9905  10.0089  10.0110  10.0326  10.0505  10.0532
    10.0580  10.0885  10.1056  10.1072  10.1266  10.1961  10.2088  10.2266
    10.2327  10.2839  10.3045  10.3626  10.3831  10.5248  10.5333  10.5722
    10.6142  10.6694  10.6852  10.7087  10.7115  10.7156  10.7454  10.7603
    10.7713  10.7950  10.8013  10.8318  10.8320  10.8496  10.8536  10.8682
    10.8830  10.9146  10.9254  10.9337  10.9556  10.9785  10.9986  11.0185
    11.0221  11.0399  11.0810  11.0939

          k = 0.0000 0.0000 0.0035 (103427 PWs)   bands (ev):

   -21.1407 -20.8137 -20.7304 -20.6254 -20.3053 -20.2193 -19.8714 -19.7559
   -19.5980 -19.5218 -19.4283 -19.2618 -19.0465 -18.8402 -18.6062 -18.4865
   -18.2890 -18.1648 -17.9975 -17.7498 -17.6520 -17.5692 -17.4914 -17.3856
   -17.2420 -17.0713 -16.9297 -16.7194 -16.5609 -16.4252 -16.2408 -16.1854
   -16.0358 -15.9015 -15.8307 -15.5669 -15.3914 -14.9654 -14.8496 -14.6780
   -14.5189 -14.4479 -14.3379 -14.2226 -14.1203 -14.0351 -13.9542 -13.7151
   -13.4960 -13.0393 -12.9425 -12.8177 -12.7929 -12.6535 -12.5571 -12.4236
   -12.2776 -12.1898 -12.0422 -11.9948 -11.9015 -11.8338 -11.4311 -11.3634
   -11.2613 -10.9303 -10.8578 -10.8174 -10.6510 -10.5591 -10.4824 -10.3868
   -10.2907 -10.1327  -9.9926  -9.8197  -9.7338  -9.6708  -9.5942  -9.5201
    -9.4309  -9.3536  -9.2288  -9.2119  -9.1106  -9.0015  -8.9693  -8.8408
    -8.8240  -8.7247  -8.6244  -8.6217  -8.5543  -8.5108  -8.4689  -8.4458
    -8.3648  -8.3200  -8.2740  -8.2452  -8.2355  -8.2212  -8.1882  -8.1453
    -8.0882  -8.0255  -7.8952  -7.8381  -7.8142  -7.7594  -7.6812  -7.6155
    -7.5799  -7.5473  -7.4016  -7.3484  -7.2509  -7.2242  -7.1845  -7.0739
    -7.0156  -7.0056  -6.9469  -6.8534  -6.8024  -6.7483  -6.6043  -6.5381
    -6.4280  -6.3256  -6.2643  -6.1779  -6.1677  -5.9994  -5.9883  -5.9317
    -5.8785  -5.8326  -5.7329  -5.6163  -5.5597  -5.3568  -5.2815  -5.2280
    -5.1245  -5.1169  -5.0451  -5.0034  -4.8509  -4.7302  -4.5539  -4.3658
    -4.3111  -4.1397  -3.9853  -3.9077  -3.8816  -3.7573  -3.5551  -3.3326
    -2.9174  -2.4074  -1.8894  -1.1487  -0.7901  -0.4100  -0.2055  -0.1215
    -0.0577   0.0822   0.1657   0.2018   0.4886   0.6664   0.8560   0.9481
     1.1685   1.2515   1.3519   1.4348   1.4715   1.5255   1.6025   1.6676
     1.7212   1.7622   1.8272   1.8918   1.9692   2.0361   2.0784   2.1118
     2.1321   2.3852   2.5119   2.5902   2.6612   2.6628   2.7067   2.7852
     2.8559   2.9663   2.9755   3.0346   3.0558   3.1278   3.1539   3.1770
     3.2220   3.2297   3.3319   3.3522   3.3691   3.4233   3.4448   3.4536
     3.5533   3.5534   3.6408   3.6646   3.7459   3.7589   3.7705   3.8629
     3.9265   3.9702   4.0188   4.0499   4.1784   4.2022   4.2717   4.2957
     4.3259   4.4285   4.4405   4.4453   4.4897   4.5128   4.5638   4.6103
     4.6306   4.6712   4.7117   4.7360   4.7867   4.8081   4.8276   4.8408
     4.8522   4.8938   4.9418   4.9690   5.0060   5.0755   5.0894   5.0996
     5.1176   5.1352   5.2093   5.2199   5.2333   5.2441   5.3187   5.3820
     5.4091   5.4443   5.4490   5.4694   5.5007   5.5060   5.6047   5.6837
     5.6964   5.7646   5.8305   5.8373   5.8826   5.9010   5.9037   5.9618
     5.9769   5.9910   6.0664   6.0838   6.1001   6.1071   6.1292   6.1518
     6.1659   6.1815   6.2235   6.2415   6.2699   6.2930   6.3442   6.3498
     6.3622   6.3710   6.4056   6.4299   6.4724   6.4925   6.5043   6.5392
     6.5703   6.5768   6.6128   6.6400   6.6669   6.6862   6.6930   6.7278
     6.7430   6.7750   6.8122   6.8442   6.8627   6.8690   6.8986   6.9280
     6.9622   6.9664   6.9909   7.0027   7.0192   7.0593   7.0823   7.1187
     7.1311   7.1517   7.2020   7.2030   7.2265   7.2772   7.3002   7.3348
     7.3375   7.3479   7.3725   7.3812   7.4025   7.4187   7.4460   7.4685
     7.4913   7.5061   7.5261   7.5504   7.5973   7.6603   7.6607   7.6894
     7.7094   7.7370   7.7457   7.7624   7.7863   7.7953   7.8171   7.8372
     7.8780   7.8882   7.9033   7.9266   7.9579   7.9782   8.0249   8.0286
     8.0524   8.0901   8.1248   8.1301   8.1704   8.2293   8.2408   8.2783
     8.3398   8.3518   8.3917   8.4212   8.4613   8.4933   8.5082   8.5349
     8.5476   8.5586   8.5928   8.5982   8.6424   8.6480   8.6714   8.6778
     8.6844   8.6968   8.7376   8.7385   8.7792   8.7886   8.8193   8.8477
     8.8902   8.9156   8.9330   8.9645   8.9838   9.0401   9.0632   9.0961
     9.1000   9.1172   9.1432   9.1749   9.1843   9.1984   9.2128   9.2309
     9.2454   9.2706   9.2732   9.3101   9.3327   9.3433   9.3599   9.3917
     9.4025   9.4491   9.4771   9.5000   9.5028   9.5219   9.5354   9.5504
     9.5585   9.5743   9.5835   9.6244   9.6519   9.6646   9.6764   9.7160
     9.7541   9.7727   9.8175   9.8259   9.8715   9.8766   9.8835   9.9238
     9.9647   9.9763   9.9886   9.9922  10.0116  10.0120  10.0312  10.0574
    10.0799  10.1056  10.1149  10.1214  10.1471  10.1928  10.2376  10.2461
    10.2580  10.2769  10.2803  10.3616  10.3945  10.4982  10.5237  10.5610
    10.6107  10.6621  10.6702  10.6881  10.6978  10.7126  10.7386  10.7640
    10.7687  10.7964  10.7979  10.8263  10.8334  10.8452  10.8630  10.8745
    10.8909  10.9273  10.9334  10.9421  10.9660  10.9834  10.9951  11.0036
    11.0243  11.0268  11.0943  11.1045

          k = 0.0000 0.0000 0.0047 (103427 PWs)   bands (ev):

   -21.1397 -20.8264 -20.7172 -20.6230 -20.3174 -20.2052 -19.8709 -19.7828
   -19.5821 -19.5181 -19.4184 -19.2807 -19.0246 -18.8398 -18.6207 -18.4798
   -18.2918 -18.1513 -18.0374 -17.7083 -17.6645 -17.5827 -17.5051 -17.3794
   -17.2136 -17.0668 -16.9369 -16.7374 -16.5342 -16.4298 -16.2385 -16.1800
   -16.0495 -15.9190 -15.8224 -15.5733 -15.3997 -14.9698 -14.8322 -14.6932
   -14.5131 -14.4304 -14.3415 -14.2091 -14.1198 -14.0397 -13.9425 -13.7183
   -13.4944 -13.0443 -12.9563 -12.8277 -12.7775 -12.6474 -12.6152 -12.4587
   -12.2763 -12.1289 -12.0384 -11.9917 -11.8750 -11.8256 -11.4499 -11.3606
   -11.2493 -10.9376 -10.8625 -10.8307 -10.6468 -10.5580 -10.4767 -10.3840
   -10.2872 -10.1486  -9.9774  -9.8246  -9.7396  -9.6650  -9.5864  -9.5201
    -9.4665  -9.3722  -9.2189  -9.2107  -9.0781  -8.9933  -8.9559  -8.8394
    -8.8383  -8.7089  -8.6451  -8.6212  -8.5704  -8.5199  -8.4877  -8.4653
    -8.3502  -8.3061  -8.2737  -8.2602  -8.2262  -8.2159  -8.1840  -8.1279
    -8.0814  -8.0186  -7.8969  -7.8331  -7.8079  -7.7586  -7.6749  -7.6205
    -7.6117  -7.5357  -7.3967  -7.3321  -7.2386  -7.2365  -7.1876  -7.0726
    -7.0432  -7.0048  -6.9463  -6.8580  -6.7726  -6.7501  -6.6036  -6.5296
    -6.4463  -6.3410  -6.2556  -6.1920  -6.1734  -6.0052  -5.9660  -5.9317
    -5.8578  -5.8422  -5.7259  -5.6592  -5.5510  -5.3145  -5.2921  -5.2413
    -5.1271  -5.1197  -5.0584  -5.0057  -4.8318  -4.7085  -4.5561  -4.3870
    -4.3170  -4.1275  -3.9720  -3.9140  -3.8798  -3.7734  -3.5371  -3.3396
    -2.9201  -2.4186  -1.8901  -1.1382  -0.7863  -0.4025  -0.2189  -0.1169
    -0.0416   0.0760   0.1728   0.2046   0.4562   0.6780   0.8661   0.9476
     1.1698   1.2386   1.3150   1.4453   1.4726   1.5267   1.5858   1.6894
     1.7189   1.7398   1.8383   1.8794   1.9512   2.0513   2.0877   2.1254
     2.1937   2.3668   2.4990   2.5892   2.6663   2.6784   2.7056   2.7844
     2.8503   2.9544   2.9621   3.0163   3.0712   3.1262   3.1715   3.1726
     3.2127   3.2330   3.3506   3.3519   3.3617   3.3963   3.4346   3.4617
     3.5668   3.5775   3.6224   3.7045   3.7424   3.7519   3.7877   3.8669
     3.9167   3.9597   4.0146   4.0237   4.2067   4.2100   4.2712   4.2962
     4.3120   4.4255   4.4269   4.4568   4.4716   4.5166   4.5731   4.6137
     4.6219   4.6690   4.6971   4.7507   4.7954   4.7965   4.8271   4.8384
     4.8559   4.8816   4.9380   4.9549   5.0121   5.0598   5.0734   5.0857
     5.1271   5.1285   5.1928   5.2176   5.2372   5.2549   5.3308   5.4128
     5.4247   5.4585   5.4629   5.4744   5.5198   5.5410   5.6120   5.6841
     5.7023   5.7601   5.7824   5.8167   5.8696   5.8710   5.9043   5.9583
     5.9617   5.9911   6.0742   6.0760   6.0877   6.1030   6.1276   6.1668
     6.1747   6.2070   6.2179   6.2242   6.2568   6.2952   6.3499   6.3544
     6.3755   6.3944   6.4181   6.4350   6.4423   6.4964   6.5042   6.5385
     6.5697   6.5839   6.6134   6.6556   6.6652   6.6809   6.7195   6.7387
     6.7613   6.7819   6.8099   6.8270   6.8603   6.8710   6.9080   6.9379
     6.9465   6.9692   6.9832   6.9908   7.0137   7.0434   7.0829   7.1230
     7.1322   7.1607   7.1675   7.2102   7.2227   7.2662   7.2965   7.3237
     7.3300   7.3440   7.3835   7.3851   7.4110   7.4341   7.4370   7.4458
     7.4896   7.4929   7.5268   7.5390   7.5845   7.6557   7.6741   7.6767
     7.7137   7.7560   7.7569   7.7656   7.7958   7.7988   7.8200   7.8510
     7.8829   7.8929   7.9107   7.9523   7.9699   7.9923   8.0261   8.0324
     8.0529   8.0962   8.1325   8.1648   8.1736   8.2017   8.2286   8.2714
     8.3206   8.3440   8.3796   8.4118   8.4512   8.4916   8.5087   8.5262
     8.5468   8.5640   8.5697   8.5967   8.6182   8.6491   8.6577   8.6869
     8.6965   8.7053   8.7359   8.7641   8.7825   8.7917   8.8158   8.8552
     8.8990   8.9236   8.9364   8.9809   9.0314   9.0413   9.0559   9.0776
     9.0878   9.0950   9.1241   9.1520   9.1788   9.1795   9.2006   9.2231
     9.2354   9.2725   9.2762   9.3026   9.3314   9.3332   9.3676   9.4130
     9.4135   9.4377   9.4912   9.5057   9.5163   9.5246   9.5301   9.5449
     9.5646   9.5793   9.5878   9.6226   9.6614   9.6691   9.6763   9.7270
     9.7623   9.7790   9.8156   9.8189   9.8588   9.8640   9.8875   9.9248
     9.9554   9.9587   9.9717   9.9759   9.9998  10.0126  10.0225  10.0575
    10.1091  10.1176  10.1348  10.1390  10.1737  10.1899  10.2384  10.2478
    10.2710  10.2920  10.2926  10.3562  10.4080  10.4696  10.5115  10.5536
    10.6072  10.6373  10.6477  10.6689  10.6797  10.7142  10.7333  10.7574
    10.7807  10.7827  10.7995  10.8252  10.8346  10.8469  10.8710  10.8750
    10.8879  10.9320  10.9425  10.9531  10.9684  10.9889  10.9890  11.0027
    11.0227  11.0309  11.0838  11.1113

          k = 0.0000 0.0000 0.0059 (103441 PWs)   bands (ev):

   -21.1385 -20.8389 -20.7043 -20.6196 -20.3295 -20.1907 -19.8704 -19.8093
   -19.5773 -19.5039 -19.4081 -19.3000 -19.0009 -18.8392 -18.6364 -18.4743
   -18.2932 -18.1365 -18.0761 -17.6854 -17.6635 -17.5936 -17.5229 -17.3682
   -17.1870 -17.0592 -16.9470 -16.7508 -16.5115 -16.4324 -16.2359 -16.1734
   -16.0651 -15.9409 -15.8130 -15.5824 -15.4084 -14.9766 -14.8106 -14.7082
   -14.5084 -14.4095 -14.3431 -14.1956 -14.1200 -14.0401 -13.9309 -13.7224
   -13.4922 -13.0522 -12.9677 -12.8429 -12.7576 -12.6811 -12.6356 -12.4944
   -12.2785 -12.0685 -12.0360 -11.9854 -11.8447 -11.8145 -11.4699 -11.3579
   -11.2377 -10.9483 -10.8786 -10.8275 -10.6465 -10.5686 -10.4589 -10.3831
   -10.2835 -10.1612  -9.9665  -9.8280  -9.7437  -9.6634  -9.5870  -9.5254
    -9.4846  -9.3875  -9.2096  -9.2092  -9.0547  -8.9886  -8.9306  -8.8547
    -8.8356  -8.6938  -8.6724  -8.6166  -8.5898  -8.5280  -8.5130  -8.4728
    -8.3380  -8.3128  -8.2750  -8.2605  -8.2304  -8.2050  -8.1700  -8.1102
    -8.0720  -8.0112  -7.8978  -7.8259  -7.8003  -7.7576  -7.6710  -7.6433
    -7.6211  -7.5236  -7.4034  -7.3048  -7.2547  -7.2208  -7.1917  -7.0741
    -7.0710  -7.0060  -6.9430  -6.8626  -6.7518  -6.7418  -6.6027  -6.5244
    -6.4611  -6.3583  -6.2621  -6.2006  -6.1706  -6.0079  -5.9535  -5.9302
    -5.8459  -5.8355  -5.7198  -5.7018  -5.5402  -5.3115  -5.2696  -5.2502
    -5.1422  -5.1304  -5.0520  -5.0086  -4.8175  -4.6804  -4.5601  -4.4093
    -4.3222  -4.1170  -3.9590  -3.9207  -3.8767  -3.7894  -3.5176  -3.3485
    -2.9235  -2.4327  -1.8910  -1.1251  -0.7814  -0.3930  -0.2340  -0.1088
    -0.0255   0.0699   0.1793   0.2091   0.4232   0.6837   0.8798   0.9462
     1.1716   1.2262   1.2724   1.4634   1.4739   1.5280   1.5695   1.6413
     1.7364   1.7581   1.8600   1.8670   1.9333   2.0676   2.0940   2.1436
     2.2548   2.3461   2.4848   2.5894   2.6618   2.6962   2.7074   2.7879
     2.8410   2.9358   2.9593   2.9984   3.0853   3.1140   3.1666   3.1900
     3.2077   3.2419   3.3346   3.3519   3.3670   3.3857   3.4276   3.4791
     3.5796   3.6027   3.6045   3.7226   3.7485   3.7566   3.8077   3.8513
     3.9240   3.9366   4.0088   4.0132   4.2097   4.2409   4.2689   4.2895
     4.3012   4.4066   4.4069   4.4671   4.4787   4.5246   4.5735   4.6099
     4.6222   4.6628   4.6805   4.7658   4.7746   4.8035   4.8103   4.8412
     4.8690   4.8826   4.9342   4.9434   5.0170   5.0268   5.0495   5.0733
     5.1274   5.1587   5.1742   5.2015   5.2328   5.2917   5.3476   5.4387
     5.4427   5.4688   5.4741   5.4816   5.5394   5.5899   5.6208   5.6847
     5.7074   5.7295   5.7528   5.7958   5.8409   5.8629   5.9065   5.9398
     5.9619   5.9920   6.0442   6.0639   6.0814   6.0987   6.1456   6.1457
     6.1982   6.2040   6.2178   6.2357   6.2494   6.3058   6.3399   6.3599
     6.3810   6.4142   6.4262   6.4431   6.4550   6.4896   6.5020   6.5418
     6.5740   6.5906   6.6152   6.6389   6.6777   6.6869   6.7437   6.7511
     6.7803   6.7846   6.8003   6.8293   6.8588   6.8739   6.9125   6.9150
     6.9406   6.9704   6.9853   6.9882   7.0101   7.0338   7.0794   7.1240
     7.1325   7.1375   7.1718   7.2046   7.2327   7.2580   7.2841   7.3101
     7.3153   7.3431   7.3648   7.3952   7.4110   7.4161   7.4345   7.4667
     7.4716   7.4966   7.5360   7.5409   7.5708   7.6325   7.6726   7.6841
     7.7179   7.7532   7.7607   7.7880   7.7999   7.8146   7.8247   7.8608
     7.8887   7.9121   7.9200   7.9781   7.9884   8.0169   8.0250   8.0385
     8.0534   8.1037   8.1374   8.1566   8.1763   8.2073   8.2284   8.2685
     8.2967   8.3263   8.3750   8.4044   8.4378   8.4708   8.5080   8.5129
     8.5241   8.5594   8.5822   8.5913   8.6104   8.6292   8.6498   8.6936
     8.7147   8.7273   8.7423   8.7828   8.7895   8.7948   8.8100   8.8673
     8.9020   8.9345   8.9401   9.0003   9.0329   9.0406   9.0442   9.0706
     9.0780   9.0844   9.1018   9.1369   9.1453   9.1739   9.1873   9.2171
     9.2538   9.2698   9.2718   9.3075   9.3279   9.3331   9.3659   9.4146
     9.4278   9.4453   9.4914   9.5057   9.5150   9.5272   9.5307   9.5425
     9.5775   9.5793   9.6031   9.6146   9.6683   9.6738   9.6891   9.7200
     9.7660   9.7721   9.8203   9.8228   9.8557   9.8668   9.8979   9.9208
     9.9284   9.9506   9.9523   9.9639   9.9919  10.0009  10.0215  10.0642
    10.1218  10.1386  10.1554  10.1574  10.1902  10.1984  10.2066  10.2446
    10.3009  10.3107  10.3281  10.3509  10.4126  10.4535  10.4978  10.5471
    10.5991  10.6062  10.6187  10.6462  10.6698  10.7153  10.7273  10.7517
    10.7630  10.7881  10.8047  10.8257  10.8353  10.8514  10.8606  10.8824
    10.8850  10.9078  10.9520  10.9581  10.9709  10.9903  10.9951  11.0194
    11.0285  11.0313  11.0791  11.1013

          k = 0.0000 0.0000 0.0070 (103457 PWs)   bands (ev):

   -21.1370 -20.8513 -20.6920 -20.6151 -20.3413 -20.1759 -19.8704 -19.8351
   -19.5808 -19.4817 -19.3989 -19.3178 -18.9762 -18.8384 -18.6529 -18.4705
   -18.2928 -18.1292 -18.1055 -17.7067 -17.6227 -17.6029 -17.5410 -17.3549
   -17.1646 -17.0473 -16.9597 -16.7591 -16.4974 -16.4283 -16.2329 -16.1658
   -16.0817 -15.9665 -15.8032 -15.5950 -15.4166 -14.9862 -14.7874 -14.7201
   -14.5056 -14.3876 -14.3406 -14.1845 -14.1197 -14.0356 -13.9197 -13.7274
   -13.4892 -13.0636 -12.9766 -12.8590 -12.7446 -12.7318 -12.6368 -12.5265
   -12.2833 -12.0372 -12.0075 -11.9750 -11.8156 -11.7970 -11.4906 -11.3555
   -11.2277 -10.9635 -10.8929 -10.8186 -10.6506 -10.5828 -10.4423 -10.3782
   -10.2811 -10.1691  -9.9607  -9.8307  -9.7449  -9.6727  -9.6017  -9.5221
    -9.4866  -9.3987  -9.2073  -9.2012  -9.0400  -8.9847  -8.8991  -8.8697
    -8.8333  -8.7000  -8.6799  -8.6123  -8.6101  -8.5464  -8.5272  -8.4746
    -8.3416  -8.3113  -8.2895  -8.2568  -8.2346  -8.1903  -8.1528  -8.0923
    -8.0601  -8.0033  -7.8968  -7.8164  -7.7922  -7.7565  -7.6747  -7.6708
    -7.6161  -7.5110  -7.4137  -7.2745  -7.2715  -7.2044  -7.1971  -7.0982
    -7.0788  -7.0094  -6.9373  -6.8665  -6.7531  -6.7108  -6.6012  -6.5299
    -6.4654  -6.3769  -6.2846  -6.1927  -6.1703  -6.0071  -5.9535  -5.9285
    -5.8395  -5.8127  -5.7433  -5.7145  -5.5276  -5.3331  -5.2572  -5.2270
    -5.1707  -5.1345  -5.0385  -5.0122  -4.8063  -4.6482  -4.5671  -4.4296
    -4.3274  -4.1083  -3.9532  -3.9244  -3.8722  -3.8021  -3.4972  -3.3593
    -2.9277  -2.4494  -1.8920  -1.1096  -0.7754  -0.3818  -0.2497  -0.0980
    -0.0101   0.0644   0.1844   0.2155   0.3905   0.6836   0.8951   0.9450
     1.1738   1.2104   1.2343   1.4754   1.4832   1.5290   1.5543   1.5853
     1.7533   1.7749   1.8563   1.8922   1.9158   2.0826   2.1011   2.1640
     2.3075   2.3319   2.4702   2.5905   2.6490   2.7121   2.7141   2.7964
     2.8271   2.9215   2.9578   2.9810   3.0950   3.0958   3.1622   3.2060
     3.2089   3.2510   3.3027   3.3445   3.3765   3.3904   3.4290   3.5008
     3.5842   3.5943   3.6283   3.7076   3.7617   3.7882   3.8268   3.8289
     3.9036   3.9396   4.0037   4.0137   4.2115   4.2565   4.2735   4.2775
     4.2990   4.3773   4.3880   4.4701   4.5030   4.5320   4.5694   4.5997
     4.6222   4.6613   4.6636   4.7424   4.7754   4.8019   4.8072   4.8374
     4.8780   4.9000   4.9325   4.9356   4.9900   5.0185   5.0353   5.0572
     5.1276   5.1554   5.1866   5.1938   5.2336   5.3295   5.3667   5.4504
     5.4606   5.4783   5.4884   5.4975   5.5630   5.6298   5.6395   5.6758
     5.6869   5.7127   5.7409   5.7739   5.8172   5.8579   5.9087   5.9215
     5.9619   5.9923   6.0117   6.0335   6.0830   6.0980   6.1213   6.1554
     6.1899   6.1963   6.2407   6.2455   6.2573   6.3034   6.3357   6.3544
     6.3853   6.4304   6.4379   6.4736   6.4752   6.4793   6.5055   6.5482
     6.5784   6.5963   6.6090   6.6293   6.6882   6.6956   6.7395   6.7726
     6.7790   6.7915   6.8161   6.8445   6.8589   6.8754   6.8811   6.9115
     6.9262   6.9703   6.9884   7.0014   7.0041   7.0416   7.0764   7.0856
     7.1342   7.1353   7.1831   7.1986   7.2384   7.2553   7.2708   7.2901
     7.3032   7.3329   7.3440   7.3898   7.3961   7.4230   7.4326   7.4576
     7.4826   7.5009   7.5417   7.5518   7.5680   7.6119   7.6612   7.6899
     7.7163   7.7540   7.7564   7.8018   7.8075   7.8324   7.8429   7.8829
     7.8958   7.9262   7.9294   8.0081   8.0101   8.0210   8.0365   8.0539
     8.0558   8.1063   8.1311   8.1361   8.1853   8.2247   8.2402   8.2665
     8.2723   8.3066   8.3728   8.4002   8.4264   8.4337   8.4898   8.5011
     8.5213   8.5511   8.5617   8.5832   8.6105   8.6416   8.6427   8.7011
     8.7337   8.7501   8.7509   8.7750   8.7934   8.8125   8.8180   8.8792
     8.9046   8.9419   8.9475   8.9921   9.0066   9.0208   9.0310   9.0448
     9.0738   9.0764   9.1140   9.1330   9.1534   9.1678   9.1760   9.2169
     9.2507   9.2648   9.2681   9.3090   9.3232   9.3492   9.3640   9.3978
     9.4377   9.4704   9.4867   9.4981   9.5156   9.5278   9.5279   9.5593
     9.5803   9.5894   9.6019   9.6037   9.6740   9.6797   9.7016   9.7210
     9.7647   9.7754   9.8113   9.8171   9.8496   9.8778   9.8961   9.9109
     9.9229   9.9438   9.9457   9.9658   9.9799   9.9978  10.0163  10.0718
    10.1165  10.1522  10.1605  10.1717  10.1784  10.2070  10.2274  10.2538
    10.3217  10.3291  10.3527  10.3644  10.4018  10.4619  10.4847  10.5374
    10.5709  10.5847  10.5858  10.6288  10.6686  10.7139  10.7184  10.7403
    10.7551  10.7781  10.8091  10.8215  10.8352  10.8432  10.8588  10.8719
    10.8919  10.9007  10.9359  10.9694  10.9704  10.9985  11.0017  11.0264
    11.0320  11.0402  11.0911  11.0930

          k = 0.0000 0.0000 0.0082 (103435 PWs)   bands (ev):

   -21.1352 -20.8635 -20.6806 -20.6091 -20.3529 -20.1608 -19.8741 -19.8568
   -19.5880 -19.4563 -19.3937 -19.3307 -18.9511 -18.8372 -18.6698 -18.4687
   -18.2907 -18.1588 -18.0962 -17.7322 -17.6127 -17.5824 -17.5554 -17.3413
   -17.1483 -17.0310 -16.9727 -16.7626 -16.4953 -16.4145 -16.2298 -16.1581
   -16.0983 -15.9951 -15.7938 -15.6111 -15.4233 -14.9989 -14.7707 -14.7203
   -14.5047 -14.3701 -14.3288 -14.1787 -14.1162 -14.0265 -13.9091 -13.7331
   -13.4855 -13.0779 -12.9840 -12.8744 -12.8002 -12.7146 -12.6491 -12.5484
   -12.2900 -12.0371 -11.9710 -11.9405 -11.7961 -11.7658 -11.5115 -11.3534
   -11.2201 -10.9825 -10.9013 -10.8081 -10.6608 -10.5948 -10.4382 -10.3625
   -10.2812 -10.1714  -9.9590  -9.8352  -9.7444  -9.6989  -9.6118  -9.5088
    -9.4853  -9.4039  -9.2051  -9.1937  -9.0325  -8.9795  -8.8845  -8.8702
    -8.8316  -8.7227  -8.6677  -8.6382  -8.6012  -8.5703  -8.5315  -8.4737
    -8.3591  -8.3036  -8.2994  -8.2634  -8.2380  -8.1717  -8.1374  -8.0740
    -8.0460  -7.9947  -7.8931  -7.8047  -7.7841  -7.7553  -7.7055  -7.6727
    -7.6068  -7.4983  -7.4251  -7.2883  -7.2443  -7.2040  -7.1884  -7.1228
    -7.0869  -7.0141  -6.9311  -6.8686  -6.7538  -6.6803  -6.5987  -6.5468
    -6.4590  -6.3965  -6.3119  -6.1794  -6.1723  -6.0030  -5.9620  -5.9294
    -5.8243  -5.8001  -5.7734  -5.7095  -5.5135  -5.3579  -5.2649  -5.2005
    -5.1818  -5.1393  -5.0239  -5.0163  -4.7968  -4.6157  -4.5765  -4.4455
    -4.3327  -4.1011  -3.9592  -3.9240  -3.8690  -3.8058  -3.4764  -3.3718
    -2.9325  -2.4686  -1.8933  -1.0918  -0.7684  -0.3693  -0.2652  -0.0847
     0.0036   0.0607   0.1877   0.2234   0.3589   0.6789   0.9054   0.9483
     1.1755   1.1763   1.2184   1.4769   1.4954   1.5271   1.5379   1.5431
     1.7636   1.7872   1.8504   1.8987   1.9321   2.0925   2.1138   2.1856
     2.2948   2.3815   2.4553   2.5922   2.6307   2.7178   2.7306   2.8090
     2.8098   2.9117   2.9575   2.9641   3.0749   3.0973   3.1633   3.2063
     3.2273   3.2549   3.2690   3.3409   3.3765   3.4015   3.4416   3.5248
     3.5681   3.6032   3.6531   3.6927   3.7682   3.7982   3.8320   3.8500
     3.8673   3.9570   4.0031   4.0158   4.2117   4.2456   4.2630   4.2849
     4.3163   4.3455   4.3697   4.4740   4.5219   4.5343   4.5665   4.5963
     4.6064   4.6472   4.6681   4.7094   4.7767   4.7950   4.8024   4.8410
     4.8821   4.9197   4.9325   4.9382   4.9536   5.0082   5.0304   5.0492
     5.1199   5.1443   5.1739   5.2302   5.2403   5.3678   5.3860   5.4581
     5.4686   5.4893   5.4965   5.5315   5.5849   5.6161   5.6503   5.6708
     5.7067   5.7125   5.7240   5.7545   5.8005   5.8551   5.9037   5.9104
     5.9606   5.9798   5.9850   6.0107   6.0682   6.0860   6.1225   6.1493
     6.1687   6.2028   6.2359   6.2668   6.2732   6.3017   6.3307   6.3335
     6.4052   6.4452   6.4628   6.4660   6.4838   6.5126   6.5163   6.5610
     6.5807   6.5928   6.6036   6.6340   6.6834   6.7038   6.7336   6.7795
     6.7937   6.7981   6.8281   6.8518   6.8568   6.8681   6.8770   6.8953
     6.9269   6.9676   6.9889   6.9964   7.0272   7.0443   7.0519   7.0793
     7.1322   7.1324   7.1813   7.2023   7.2308   7.2480   7.2573   7.2788
     7.2951   7.3050   7.3455   7.3698   7.3906   7.4265   7.4355   7.4445
     7.4915   7.5032   7.5303   7.5535   7.5938   7.5963   7.6490   7.6930
     7.7132   7.7535   7.7550   7.8053   7.8231   7.8435   7.8740   7.9037
     7.9149   7.9365   7.9384   8.0072   8.0294   8.0406   8.0532   8.0598
     8.0641   8.0944   8.1342   8.1466   8.1969   8.2144   8.2373   8.2595
     8.2837   8.2970   8.3596   8.3867   8.4135   8.4181   8.4719   8.4837
     8.5147   8.5308   8.5460   8.5824   8.5935   8.6410   8.6762   8.7057
     8.7541   8.7541   8.7627   8.7735   8.7932   8.8313   8.8317   8.8865
     8.9097   8.9284   8.9522   8.9633   8.9830   8.9864   9.0256   9.0463
     9.0637   9.0818   9.0984   9.1348   9.1610   9.1652   9.2006   9.2208
     9.2407   9.2574   9.2647   9.3012   9.3180   9.3519   9.3615   9.4132
     9.4449   9.4633   9.4871   9.5020   9.5180   9.5295   9.5410   9.5617
     9.5740   9.5927   9.5964   9.6091   9.6670   9.6831   9.7042   9.7537
     9.7588   9.7815   9.8038   9.8081   9.8479   9.8655   9.8767   9.8971
     9.9207   9.9387   9.9427   9.9685   9.9968  10.0016  10.0218  10.0749
    10.1056  10.1075  10.1798  10.1883  10.1974  10.2195  10.2357  10.2791
    10.3233  10.3511  10.3653  10.3938  10.4011  10.4760  10.4792  10.5198
    10.5398  10.5513  10.5619  10.6191  10.6746  10.7049  10.7055  10.7312
    10.7521  10.7602  10.7984  10.8123  10.8195  10.8295  10.8679  10.8764
    10.8960  10.9079  10.9220  10.9600  10.9719  11.0030  11.0087  11.0293
    11.0411  11.0546  11.0765  11.1058

          k = 0.0000 0.0000 0.0094 (103429 PWs)   bands (ev):

   -21.1332 -20.8754 -20.6704 -20.6013 -20.3641 -20.1456 -19.8927 -19.8631
   -19.5966 -19.4317 -19.3954 -19.3337 -18.9265 -18.8352 -18.6867 -18.4688
   -18.2877 -18.1946 -18.0784 -17.7595 -17.6250 -17.5732 -17.5346 -17.3280
   -17.1389 -17.0174 -16.9776 -16.7618 -16.5016 -16.3949 -16.2265 -16.1525
   -16.1123 -16.0256 -15.7852 -15.6307 -15.4282 -15.0148 -14.7703 -14.6988
   -14.5055 -14.3613 -14.3041 -14.1794 -14.1080 -14.0135 -13.8992 -13.7394
   -13.4811 -13.0944 -12.9918 -12.8882 -12.8585 -12.6975 -12.6730 -12.5571
   -12.2981 -12.0375 -11.9573 -11.8817 -11.7798 -11.7283 -11.5324 -11.3517
   -11.2158 -11.0024 -10.9049 -10.7973 -10.6767 -10.6029 -10.4445 -10.3415
   -10.2821 -10.1680  -9.9596  -9.8429  -9.7626  -9.7156  -9.6126  -9.4960
    -9.4811  -9.4021  -9.2026  -9.1869  -9.0304  -8.9732  -8.8989  -8.8583
    -8.8268  -8.7330  -8.6662  -8.6576  -8.5924  -8.5895  -8.5319  -8.4714
    -8.3794  -8.3173  -8.2905  -8.2712  -8.2408  -8.1553  -8.1251  -8.0555
    -8.0300  -7.9848  -7.8859  -7.7911  -7.7768  -7.7551  -7.7349  -7.6743
    -7.5954  -7.4855  -7.4369  -7.3045  -7.2172  -7.2127  -7.1783  -7.1368
    -7.0979  -7.0190  -6.9266  -6.8682  -6.7535  -6.6522  -6.5935  -6.5694
    -6.4494  -6.4165  -6.3382  -6.1764  -6.1651  -5.9960  -5.9759  -5.9315
    -5.8332  -5.8055  -5.7566  -5.7039  -5.4983  -5.3848  -5.2775  -5.2203
    -5.1448  -5.1405  -5.0211  -5.0099  -4.7877  -4.6059  -4.5672  -4.4555
    -4.3384  -4.0951  -3.9719  -3.9262  -3.8714  -3.7948  -3.4559  -3.3856
    -2.9379  -2.4900  -1.8946  -1.0722  -0.7603  -0.3564  -0.2794  -0.0694
     0.0138   0.0603   0.1892   0.2312   0.3304   0.6707   0.9037   0.9607
     1.1346   1.1792   1.2133   1.4603   1.4779   1.5181   1.5390   1.5406
     1.7703   1.7904   1.8537   1.8823   1.9758   2.0982   2.1313   2.2080
     2.2705   2.4405   2.4412   2.5944   2.6095   2.7236   2.7411   2.7947
     2.8241   2.9050   2.9476   2.9582   3.0532   3.0923   3.1701   3.2079
     3.2276   3.2501   3.2544   3.3431   3.3718   3.4162   3.4609   3.5497
     3.5512   3.6108   3.6696   3.6841   3.7750   3.7756   3.8294   3.8734
     3.8735   3.9734   4.0045   4.0204   4.2083   4.2311   4.2495   4.2884
     4.3132   4.3443   4.3519   4.4766   4.5253   4.5304   4.5569   4.6009
     4.6012   4.6324   4.6502   4.7014   4.7659   4.7867   4.8005   4.8477
     4.8782   4.9157   4.9381   4.9386   4.9510   4.9875   5.0333   5.0492
     5.1063   5.1420   5.1645   5.2519   5.2669   5.4039   5.4063   5.4619
     5.4748   5.4982   5.5111   5.5611   5.5676   5.6091   5.6615   5.6692
     5.7067   5.7085   5.7418   5.7512   5.7930   5.8530   5.8869   5.9106
     5.9491   5.9514   5.9678   6.0033   6.0381   6.0861   6.1279   6.1349
     6.1470   6.2096   6.2287   6.2637   6.2774   6.3045   6.3378   6.3405
     6.4012   6.4564   6.4725   6.4803   6.4883   6.5354   6.5512   6.5706
     6.5841   6.5868   6.6102   6.6411   6.6679   6.7123   6.7390   6.7755
     6.7802   6.8124   6.8333   6.8529   6.8622   6.8721   6.8769   6.8852
     6.9349   6.9711   6.9832   6.9930   7.0097   7.0462   7.0627   7.0892
     7.1268   7.1282   7.1729   7.2000   7.2156   7.2195   7.2524   7.2813
     7.2838   7.2983   7.3483   7.3528   7.3805   7.4247   7.4299   7.4454
     7.4914   7.5090   7.5098   7.5608   7.5714   7.6136   7.6482   7.7005
     7.7150   7.7537   7.7545   7.8083   7.8361   7.8574   7.9006   7.9101
     7.9436   7.9458   7.9574   7.9993   8.0274   8.0483   8.0617   8.0696
     8.0737   8.1178   8.1366   8.1769   8.1882   8.2127   8.2175   8.2515
     8.2975   8.3159   8.3214   8.3728   8.4139   8.4187   8.4545   8.4597
     8.4960   8.5103   8.5389   8.5803   8.5822   8.6475   8.7055   8.7070
     8.7476   8.7563   8.7762   8.7902   8.7974   8.8353   8.8472   8.8790
     8.8957   8.9180   8.9252   8.9523   8.9695   8.9930   9.0161   9.0462
     9.0570   9.0727   9.1031   9.1416   9.1538   9.1599   9.2048   9.2189
     9.2481   9.2482   9.2824   9.2925   9.3123   9.3553   9.3565   9.4261
     9.4466   9.4638   9.4922   9.4963   9.5175   9.5331   9.5554   9.5571
     9.5705   9.5916   9.6027   9.6131   9.6639   9.6933   9.7036   9.7487
     9.7650   9.7823   9.8027   9.8210   9.8351   9.8462   9.8735   9.8894
     9.9115   9.9318   9.9428   9.9592   9.9944  10.0027  10.0453  10.0650
    10.0845  10.1121  10.1918  10.2057  10.2171  10.2263  10.2513  10.2824
    10.3396  10.3608  10.3733  10.4013  10.4378  10.4765  10.4799  10.5086
    10.5109  10.5187  10.5455  10.6122  10.6773  10.6877  10.6916  10.7291
    10.7405  10.7459  10.7761  10.8013  10.8018  10.8260  10.8771  10.8856
    10.8974  10.8997  10.9330  10.9482  10.9699  10.9926  11.0154  11.0411
    11.0484  11.0629  11.0661  11.1024

          k = 0.0000 0.0000 0.0106 (103431 PWs)   bands (ev):

   -21.1309 -20.8870 -20.6615 -20.5916 -20.3750 -20.1301 -19.9172 -19.8630
   -19.6059 -19.4226 -19.3901 -19.3266 -18.9037 -18.8317 -18.7031 -18.4705
   -18.2870 -18.2264 -18.0600 -17.7874 -17.6405 -17.5803 -17.4930 -17.3158
   -17.1365 -17.0201 -16.9600 -16.7576 -16.5119 -16.3744 -16.2236 -16.1549
   -16.1181 -16.0563 -15.7782 -15.6528 -15.4312 -15.0339 -14.7770 -14.6653
   -14.5078 -14.3566 -14.2720 -14.1844 -14.0965 -13.9976 -13.8902 -13.7458
   -13.4759 -13.1122 -13.0027 -12.9197 -12.8947 -12.7193 -12.6680 -12.5580
   -12.3070 -12.0378 -11.9442 -11.8220 -11.7626 -11.6893 -11.5526 -11.3510
   -11.2155 -11.0207 -10.9050 -10.7881 -10.6952 -10.6082 -10.4551 -10.3284
   -10.2775 -10.1593  -9.9611  -9.8546  -9.8064  -9.7088  -9.6085  -9.4949
    -9.4652  -9.3941  -9.1998  -9.1806  -9.0320  -8.9680  -8.9130  -8.8695
    -8.8202  -8.7272  -8.6928  -8.6494  -8.6122  -8.5754  -8.5278  -8.4687
    -8.4002  -8.3306  -8.2964  -8.2691  -8.2410  -8.1443  -8.1153  -8.0367
    -8.0132  -7.9730  -7.8750  -7.7773  -7.7702  -7.7697  -7.7485  -7.6736
    -7.5834  -7.4732  -7.4487  -7.3193  -7.2236  -7.2082  -7.1733  -7.1264
    -7.1110  -7.0238  -6.9249  -6.8653  -6.7520  -6.6311  -6.5939  -6.5814
    -6.4440  -6.4366  -6.3582  -6.1819  -6.1512  -5.9928  -5.9872  -5.9337
    -5.8737  -5.7874  -5.7312  -5.6963  -5.4822  -5.4133  -5.2973  -5.2327
    -5.1511  -5.0981  -5.0265  -4.9969  -4.7787  -4.6252  -4.5333  -4.4596
    -4.3445  -4.0901  -3.9879  -3.9342  -3.8767  -3.7726  -3.4372  -3.3993
    -2.9440  -2.5133  -1.8961  -1.0509  -0.7512  -0.3463  -0.2892  -0.0525
     0.0185   0.0654   0.1882   0.2363   0.3087   0.6600   0.8927   0.9756
     1.0978   1.1826   1.2118   1.4073   1.4770   1.5076   1.5426   1.5592
     1.7754   1.7846   1.8609   1.8720   2.0210   2.1026   2.1507   2.2310
     2.2458   2.4259   2.4986   2.5887   2.5971   2.7296   2.7345   2.7942
     2.8406   2.8999   2.9318   2.9598   3.0321   3.0833   3.1793   3.1942
     3.2102   3.2456   3.2668   3.3504   3.3665   3.4334   3.4828   3.5346
     3.5740   3.6150   3.6607   3.6931   3.7619   3.7767   3.8027   3.8958
     3.9155   3.9865   4.0072   4.0291   4.1977   4.2156   4.2416   4.2804
     4.2928   4.3344   4.3711   4.4757   4.5146   4.5264   4.5292   4.6023
     4.6031   4.6265   4.6299   4.7061   4.7483   4.7824   4.8023   4.8508
     4.8721   4.8807   4.9442   4.9500   4.9602   4.9759   5.0419   5.0495
     5.0994   5.1390   5.1628   5.2670   5.3034   5.4178   5.4439   5.4626
     5.4820   5.5039   5.5120   5.5330   5.6013   5.6184   5.6538   5.6699
     5.6985   5.7107   5.7359   5.7700   5.8180   5.8486   5.8715   5.9068
     5.9207   5.9302   5.9571   5.9920   6.0243   6.0839   6.1158   6.1186
     6.1448   6.1986   6.2197   6.2542   6.2778   6.3029   6.3575   6.3686
     6.3898   6.4444   6.4706   6.4950   6.5143   6.5410   6.5732   6.5895
     6.5955   6.5973   6.6189   6.6480   6.6645   6.7203   6.7407   6.7475
     6.7743   6.8234   6.8295   6.8578   6.8696   6.8775   6.8791   6.8912
     6.9321   6.9534   6.9806   6.9996   7.0031   7.0478   7.0881   7.0951
     7.1192   7.1228   7.1634   7.1740   7.1923   7.2134   7.2578   7.2635
     7.2849   7.3066   7.3391   7.3526   7.3700   7.4124   7.4228   7.4573
     7.4846   7.4853   7.5237   7.5373   7.5728   7.6168   7.6518   7.7039
     7.7364   7.7545   7.7580   7.8100   7.8448   7.8696   7.9128   7.9134
     7.9506   7.9666   7.9939   7.9995   8.0064   8.0538   8.0657   8.0851
     8.0932   8.1447   8.1461   8.1642   8.1944   8.2094   8.2285   8.2540
     8.2712   8.3053   8.3439   8.3652   8.4163   8.4214   8.4319   8.4381
     8.4731   8.4964   8.5305   8.5713   8.5829   8.6543   8.7001   8.7337
     8.7394   8.7460   8.7824   8.7998   8.8162   8.8215   8.8583   8.8588
     8.8859   8.8917   8.9217   8.9421   8.9717   9.0085   9.0152   9.0441
     9.0570   9.0588   9.1057   9.1386   9.1461   9.1717   9.1755   9.2227
     9.2377   9.2456   9.2884   9.3048   9.3374   9.3478   9.3629   9.4227
     9.4340   9.4792   9.4814   9.5000   9.5184   9.5376   9.5482   9.5578
     9.5883   9.5895   9.6125   9.6185   9.6683   9.7026   9.7040   9.7347
     9.7559   9.7564   9.8078   9.8292   9.8411   9.8421   9.8726   9.8870
     9.9036   9.9273   9.9399   9.9529   9.9840   9.9973  10.0364  10.0398
    10.0882  10.1603  10.1928  10.2239  10.2368  10.2388  10.2625  10.2840
    10.3475  10.3559  10.3843  10.4158  10.4538  10.4679  10.4775  10.4840
    10.5064  10.5128  10.5446  10.6055  10.6567  10.6673  10.6850  10.7258
    10.7278  10.7329  10.7599  10.7908  10.7957  10.8263  10.8769  10.8855
    10.8963  10.9003  10.9320  10.9588  10.9680  10.9772  11.0194  11.0338
    11.0452  11.0723  11.0802  11.1043

          k = 0.0000 0.0000 0.0117 (103457 PWs)   bands (ev):

   -21.1284 -20.8983 -20.6541 -20.5801 -20.3855 -20.1146 -19.9422 -19.8620
   -19.6154 -19.4363 -19.3667 -19.3136 -18.8848 -18.8249 -18.7184 -18.4735
   -18.2992 -18.2436 -18.0421 -17.8148 -17.6583 -17.5850 -17.4505 -17.3048
   -17.1413 -17.0278 -16.9302 -16.7504 -16.5241 -16.3555 -16.2225 -16.1653
   -16.1207 -16.0796 -15.7742 -15.6757 -15.4324 -15.0560 -14.7840 -14.6270
   -14.5110 -14.3531 -14.2368 -14.1907 -14.0837 -13.9798 -13.8822 -13.7520
   -13.4699 -13.1307 -13.0200 -12.9736 -12.9011 -12.7605 -12.6483 -12.5563
   -12.3163 -12.0374 -11.9307 -11.7653 -11.7421 -11.6505 -11.5707 -11.3516
   -11.2192 -11.0358 -10.9026 -10.7845 -10.7103 -10.6127 -10.4664 -10.3298
   -10.2650 -10.1448  -9.9645  -9.8726  -9.8494  -9.6993  -9.6004  -9.4972
    -9.4450  -9.3818  -9.1966  -9.1747  -9.0359  -8.9674  -8.9268  -8.8896
    -8.8213  -8.7231  -8.7044  -8.6426  -8.6295  -8.5591  -8.5186  -8.4675
    -8.4187  -8.3435  -8.3100  -8.2663  -8.2354  -8.1394  -8.1073  -8.0178
    -7.9970  -7.9592  -7.8607  -7.7992  -7.7718  -7.7549  -7.7478  -7.6695
    -7.5714  -7.4625  -7.4605  -7.3315  -7.2368  -7.2267  -7.1535  -7.1255
    -7.1021  -7.0287  -6.9256  -6.8616  -6.7489  -6.6204  -6.6187  -6.5595
    -6.4561  -6.4508  -6.3649  -6.1884  -6.1385  -6.0109  -5.9786  -5.9360
    -5.9127  -5.7729  -5.7048  -5.6849  -5.4655  -5.4431  -5.3218  -5.2388
    -5.1581  -5.0560  -5.0325  -4.9851  -4.7699  -4.6500  -4.4985  -4.4571
    -4.3507  -4.0858  -4.0060  -3.9477  -3.8812  -3.7446  -3.4310  -3.4020
    -2.9507  -2.5384  -1.8977  -1.0283  -0.7410  -0.3449  -0.2884  -0.0343
     0.0182   0.0750   0.1823   0.2357   0.2996   0.6473   0.8762   0.9808
     1.0739   1.1863   1.2116   1.3551   1.4715   1.5015   1.5459   1.5809
     1.7742   1.7801   1.8479   1.8874   2.0652   2.1068   2.1709   2.2225
     2.2545   2.4117   2.5346   2.5870   2.6002   2.7129   2.7362   2.8064
     2.8571   2.8948   2.9170   2.9624   3.0126   3.0729   3.1591   3.1882
     3.2130   3.2346   3.2832   3.3614   3.3625   3.4518   3.5039   3.5202
     3.5946   3.6144   3.6490   3.6898   3.7520   3.7698   3.8071   3.9184
     3.9573   3.9948   4.0108   4.0434   4.1803   4.1996   4.2398   4.2507
     4.2958   4.3173   4.3933   4.4704   4.4819   4.5111   4.5281   4.5643
     4.5920   4.6367   4.6505   4.7002   4.7294   4.7906   4.8043   4.8449
     4.8465   4.8713   4.9218   4.9622   4.9677   4.9868   5.0522   5.0543
     5.1005   5.1350   5.1709   5.2840   5.3393   5.4219   5.4526   5.4716
     5.4747   5.4965   5.5234   5.5508   5.6147   5.6175   5.6445   5.6721
     5.7011   5.7191   5.7407   5.7659   5.8362   5.8535   5.8671   5.8948
     5.8995   5.9154   5.9409   5.9841   6.0231   6.0724   6.1018   6.1041
     6.1524   6.1704   6.2087   6.2425   6.2920   6.2999   6.3723   6.3783
     6.4033   6.4279   6.4696   6.4976   6.5303   6.5409   6.5749   6.6029
     6.6184   6.6241   6.6353   6.6560   6.6814   6.7064   6.7283   6.7538
     6.7700   6.8109   6.8383   6.8576   6.8739   6.8780   6.8810   6.8984
     6.9330   6.9336   6.9787   7.0070   7.0126   7.0534   7.0856   7.0959
     7.1116   7.1244   7.1436   7.1604   7.1875   7.2120   7.2351   7.2711
     7.2932   7.3115   7.3273   7.3454   7.3749   7.3915   7.4230   7.4616
     7.4618   7.4851   7.5008   7.5393   7.5857   7.6129   7.6507   7.7017
     7.7520   7.7667   7.7709   7.8144   7.8440   7.8724   7.9131   7.9173
     7.9548   7.9827   7.9966   8.0092   8.0323   8.0662   8.0705   8.0929
     8.1065   8.1423   8.1583   8.1622   8.1957   8.2125   8.2261   8.2611
     8.2688   8.3130   8.3538   8.3620   8.4069   8.4142   8.4191   8.4343
     8.4579   8.4835   8.5226   8.5643   8.5849   8.6492   8.6926   8.7099
     8.7441   8.7559   8.7714   8.8007   8.8221   8.8427   8.8471   8.8578
     8.8735   8.8736   8.9198   8.9313   8.9800   9.0160   9.0268   9.0486
     9.0502   9.0610   9.0992   9.1247   9.1385   9.1458   9.1923   9.2266
     9.2274   9.2478   9.2933   9.2958   9.3371   9.3631   9.3966   9.4195
     9.4267   9.4548   9.4726   9.5095   9.5251   9.5416   9.5427   9.5706
     9.5936   9.5992   9.6147   9.6399   9.6644   9.7071   9.7096   9.7194
     9.7289   9.7484   9.7867   9.8250   9.8351   9.8672   9.8777   9.8846
     9.9008   9.9266   9.9323   9.9457   9.9704   9.9936  10.0311  10.0320
    10.0894  10.1807  10.2168  10.2354  10.2544  10.2554  10.2716  10.3025
    10.3421  10.3458  10.3858  10.4120  10.4395  10.4419  10.4714  10.5102
    10.5111  10.5277  10.5505  10.5980  10.6342  10.6455  10.6651  10.7088
    10.7160  10.7308  10.7664  10.7843  10.7951  10.8275  10.8629  10.8895
    10.8946  10.9010  10.9231  10.9624  10.9657  10.9813  11.0084  11.0333
    11.0438  11.0760  11.0924  11.1102

          k = 0.0000 0.0000 0.0129 (103443 PWs)   bands (ev):

   -21.1256 -20.9093 -20.6478 -20.5670 -20.3957 -20.0993 -19.9669 -19.8606
   -19.6251 -19.4550 -19.3409 -19.2970 -18.8729 -18.8134 -18.7312 -18.4775
   -18.3280 -18.2427 -18.0263 -17.8401 -17.6772 -17.5880 -17.4081 -17.2951
   -17.1533 -17.0314 -16.8966 -16.7407 -16.5373 -16.3396 -16.2265 -16.1761
   -16.1398 -16.0794 -15.7764 -15.6958 -15.4323 -15.0805 -14.7897 -14.5863
   -14.5144 -14.3501 -14.2091 -14.1875 -14.0707 -13.9612 -13.8754 -13.7570
   -13.4634 -13.1497 -13.0538 -13.0150 -12.9035 -12.8038 -12.6284 -12.5544
   -12.3256 -12.0362 -11.9167 -11.7316 -11.7003 -11.6172 -11.5800 -11.3541
   -11.2263 -11.0471 -10.8986 -10.7927 -10.7149 -10.6177 -10.4768 -10.3391
   -10.2537 -10.1236  -9.9772  -9.9003  -9.8742  -9.6934  -9.5873  -9.4984
    -9.4242  -9.3670  -9.1931  -9.1690  -9.0415  -8.9754  -8.9402  -8.9096
    -8.8306  -8.7358  -8.6934  -8.6426  -8.6369  -8.5413  -8.5047  -8.4725
    -8.4287  -8.3560  -8.3249  -8.2680  -8.2248  -8.1396  -8.1007  -7.9988
    -7.9824  -7.9442  -7.8434  -7.8287  -7.7713  -7.7458  -7.7351  -7.6619
    -7.5599  -7.4720  -7.4547  -7.3399  -7.2519  -7.2513  -7.1404  -7.1319
    -7.0724  -7.0341  -6.9275  -6.8588  -6.7447  -6.6422  -6.6166  -6.5336
    -6.4728  -6.4702  -6.3580  -6.1954  -6.1280  -6.0286  -5.9806  -5.9399
    -5.9383  -5.7636  -5.6783  -5.6688  -5.4738  -5.4485  -5.3476  -5.2420
    -5.1659  -5.0391  -5.0150  -4.9740  -4.7626  -4.6753  -4.4735  -4.4416
    -4.3568  -4.0825  -4.0257  -3.9647  -3.8842  -3.7141  -3.4449  -3.3860
    -2.9579  -2.5649  -1.8994  -1.0046  -0.7298  -0.3537  -0.2759  -0.0160
     0.0158   0.0867   0.1690   0.2331   0.3031   0.6333   0.8555   0.9651
     1.0730   1.1904   1.2082   1.3093   1.4611   1.5008   1.5498   1.6019
     1.7621   1.7853   1.8325   1.9080   2.1032   2.1112   2.1915   2.2055
     2.2784   2.3979   2.5212   2.6034   2.6320   2.6864   2.7445   2.8208
     2.8726   2.8882   2.9044   2.9661   2.9962   3.0626   3.1241   3.1953
     3.2161   3.2221   3.2980   3.3603   3.3752   3.4700   3.4991   3.5321
     3.6044   3.6074   3.6380   3.6855   3.7258   3.7917   3.8214   3.9408
     3.9904   4.0073   4.0154   4.0621   4.1594   4.1824   4.2234   4.2410
     4.2997   4.3004   4.4062   4.4376   4.4652   4.4980   4.5239   4.5357
     4.5777   4.6504   4.6587   4.6985   4.7121   4.8034   4.8040   4.8202
     4.8347   4.8720   4.8964   4.9488   4.9895   5.0066   5.0562   5.0693
     5.1024   5.1382   5.1869   5.3014   5.3738   5.3914   5.4373   5.4704
     5.4891   5.5272   5.5403   5.5673   5.5930   5.6115   5.6552   5.6767
     5.7153   5.7164   5.7603   5.7622   5.8131   5.8422   5.8651   5.8775
     5.9045   5.9296   5.9304   5.9830   6.0200   6.0563   6.0849   6.1028
     6.1363   6.1598   6.1956   6.2306   6.2970   6.3118   6.3602   6.3809
     6.4158   6.4377   6.4619   6.4934   6.5275   6.5677   6.5772   6.6064
     6.6214   6.6346   6.6483   6.6880   6.6966   6.7049   6.7375   6.7545
     6.7759   6.7966   6.8429   6.8445   6.8584   6.8758   6.8848   6.8966
     6.9400   6.9523   6.9769   7.0121   7.0144   7.0564   7.0623   7.0761
     7.1079   7.1269   7.1428   7.1621   7.1912   7.2150   7.2172   7.2751
     7.3024   7.3159   7.3185   7.3352   7.3676   7.3874   7.4265   7.4338
     7.4561   7.4700   7.4952   7.5544   7.5964   7.6135   7.6431   7.6983
     7.7530   7.7778   7.7875   7.8298   7.8317   7.8696   7.9063   7.9233
     7.9609   7.9784   8.0129   8.0245   8.0609   8.0680   8.0903   8.0932
     8.1106   8.1467   8.1622   8.1626   8.1804   8.2033   8.2452   8.2627
     8.3106   8.3229   8.3333   8.3728   8.3874   8.4029   8.4056   8.4467
     8.4600   8.4769   8.5143   8.5559   8.5885   8.6283   8.6528   8.7043
     8.7444   8.7571   8.7733   8.8005   8.8123   8.8384   8.8517   8.8641
     8.8712   8.8835   8.9107   8.9162   8.9864   9.0170   9.0384   9.0554
     9.0565   9.0685   9.0847   9.1108   9.1256   9.1318   9.2039   9.2152
     9.2340   9.2601   9.2766   9.3071   9.3275   9.3644   9.4110   9.4162
     9.4334   9.4517   9.4704   9.5055   9.5308   9.5368   9.5510   9.5813
     9.6039   9.6072   9.6210   9.6507   9.6638   9.6921   9.6994   9.7051
     9.7198   9.7524   9.7783   9.8073   9.8298   9.8591   9.8701   9.8912
     9.9074   9.9138   9.9395   9.9472   9.9706   9.9975  10.0258  10.0379
    10.0909  10.1745  10.2229  10.2617  10.2702  10.2740  10.2868  10.3269
    10.3274  10.3473  10.3704  10.3948  10.4122  10.4350  10.4724  10.5108
    10.5384  10.5443  10.5570  10.5966  10.6217  10.6236  10.6379  10.6846
    10.7206  10.7319  10.7724  10.7859  10.7969  10.8277  10.8533  10.8824
    10.8963  10.8978  10.9170  10.9558  10.9579  10.9987  10.9998  11.0395
    11.0409  11.0665  11.0939  11.0974

          k = 0.0000 0.0000 0.0141 (103441 PWs)   bands (ev):

   -21.1226 -20.9200 -20.6424 -20.5527 -20.4053 -20.0844 -19.9907 -19.8591
   -19.6348 -19.4747 -19.3165 -19.2767 -18.8681 -18.8004 -18.7380 -18.4822
   -18.3626 -18.2346 -18.0151 -17.8606 -17.6965 -17.5898 -17.3666 -17.2865
   -17.1709 -17.0298 -16.8618 -16.7288 -16.5511 -16.3277 -16.2382 -16.1910
   -16.1590 -16.0651 -15.7894 -15.7079 -15.4313 -15.1071 -14.7939 -14.5463
   -14.5155 -14.3474 -14.2107 -14.1526 -14.0579 -13.9430 -13.8700 -13.7598
   -13.4564 -13.1692 -13.1053 -13.0408 -12.9068 -12.8440 -12.6093 -12.5532
   -12.3347 -12.0341 -11.9023 -11.7121 -11.6575 -11.6015 -11.5581 -11.3591
   -11.2353 -11.0547 -10.8938 -10.8123 -10.7088 -10.6236 -10.4854 -10.3512
   -10.2488 -10.0967 -10.0121  -9.9137  -9.8898  -9.6923  -9.5695  -9.4974
    -9.4040  -9.3506  -9.1893  -9.1634  -9.0485  -8.9930  -8.9533  -8.9279
    -8.8446  -8.7447  -8.6874  -8.6486  -8.6318  -8.5224  -8.4961  -8.4805
    -8.4242  -8.3680  -8.3394  -8.2716  -8.2126  -8.1429  -8.0955  -7.9799
    -7.9696  -7.9292  -7.8579  -7.8247  -7.7716  -7.7435  -7.7132  -7.6517
    -7.5496  -7.4833  -7.4511  -7.3436  -7.2769  -7.2681  -7.1553  -7.1110
    -7.0402  -7.0399  -6.9298  -6.8586  -6.7417  -6.6615  -6.6159  -6.5185
    -6.4955  -6.4754  -6.3446  -6.2025  -6.1214  -6.0441  -6.0104  -5.9407
    -5.9381  -5.7589  -5.6530  -5.6489  -5.5042  -5.4313  -5.3730  -5.2438
    -5.1744  -5.0462  -4.9799  -4.9589  -4.7612  -4.6952  -4.4626  -4.4114
    -4.3612  -4.0807  -4.0462  -3.9835  -3.8862  -3.6826  -3.4638  -3.3662
    -2.9656  -2.5927  -1.9011  -0.9802  -0.7175  -0.3672  -0.2572  -0.0008
     0.0145   0.0977   0.1512   0.2338   0.3133   0.6180   0.8308   0.9362
     1.0868   1.1904   1.1949   1.2816   1.4485   1.5030   1.5542   1.6216
     1.7494   1.7919   1.8172   1.9300   2.1157   2.1201   2.2094   2.2122
     2.3028   2.3849   2.4963   2.6065   2.6586   2.6831   2.7573   2.8308
     2.8786   2.8862   2.8974   2.9712   2.9841   3.0533   3.0895   3.1997
     3.2090   3.2200   3.3111   3.3599   3.3915   3.4832   3.4862   3.5524
     3.5947   3.5989   3.6253   3.6976   3.7076   3.8181   3.8386   3.9626
     3.9948   4.0211   4.0447   4.0841   4.1373   4.1622   4.2014   4.2435
     4.2836   4.3041   4.3894   4.4051   4.4669   4.4832   4.4866   4.5453
     4.5643   4.6387   4.6604   4.7009   4.7161   4.7807   4.7962   4.8286
     4.8386   4.8597   4.8831   4.9327   5.0139   5.0257   5.0584   5.0863
     5.0994   5.1539   5.2089   5.3139   5.3468   5.4056   5.4312   5.4748
     5.5000   5.5481   5.5545   5.5770   5.5804   5.6145   5.6567   5.6827
     5.7100   5.7297   5.7702   5.7718   5.7877   5.8273   5.8513   5.8610
     5.8988   5.9269   5.9798   5.9834   6.0072   6.0500   6.0681   6.1020
     6.1051   6.1635   6.1827   6.2195   6.2928   6.3336   6.3432   6.3710
     6.4065   6.4471   6.4695   6.5035   6.5265   6.5764   6.5898   6.6071
     6.6145   6.6283   6.6539   6.7134   6.7241   6.7266   6.7514   6.7629
     6.7810   6.7908   6.8033   6.8449   6.8601   6.8706   6.8918   6.8941
     6.9472   6.9673   6.9864   7.0069   7.0131   7.0266   7.0541   7.0718
     7.1126   7.1134   7.1512   7.1587   7.1995   7.2047   7.2306   7.2778
     7.3029   7.3061   7.3260   7.3390   7.3426   7.3964   7.3970   7.4332
     7.4505   7.4534   7.5034   7.5679   7.6049   7.6231   7.6297   7.6949
     7.7508   7.7882   7.7929   7.8061   7.8397   7.8865   7.8894   7.9280
     7.9685   7.9824   8.0310   8.0352   8.0492   8.0786   8.0929   8.1085
     8.1187   8.1472   8.1539   8.1719   8.1888   8.2097   8.2582   8.2785
     8.3095   8.3334   8.3415   8.3651   8.3898   8.3954   8.3963   8.4370
     8.4775   8.4925   8.5033   8.5398   8.5923   8.5938   8.6249   8.6886
     8.7411   8.7527   8.7756   8.7900   8.8062   8.8327   8.8570   8.8659
     8.8897   8.8919   8.9036   8.9086   8.9818   9.0188   9.0447   9.0606
     9.0614   9.0761   9.0777   9.1042   9.1138   9.1276   9.2040   9.2086
     9.2377   9.2569   9.2837   9.3132   9.3198   9.3701   9.3871   9.4076
     9.4307   9.4570   9.4982   9.5154   9.5319   9.5365   9.5589   9.5892
     9.6032   9.6075   9.6355   9.6413   9.6680   9.6685   9.6749   9.7023
     9.7227   9.7592   9.7842   9.7881   9.8223   9.8432   9.8459   9.8968
     9.9025   9.9309   9.9372   9.9603   9.9756  10.0057  10.0312  10.0501
    10.0856  10.1732  10.2160  10.2719  10.2738  10.2907  10.3016  10.3215
    10.3334  10.3466  10.3663  10.3852  10.3966  10.4325  10.4746  10.5041
    10.5244  10.5657  10.5837  10.5890  10.6003  10.6066  10.6506  10.6645
    10.7283  10.7333  10.7627  10.7990  10.8009  10.8259  10.8519  10.8708
    10.8935  10.8986  10.9088  10.9430  10.9618  10.9983  11.0090  11.0304
    11.0457  11.0583  11.0805  11.0837

          k = 0.0000 0.0000 0.0153 (103453 PWs)   bands (ev):

   -21.1194 -20.9304 -20.6376 -20.5374 -20.4144 -20.0714 -20.0122 -19.8575
   -19.6445 -19.4944 -19.2948 -19.2526 -18.8686 -18.7944 -18.7324 -18.4875
   -18.3983 -18.2242 -18.0124 -17.8724 -17.7155 -17.5909 -17.3283 -17.2772
   -17.1918 -17.0238 -16.8269 -16.7145 -16.5650 -16.3209 -16.2558 -16.2188
   -16.1606 -16.0459 -15.8134 -15.7112 -15.4297 -15.1351 -14.7969 -14.5294
   -14.4922 -14.3452 -14.2162 -14.1111 -14.0456 -13.9269 -13.8661 -13.7592
   -13.4491 -13.1909 -13.1591 -13.0637 -12.9250 -12.8672 -12.5921 -12.5527
   -12.3431 -12.0309 -11.8875 -11.6962 -11.6495 -11.5622 -11.5211 -11.3666
   -11.2447 -11.0593 -10.8898 -10.8369 -10.6977 -10.6301 -10.4919 -10.3639
   -10.2501 -10.0728 -10.0558  -9.9189  -9.8956  -9.6950  -9.5487  -9.4937
    -9.3849  -9.3335  -9.1852  -9.1581  -9.0577  -9.0153  -8.9660  -8.9489
    -8.8575  -8.7524  -8.6867  -8.6480  -8.6269  -8.5136  -8.5027  -8.4702
    -8.4086  -8.3794  -8.3515  -8.2759  -8.2006  -8.1476  -8.0915  -7.9615
    -7.9588  -7.9154  -7.8862  -7.8076  -7.7692  -7.7411  -7.6898  -7.6394
    -7.5408  -7.4943  -7.4519  -7.3445  -7.3025  -7.2823  -7.1699  -7.0906
    -7.0475  -7.0057  -6.9320  -6.8612  -6.7452  -6.6715  -6.6174  -6.5270
    -6.5224  -6.4520  -6.3289  -6.2095  -6.1214  -6.0541  -6.0497  -5.9432
    -5.9261  -5.7573  -5.6318  -5.6265  -5.5315  -5.4140  -5.3974  -5.2448
    -5.1836  -5.0539  -4.9654  -4.9251  -4.7738  -4.7010  -4.4548  -4.3886
    -4.3539  -4.0844  -4.0637  -4.0028  -3.8876  -3.6518  -3.4836  -3.3461
    -2.9738  -2.6215  -1.9029  -0.9553  -0.7041  -0.3822  -0.2358   0.0020
     0.0215   0.1039   0.1394   0.2380   0.3265   0.6018   0.8027   0.9046
     1.1043   1.1522   1.1997   1.2781   1.4351   1.5065   1.5590   1.6390
     1.7366   1.8005   1.8023   1.9530   2.1092   2.1205   2.2327   2.2406
     2.3274   2.3729   2.4699   2.6072   2.6327   2.7214   2.7837   2.8302
     2.8666   2.8968   2.9002   2.9769   2.9781   3.0458   3.0554   3.1958
     3.2013   3.2246   3.3225   3.3607   3.4098   3.4666   3.4974   3.5532
     3.5839   3.5950   3.6156   3.6979   3.7208   3.8457   3.8574   3.9825
     3.9932   4.0288   4.0821   4.1107   4.1149   4.1385   4.1863   4.2457
     4.2667   4.3089   4.3397   4.3934   4.4473   4.4719   4.4739   4.5433
     4.5612   4.6107   4.6609   4.7023   4.7200   4.7709   4.7800   4.8276
     4.8359   4.8659   4.8800   4.9219   5.0359   5.0396   5.0651   5.0946
     5.1050   5.1763   5.2354   5.2838   5.3414   5.4241   5.4325   5.4805
     5.5102   5.5309   5.5528   5.5920   5.6062   5.6281   5.6537   5.6846
     5.7049   5.7310   5.7508   5.7751   5.7896   5.8171   5.8455   5.8611
     5.8957   5.9265   5.9781   5.9957   6.0188   6.0510   6.0523   6.0788
     6.1087   6.1545   6.1801   6.2090   6.2840   6.3248   6.3549   6.3558
     6.3890   6.4445   6.4916   6.5146   6.5258   6.5738   6.5770   6.6092
     6.6305   6.6382   6.6599   6.7221   6.7379   6.7429   6.7616   6.7705
     6.7786   6.7821   6.8138   6.8445   6.8577   6.8685   6.8896   6.9071
     6.9350   6.9705   6.9841   6.9930   7.0133   7.0405   7.0420   7.0724
     7.0975   7.1240   7.1435   7.1630   7.1890   7.2118   7.2447   7.2851
     7.2863   7.3079   7.3199   7.3358   7.3554   7.3559   7.4011   7.4364
     7.4380   7.4616   7.5093   7.5789   7.6116   7.6150   7.6372   7.6925
     7.7457   7.7770   7.7970   7.7985   7.8337   7.8633   7.9095   7.9395
     7.9759   7.9949   8.0079   8.0510   8.0591   8.0712   8.0807   8.1025
     8.1352   8.1532   8.1845   8.1966   8.1968   8.2130   8.2554   8.2971
     8.3054   8.3367   8.3442   8.3518   8.3869   8.3914   8.4274   8.4286
     8.4751   8.4912   8.5157   8.5272   8.5664   8.6016   8.6059   8.6657
     8.7254   8.7431   8.7570   8.7957   8.8097   8.8266   8.8517   8.8727
     8.8742   8.9091   8.9109   8.9279   8.9742   9.0228   9.0438   9.0509
[...]
    -5.2344  -5.1377  -5.0779  -4.9233  -4.5968  -4.5550  -4.4543  -4.3541
    -4.3305  -4.2220  -4.0593  -3.9882  -3.8935  -3.7675  -3.3540  -3.2030
    -3.0378  -2.8823  -1.9152  -0.7661  -0.5811  -0.4507  -0.2579  -0.0208
     0.0776   0.1447   0.3097   0.3367   0.4126   0.4973   0.5719   0.6751
     0.7030   1.2033   1.2591   1.3255   1.4500   1.5575   1.6192   1.6364
     1.6759   1.6877   1.9128   1.9806   2.1716   2.1780   2.2011   2.2570
     2.3548   2.4652   2.5693   2.6222   2.6466   2.6681   2.7425   2.7834
     2.8181   2.8662   2.9676   2.9760   3.0266   3.0900   3.1348   3.1408
     3.2165   3.2852   3.2974   3.3401   3.3828   3.3990   3.4573   3.4747
     3.6322   3.7259   3.7412   3.7858   3.7969   3.8207   3.9114   3.9181
     4.0404   4.0480   4.0923   4.1105   4.1513   4.1653   4.1820   4.2221
     4.2415   4.2894   4.2973   4.3391   4.3701   4.3801   4.4251   4.4471
     4.4486   4.4962   4.5118   4.5421   4.5758   4.6618   4.8132   4.8778
     4.9024   4.9398   4.9737   4.9920   5.0162   5.0796   5.1009   5.1749
     5.1982   5.2754   5.2886   5.3284   5.3781   5.4177   5.4260   5.4668
     5.4937   5.5079   5.5600   5.5729   5.6070   5.6148   5.6228   5.6677
     5.6681   5.7129   5.7776   5.8086   5.8467   5.8672   5.8869   5.8872
     5.9231   5.9336   5.9698   5.9993   6.0072   6.0132   6.0378   6.0765
     6.1300   6.1505   6.1611   6.1893   6.2162   6.2431   6.2812   6.3042
     6.3558   6.4214   6.4880   6.4894   6.5280   6.5386   6.5984   6.6138
     6.6402   6.6403   6.6740   6.7214   6.7383   6.7650   6.7768   6.7951
     6.8159   6.8236   6.8320   6.8481   6.8577   6.8787   6.8972   6.9145
     6.9286   6.9534   6.9800   7.0201   7.0383   7.0651   7.0726   7.1012
     7.1211   7.1329   7.1619   7.1723   7.1996   7.2029   7.2402   7.2446
     7.2919   7.3099   7.3184   7.3781   7.4086   7.4371   7.4398   7.4558
     7.4876   7.4950   7.5428   7.5712   7.5972   7.6073   7.6386   7.6566
     7.6936   7.7388   7.7753   7.7962   7.8250   7.8301   7.8350   7.8518
     7.9038   7.9297   7.9602   8.0020   8.0381   8.0882   8.1070   8.1384
     8.1425   8.1553   8.1582   8.2106   8.2246   8.2463   8.2631   8.2859
     8.3106   8.3322   8.3730   8.3751   8.4126   8.4389   8.4556   8.4934
     8.4973   8.5423   8.5490   8.5515   8.6127   8.6241   8.6618   8.7025
     8.7106   8.7399   8.7675   8.7829   8.8125   8.8200   8.8460   8.8902
     8.9064   8.9199   8.9351   8.9491   8.9789   8.9816   8.9964   9.0039
     9.0665   9.0750   9.1008   9.1071   9.1421   9.1674   9.1687   9.1806
     9.1950   9.2047   9.2207   9.2409   9.2532   9.2762   9.3351   9.3513
     9.3677   9.3733   9.3920   9.4758   9.4984   9.5290   9.5590   9.5609
     9.5943   9.6142   9.6453   9.6615   9.6780   9.6868   9.7051   9.7351
     9.7436   9.7662   9.7934   9.8038   9.8118   9.8360   9.8796   9.9043
     9.9268   9.9511   9.9905   9.9949  10.0173  10.0480  10.0615  10.0895
    10.1041  10.1286  10.1539  10.1830  10.2387  10.2470  10.2913  10.3052
    10.3220  10.3286  10.3735  10.4198  10.4355  10.4667  10.4756  10.5115
    10.5575  10.5875  10.5995  10.6014  10.6280  10.6457  10.6565  10.6834
    10.6888  10.7317  10.7509  10.7511  10.7709  10.7714  10.8191  10.8261
    10.8472  10.8854  10.9007  10.9151  10.9449  10.9582  10.9584  10.9786
    10.9822  11.0182  11.0191  11.0812

          k = 0.0000 0.0000 0.0270 (103398 PWs)   bands (ev):

   -21.0827 -21.0072 -20.6058 -20.4845 -20.3450 -20.2549 -19.9038 -19.8605
   -19.7349 -19.6284 -19.1348 -19.0154 -18.9172 -18.8309 -18.7459 -18.5255
   -18.4341 -18.3077 -18.0854 -17.8829 -17.6788 -17.5884 -17.4802 -17.2533
   -16.9367 -16.8464 -16.7154 -16.6728 -16.5756 -16.4609 -16.3792 -16.2716
   -16.2009 -16.1101 -15.7974 -15.6490 -15.5082 -15.3363 -14.8007 -14.5524
   -14.3763 -14.2057 -13.9941 -13.9731 -13.9426 -13.8240 -13.7409 -13.6443
   -13.5929 -13.4692 -13.3383 -13.3133 -13.2559 -12.7607 -12.6625 -12.4733
   -12.3653 -11.9724 -11.8113 -11.7140 -11.6251 -11.4355 -11.2689 -11.1820
   -11.1413 -11.0599 -10.9777 -10.8849 -10.6636 -10.6516 -10.5973 -10.5116
   -10.3884 -10.3423 -10.1221  -9.8433  -9.6842  -9.5755  -9.4664  -9.3912
    -9.3588  -9.3307  -9.2489  -9.1413  -9.1353  -9.0702  -9.0641  -8.9921
    -8.9475  -8.8387  -8.8054  -8.6455  -8.5886  -8.5693  -8.4631  -8.4577
    -8.4195  -8.3133  -8.2719  -8.2600  -8.1677  -8.1462  -8.0505  -7.9972
    -7.9583  -7.8151  -7.7819  -7.7780  -7.7203  -7.6723  -7.6486  -7.5943
    -7.5837  -7.4880  -7.4677  -7.3893  -7.3392  -7.3089  -7.2218  -7.0998
    -7.0375  -6.9496  -6.8960  -6.8677  -6.7737  -6.7406  -6.6376  -6.5706
    -6.4819  -6.4540  -6.3454  -6.2598  -6.1486  -6.0892  -6.0548  -5.9521
    -5.9410  -5.7789  -5.7635  -5.6086  -5.3984  -5.3216  -5.3113  -5.2609
    -5.2263  -5.1452  -5.1063  -4.9237  -4.5830  -4.5255  -4.4584  -4.3715
    -4.3313  -4.2399  -4.0548  -3.9579  -3.8936  -3.7991  -3.3361  -3.1984
    -3.0370  -2.9024  -1.9157  -0.7556  -0.5800  -0.4374  -0.2829  -0.0217
     0.1001   0.1499   0.3052   0.3321   0.4360   0.5048   0.5701   0.6514
     0.6658   1.2065   1.2665   1.3162   1.4642   1.5628   1.6256   1.6303
     1.6730   1.6782   1.9017   2.0018   2.1781   2.1785   2.1991   2.2536
     2.3289   2.4864   2.5930   2.6052   2.6692   2.6755   2.7178   2.7729
     2.8238   2.8687   2.9485   2.9790   3.0299   3.0885   3.1321   3.1565
     3.2152   3.2702   3.2954   3.3461   3.3848   3.4058   3.4665   3.4909
     3.6580   3.6977   3.7519   3.7675   3.7762   3.8330   3.9009   3.9063
     4.0586   4.0625   4.0925   4.1253   4.1456   4.1603   4.1814   4.2163
     4.2480   4.2950   4.3022   4.3336   4.3673   4.3779   4.4166   4.4228
     4.4442   4.4795   4.5308   4.5493   4.5768   4.6565   4.7660   4.8846
     4.9097   4.9389   4.9751   5.0102   5.0284   5.1020   5.1158   5.1561
     5.1930   5.2714   5.2774   5.3377   5.3838   5.4199   5.4458   5.4475
     5.4938   5.5052   5.5609   5.5723   5.5922   5.6037   5.6520   5.6625
     5.6791   5.6926   5.7727   5.8164   5.8464   5.8624   5.8893   5.9104
     5.9139   5.9353   5.9686   5.9936   6.0066   6.0328   6.0446   6.0756
     6.1187   6.1301   6.1610   6.1944   6.2370   6.2450   6.2747   6.2872
     6.3601   6.4221   6.4500   6.4930   6.5218   6.5735   6.5815   6.6047
     6.6410   6.6700   6.6736   6.7269   6.7404   6.7424   6.7775   6.7947
     6.8250   6.8309   6.8381   6.8473   6.8568   6.8573   6.8831   6.9231
     6.9315   6.9591   6.9820   7.0178   7.0357   7.0570   7.0774   7.0965
     7.1223   7.1371   7.1574   7.1746   7.2031   7.2078   7.2411   7.2459
     7.3023   7.3107   7.3433   7.3943   7.4069   7.4236   7.4496   7.4711
     7.4782   7.5052   7.5230   7.5788   7.5850   7.5961   7.6314   7.6700
     7.6981   7.7379   7.7612   7.7773   7.8248   7.8256   7.8516   7.8650
     7.8974   7.9349   7.9715   7.9904   8.0284   8.0817   8.0897   8.1144
     8.1499   8.1516   8.1602   8.2093   8.2267   8.2446   8.2661   8.2797
     8.3142   8.3419   8.3753   8.3827   8.4041   8.4192   8.4585   8.4752
     8.5102   8.5552   8.5644   8.5762   8.5998   8.6212   8.6710   8.7055
     8.7146   8.7756   8.7769   8.8030   8.8131   8.8132   8.8602   8.8898
     8.9038   8.9281   8.9390   8.9394   8.9690   8.9761   8.9834   9.0141
     9.0376   9.0583   9.0979   9.1029   9.1516   9.1527   9.1650   9.1887
     9.1969   9.1997   9.2177   9.2411   9.2502   9.2990   9.3134   9.3226
     9.3482   9.3757   9.4031   9.4716   9.5005   9.5215   9.5579   9.5784
     9.5971   9.6267   9.6462   9.6606   9.6814   9.6855   9.7022   9.7300
     9.7445   9.7747   9.7846   9.8197   9.8240   9.8477   9.8682   9.9135
     9.9321   9.9491   9.9741   9.9868   9.9883  10.0187  10.0615  10.0706
    10.1116  10.1309  10.1623  10.2150  10.2628  10.2676  10.2804  10.3142
    10.3247  10.3296  10.4063  10.4087  10.4431  10.4529  10.4690  10.5217
    10.5428  10.5790  10.6026  10.6129  10.6197  10.6446  10.6469  10.6710
    10.7040  10.7125  10.7431  10.7457  10.7514  10.7677  10.8148  10.8187
    10.8417  10.8915  10.9048  10.9208  10.9331  10.9489  10.9681  10.9682
    11.0043  11.0275  11.0340  11.0664

          k = 0.0000 0.0000 0.0282 (103420 PWs)   bands (ev):

   -21.0809 -21.0099 -20.6048 -20.4861 -20.3265 -20.2745 -19.8930 -19.8658
   -19.7389 -19.6315 -19.1268 -19.0189 -18.8932 -18.8435 -18.7628 -18.5255
   -18.4035 -18.3390 -18.0813 -17.8883 -17.6661 -17.5867 -17.4958 -17.2534
   -16.9273 -16.8080 -16.7338 -16.6993 -16.5660 -16.4735 -16.3413 -16.2769
   -16.2339 -16.1090 -15.7881 -15.6394 -15.5238 -15.3384 -14.8006 -14.5528
   -14.3776 -14.2035 -13.9890 -13.9544 -13.9178 -13.8319 -13.7817 -13.6002
   -13.5827 -13.5077 -13.3435 -13.3209 -13.2626 -12.7514 -12.6718 -12.4716
   -12.3643 -11.9697 -11.8157 -11.6971 -11.6428 -11.4282 -11.2644 -11.1848
   -11.1329 -11.0573 -10.9850 -10.8365 -10.7197 -10.6512 -10.6011 -10.5044
   -10.3964 -10.3373 -10.1308  -9.8422  -9.6761  -9.5369  -9.4767  -9.4139
    -9.3697  -9.3288  -9.2474  -9.1324  -9.1296  -9.0777  -9.0681  -8.9981
    -8.9301  -8.8424  -8.8234  -8.6461  -8.5873  -8.5662  -8.4654  -8.4580
    -8.4202  -8.3116  -8.2652  -8.2480  -8.1927  -8.1437  -8.0453  -7.9970
    -7.9451  -7.8192  -7.7757  -7.7697  -7.7201  -7.6804  -7.6527  -7.5999
    -7.5862  -7.4928  -7.4620  -7.3802  -7.3319  -7.3023  -7.2377  -7.1016
    -7.0305  -6.9658  -6.8833  -6.8666  -6.7856  -6.7460  -6.6157  -6.5591
    -6.4892  -6.4678  -6.3591  -6.2607  -6.1429  -6.0577  -6.0529  -5.9769
    -5.9515  -5.7798  -5.7569  -5.6170  -5.3799  -5.3371  -5.2990  -5.2551
    -5.2154  -5.1504  -5.1299  -4.9239  -4.5749  -4.5018  -4.4540  -4.4024
    -4.3201  -4.2546  -4.0527  -3.9296  -3.8936  -3.8275  -3.3243  -3.1965
    -3.0350  -2.9162  -1.9161  -0.7489  -0.5805  -0.4245  -0.3023  -0.0222
     0.1145   0.1570   0.2903   0.3352   0.4536   0.5191   0.5681   0.6248
     0.6454   1.2083   1.2726   1.3090   1.4734   1.5667   1.6236   1.6336
     1.6707   1.6707   1.8949   2.0178   2.1617   2.1819   2.2149   2.2570
     2.3046   2.5056   2.5796   2.6268   2.6678   2.6938   2.6950   2.7672
     2.8246   2.8802   2.9270   2.9810   3.0322   3.0866   3.1259   3.1795
     3.2148   3.2449   3.3019   3.3455   3.3865   3.4110   3.4606   3.5373
     3.6469   3.6826   3.7423   3.7689   3.7720   3.8393   3.8927   3.9005
     4.0659   4.0832   4.0888   4.1277   4.1415   4.1575   4.1879   4.2137
     4.2430   4.2977   4.3139   4.3343   4.3559   4.3849   4.4024   4.4086
     4.4470   4.4675   4.5199   4.5560   4.6107   4.6549   4.7197   4.8903
     4.9115   4.9393   4.9755   5.0228   5.0389   5.1182   5.1265   5.1493
     5.1841   5.2427   5.2843   5.3621   5.3706   5.4208   5.4410   5.4624
     5.4949   5.5105   5.5514   5.5578   5.5869   5.6041   5.6526   5.6677
     5.6833   5.7054   5.7679   5.8020   5.8343   5.8742   5.8952   5.9005
     5.9376   5.9423   5.9665   5.9817   6.0008   6.0495   6.0532   6.0751
     6.0995   6.1335   6.1623   6.1992   6.2168   6.2320   6.2922   6.3068
     6.3626   6.4053   6.4294   6.4816   6.5302   6.5667   6.5980   6.6089
     6.6416   6.6733   6.6872   6.7305   6.7319   6.7457   6.7761   6.7945
     6.8073   6.8253   6.8297   6.8461   6.8579   6.8680   6.8863   6.9242
     6.9386   6.9461   6.9888   7.0282   7.0282   7.0513   7.0896   7.0924
     7.1271   7.1318   7.1527   7.1585   7.2015   7.2248   7.2390   7.2553
     7.3120   7.3122   7.3728   7.3798   7.3994   7.4292   7.4532   7.4732
     7.4765   7.4941   7.5395   7.5633   7.5890   7.5984   7.6321   7.6777
     7.7040   7.7206   7.7455   7.7615   7.8173   7.8246   7.8600   7.8847
     7.9083   7.9482   7.9619   7.9928   8.0196   8.0646   8.0934   8.0963
     8.1382   8.1582   8.1614   8.2051   8.2176   8.2440   8.2682   8.2983
     8.3179   8.3515   8.3707   8.3739   8.3984   8.4170   8.4378   8.4839
     8.5233   8.5602   8.5762   8.5835   8.5983   8.6189   8.6738   8.7063
     8.7211   8.7589   8.7907   8.8242   8.8298   8.8390   8.8722   8.8895
     8.9019   8.9028   8.9349   8.9450   8.9554   8.9747   8.9771   9.0059
     9.0285   9.0574   9.0957   9.1102   9.1312   9.1374   9.1599   9.1953
     9.2018   9.2104   9.2331   9.2411   9.2456   9.2901   9.3029   9.3113
     9.3293   9.3898   9.4194   9.4693   9.4790   9.5191   9.5575   9.5862
     9.6022   9.6384   9.6476   9.6716   9.6816   9.6841   9.7019   9.7263
     9.7346   9.7598   9.7953   9.8252   9.8446   9.8547   9.8766   9.9144
     9.9345   9.9352   9.9618   9.9737   9.9844  10.0067  10.0434  10.0594
    10.1163  10.1364  10.1752  10.2297  10.2499  10.2704  10.3098  10.3250
    10.3421  10.3444  10.3917  10.4286  10.4290  10.4457  10.4742  10.4953
    10.5389  10.5861  10.6004  10.6069  10.6241  10.6426  10.6527  10.6635
    10.6993  10.7063  10.7381  10.7390  10.7490  10.7672  10.8054  10.8139
    10.8453  10.8874  10.9111  10.9242  10.9279  10.9438  10.9685  10.9716
    11.0236  11.0251  11.0537  11.0547

          k = 0.0000 0.0000-0.0293 (103456 PWs)   bands (ev):

   -21.0803 -21.0108 -20.6044 -20.4866 -20.3157 -20.2857 -19.8878 -19.8691
   -19.7403 -19.6326 -19.1239 -19.0206 -18.8762 -18.8562 -18.7686 -18.5255
   -18.3779 -18.3649 -18.0798 -17.8901 -17.6614 -17.5858 -17.5017 -17.2534
   -16.9243 -16.7718 -16.7654 -16.7062 -16.5618 -16.4785 -16.3156 -16.2896
   -16.2470 -16.1086 -15.7849 -15.6353 -15.5300 -15.3391 -14.8006 -14.5530
   -14.3780 -14.2027 -13.9889 -13.9524 -13.8857 -13.8521 -13.7959 -13.5847
   -13.5516 -13.5490 -13.3452 -13.3231 -13.2648 -12.7477 -12.6755 -12.4711
   -12.3639 -11.9687 -11.8172 -11.6878 -11.6524 -11.4256 -11.2622 -11.1881
   -11.1274 -11.0577 -10.9878 -10.7951 -10.7635 -10.6506 -10.6024 -10.5016
   -10.3995 -10.3354 -10.1338  -9.8418  -9.6732  -9.5087  -9.4938  -9.4243
    -9.3725  -9.3281  -9.2469  -9.1314  -9.1240  -9.0821  -9.0695  -9.0002
    -8.9222  -8.8453  -8.8297  -8.6463  -8.5868  -8.5651  -8.4661  -8.4580
    -8.4205  -8.3109  -8.2672  -8.2313  -8.2098  -8.1429  -8.0432  -7.9981
    -7.9390  -7.8215  -7.7731  -7.7667  -7.7201  -7.6838  -7.6541  -7.6019
    -7.5869  -7.4944  -7.4599  -7.3771  -7.3322  -7.2939  -7.2467  -7.1030
    -7.0254  -6.9733  -6.8783  -6.8661  -6.7905  -6.7479  -6.6084  -6.5456
    -6.5104  -6.4621  -6.3647  -6.2609  -6.1409  -6.0588  -6.0239  -6.0058
    -5.9513  -5.7801  -5.7544  -5.6200  -5.3688  -5.3473  -5.2949  -5.2530
    -5.2090  -5.1523  -5.1405  -4.9239  -4.5721  -4.4939  -4.4380  -4.4276
    -4.3146  -4.2611  -4.0521  -3.9154  -3.8934  -3.8418  -3.3201  -3.1960
    -3.0339  -2.9213  -1.9162  -0.7466  -0.5808  -0.4186  -0.3102  -0.0224
     0.1190   0.1612   0.2831   0.3367   0.4590   0.5335   0.5601   0.6148
     0.6380   1.2090   1.2753   1.3059   1.4766   1.5681   1.6220   1.6362
     1.6676   1.6698   1.8926   2.0241   2.1551   2.1833   2.2199   2.2646
     2.2903   2.5150   2.5702   2.6509   2.6544   2.6837   2.7019   2.7654
     2.8242   2.8921   2.9120   2.9816   3.0331   3.0858   3.1236   3.1935
     3.2147   3.2302   3.3043   3.3446   3.3870   3.4130   3.4583   3.5811
     3.6013   3.6975   3.7290   3.7706   3.7742   3.8407   3.8896   3.8992
     4.0687   4.0866   4.0944   4.1227   4.1399   4.1584   4.1928   4.2129
     4.2380   4.2984   4.3228   4.3352   4.3495   4.3885   4.3939   4.4045
     4.4499   4.4625   4.5146   4.5570   4.6326   4.6628   4.6871   4.8928
     4.9112   4.9398   4.9755   5.0274   5.0436   5.1190   5.1308   5.1556
     5.1797   5.2279   5.2883   5.3643   5.3814   5.4012   5.4512   5.4677
     5.4956   5.5168   5.5445   5.5465   5.5864   5.6070   5.6466   5.6714
     5.6812   5.7248   5.7668   5.7831   5.8343   5.8811   5.8937   5.8981
     5.9476   5.9489   5.9661   5.9727   5.9994   6.0487   6.0670   6.0724
     6.0845   6.1500   6.1629   6.1930   6.2013   6.2301   6.2942   6.3380
     6.3630   6.3730   6.4360   6.4725   6.5383   6.5579   6.5956   6.6276
     6.6419   6.6732   6.6805   6.7340   6.7472   6.7473   6.7749   6.7790
     6.7946   6.8252   6.8293   6.8456   6.8582   6.8792   6.8874   6.9242
     6.9366   6.9412   6.9946   7.0218   7.0332   7.0498   7.0909   7.1041
     7.1186   7.1301   7.1501   7.1535   7.2006   7.2279   7.2381   7.2638
     7.3165   7.3189   7.3523   7.3913   7.4196   7.4290   7.4384   7.4589
     7.4764   7.5079   7.5431   7.5593   7.5864   7.5989   7.6560   7.6620
     7.7028   7.7114   7.7429   7.7553   7.8142   7.8246   7.8623   7.8924
     7.9194   7.9473   7.9640   7.9864   8.0200   8.0606   8.0828   8.1029
     8.1283   8.1605   8.1622   8.2031   8.2175   8.2373   8.2747   8.3060
     8.3230   8.3564   8.3592   8.3728   8.3962   8.4189   8.4273   8.4896
     8.5286   8.5643   8.5739   8.5797   8.6066   8.6188   8.6728   8.7087
     8.7229   8.7512   8.7908   8.8337   8.8461   8.8546   8.8812   8.8828
     8.8913   8.9042   8.9284   8.9307   8.9599   8.9726   8.9787   8.9925
     9.0266   9.0714   9.0999   9.1082   9.1152   9.1294   9.1609   9.1978
     9.2046   9.2131   9.2392   9.2431   9.2575   9.2661   9.2976   9.3140
     9.3218   9.3990   9.4335   9.4588   9.4685   9.5191   9.5574   9.5873
     9.6043   9.6405   9.6555   9.6707   9.6851   9.6871   9.7024   9.7225
     9.7250   9.7571   9.7976   9.8272   9.8432   9.8708   9.8957   9.9041
     9.9142   9.9362   9.9640   9.9674   9.9836  10.0121  10.0251  10.0583
    10.1177  10.1385  10.1830  10.2340  10.2397  10.2682  10.3236  10.3269
    10.3545  10.3777  10.3859  10.4025  10.4187  10.4415  10.4778  10.5000
    10.5365  10.5754  10.6059  10.6088  10.6225  10.6407  10.6611  10.6627
    10.6899  10.7019  10.7360  10.7421  10.7510  10.7673  10.7974  10.8122
    10.8529  10.8790  10.9140  10.9253  10.9268  10.9428  10.9723  10.9757
    11.0110  11.0392  11.0518  11.0539

     the Fermi energy is    -1.8833 ev

     Writing output data file AGNR_10_Defect_G.save/

     init_run     :     16.36s CPU     16.97s WALL (       1 calls)
     electrons    :  10169.03s CPU  10287.23s WALL (       1 calls)

     Called by init_run:
     wfcinit      :      0.00s CPU      0.01s WALL (       1 calls)
     potinit      :      1.00s CPU      1.12s WALL (       1 calls)
     hinit0       :     12.65s CPU     12.79s WALL (       1 calls)

     Called by electrons:
     c_bands      :  10169.01s CPU  10286.95s WALL (       1 calls)
     v_of_rho     :      0.78s CPU      0.85s WALL (       1 calls)
     newd         :      0.70s CPU      0.94s WALL (       1 calls)

     Called by c_bands:
     init_us_2    :      1.08s CPU      1.17s WALL (      26 calls)
     cegterg      :   9997.90s CPU  10105.74s WALL (     133 calls)

     Called by sum_band:

     Called by *egterg:
     h_psi        :   2731.47s CPU   2776.75s WALL (    2559 calls)
     s_psi        :    400.44s CPU    402.90s WALL (    2559 calls)
     g_psi        :     13.48s CPU     13.62s WALL (    2400 calls)
     cdiaghg      :   4122.58s CPU   4139.33s WALL (    2426 calls)

     Called by h_psi:
     h_psi:pot    :   2713.86s CPU   2752.09s WALL (    2559 calls)
     h_psi:calbec :    390.03s CPU    395.73s WALL (    2559 calls)
     vloc_psi     :   1921.64s CPU   1951.92s WALL (    2559 calls)
     add_vuspsi   :    402.15s CPU    404.40s WALL (    2559 calls)

     General routines
     calbec       :    390.01s CPU    395.68s WALL (    2559 calls)
     fft          :      0.84s CPU      0.93s WALL (      14 calls)
     ffts         :      0.01s CPU      0.01s WALL (       1 calls)
     fftw         :   1526.41s CPU   1550.30s WALL (  655750 calls)
     interpolate  :      0.05s CPU      0.05s WALL (       1 calls)
     davcio       :      0.00s CPU      6.63s WALL (      52 calls)

     Parallel routines
     fft_scatt_xy :    276.18s CPU    278.79s WALL (  655765 calls)
     fft_scatt_yz :    280.74s CPU    287.84s WALL (  655765 calls)

     PWSCF        :     2h49m CPU       49h 2m WALL

      56h

   This run was terminated on:  20:42:41  16Apr2021            

=------------------------------------------------------------------------------=
   JOB DONE.
=------------------------------------------------------------------------------=
