
     Program PWSCF v.6.3 starts on 16Apr2021 at 19:14:17 

     This program is part of the open-source Quantum ESPRESSO suite
     for quantum simulation of materials; please cite
         "P. Giannozzi et al., J. Phys.:Condens. Matter 21 395502 (2009);
         "P. Giannozzi et al., J. Phys.:Condens. Matter 29 465901 (2017);
          URL http://www.quantum-espresso.org", 
     in publications or presentations arising from this work. More details at
     http://www.quantum-espresso.org/quote

     Parallel version (MPI), running on    16 processors
     R & G space division:  proc/nbgrp/npool/nimage =      16
     Waiting for input...
     Reading input from standard input
     Message from routine read_cards :
     DEPRECATED: no units specified in CELL_PARAMETERS card

     Current dimensions of program PWSCF are:
     Max number of different atomic species (ntypx) = 10
     Max number of k-points (npk) =  40000
     Max angular momentum in pseudopotentials (lmaxx) =  3

     Atomic positions and unit cell read from directory:
     /home/zfwang/scratch/GNRDATASET/AGNR/AGNR_10_Defect_H/AGNR_10_Defect_H.save/


     Subspace diagonalization in iterative solution of the eigenvalue problem:
     a serial algorithm will be used


     Parallelization info
     --------------------
     sticks:   dense  smooth     PW     G-vecs:    dense   smooth      PW
     Min        1795     598    154               268889    51736    6769
     Max        1797     599    155               268893    51739    6771
     Sum       28723    9573   2475              4302255   827793  108323



     bravais-lattice index     =            0
     lattice parameter (alat)  =       1.8897  a.u.
     unit-cell volume          =   24226.2045 (a.u.)^3
     number of atoms/cell      =           96
     number of atomic types    =            2
     number of electrons       =       327.00
     number of Kohn-Sham states=          500
     kinetic-energy cutoff     =      40.0000  Ry
     charge density cutoff     =     480.0000  Ry
     Exchange-correlation      = PBE ( 1  4  3  4 0 0)

     celldm(1)=  18.897261  celldm(2)=   2.106780  celldm(3)=   1.704000
     celldm(4)=   0.000000  celldm(5)=   0.000000  celldm(6)=   0.000000

     crystal axes: (cart. coord. in units of alat)
               a(1) = (  10.000000   0.000000   0.000000 )  
               a(2) = (   0.000000  21.067800   0.000000 )  
               a(3) = (   0.000000   0.000000  17.040000 )  

     reciprocal axes: (cart. coord. in units 2 pi/alat)
               b(1) = (  0.100000  0.000000  0.000000 )  
               b(2) = (  0.000000  0.047466  0.000000 )  
               b(3) = (  0.000000  0.000000  0.058685 )  


     PseudoPot. # 1 for C  read from file:
     /home/zfwang/hp_home/MySoftware/qe-6.3/pseudo/C.pbe-n-rrkjus_psl.0.1.UPF
     MD5 check sum: fff530ed632a789b3b184014e67dd7f1
     Pseudo is Ultrasoft + core correction, Zval =  4.0
     Generated using "atomic" code by A. Dal Corso v.5.0.2 svn rev. 9415
     Using radial grid of 1073 points,  4 beta functions with: 
                l(1) =   0
                l(2) =   0
                l(3) =   1
                l(4) =   1
     Q(r) pseudized with 0 coefficients 


     PseudoPot. # 2 for H  read from file:
     /home/zfwang/hp_home/MySoftware/qe-6.3/pseudo/H.pbe-rrkjus_psl.0.1.UPF
     MD5 check sum: e164a6907b691c6980f16942be34de84
     Pseudo is Ultrasoft, Zval =  1.0
     Generated using "atomic" code by A. Dal Corso v.5.0.2 svn rev. 9415
     Using radial grid of  929 points,  2 beta functions with: 
                l(1) =   0
                l(2) =   0
     Q(r) pseudized with 0 coefficients 


     atomic species   valence    mass     pseudopotential
        C              4.00    12.01070     C ( 1.00)
        H              1.00     1.00794     H ( 1.00)

     No symmetry found



   Cartesian axes

     site n.     atom                  positions (alat units)
         1           C   tau(   1) = (   5.0000006   5.0014007   0.7376094  )
         2           C   tau(   2) = (   5.0000008   5.0268180   4.9785532  )
         3           C   tau(   3) = (   5.0000002   4.9777723   9.2154816  )
         4           C   tau(   4) = (   4.9999999   4.9625208  13.4983633  )
         5           C   tau(   5) = (   5.0000009   6.2153111   1.4596232  )
         6           C   tau(   6) = (   5.0000007   6.2356723   5.7055659  )
         7           C   tau(   7) = (   5.0000000   6.1764468   9.9605323  )
         8           C   tau(   8) = (   5.0000000   6.1706341  14.2347229  )
         9           C   tau(   9) = (   5.0000010   5.0239328   3.6166215  )
        10           C   tau(  10) = (   5.0000004   5.0007563   7.8507662  )
        11           C   tau(  11) = (   4.9999999   4.9609286  12.1305649  )
        12           C   tau(  12) = (   5.0000003   4.9860042  16.4109041  )
        13           C   tau(  13) = (   5.0000008   7.4404543   0.7522199  )
        14           C   tau(  14) = (   5.0000007   7.4726638   5.0072950  )
        15           C   tau(  15) = (   4.9999997   7.4121841   9.2597494  )
        16           C   tau(  16) = (   4.9999999   7.3978769  13.5266446  )
        17           C   tau(  17) = (   5.0000009   8.6821250   1.4607979  )
        18           C   tau(  18) = (   5.0000004   8.7126965   5.7162454  )
        19           C   tau(  19) = (   4.9999991   8.6374420   9.9741355  )
        20           C   tau(  20) = (   4.9999999   8.6358725  14.2382888  )
        21           C   tau(  21) = (   5.0000009   6.2319094   2.8884358  )
        22           C   tau(  22) = (   5.0000005   6.2187984   7.1313973  )
        23           C   tau(  23) = (   4.9999999   6.1668602  11.3924764  )
        24           C   tau(  24) = (   5.0000002   6.1846776  15.6670098  )
        25           C   tau(  25) = (   5.0000008   7.4650507   3.5866017  )
        26           C   tau(  26) = (   5.0000002   7.4426402   7.8374411  )
        27           C   tau(  27) = (   4.9999998   7.3937063  12.1013068  )
        28           C   tau(  28) = (   5.0000005   7.4216538  16.3674292  )
        29           C   tau(  29) = (   5.0000006   9.9078150   0.7458262  )
        30           C   tau(  30) = (   5.0000003   9.9647675   5.0117917  )
        31           C   tau(  31) = (   4.9999987   9.8703546   9.2603465  )
        32           C   tau(  32) = (   4.9999991   9.8614318  13.5235099  )
        33           C   tau(  33) = (   5.0000004  11.1458033   1.4447714  )
        34           C   tau(  34) = (   4.9999998  11.2029999   5.7115573  )
        35           C   tau(  35) = (   4.9999984  11.0790615   9.9780814  )
        36           C   tau(  36) = (   4.9999988  11.0951593  14.2316793  )
        37           C   tau(  37) = (   5.0000009   8.7048874   2.8785463  )
        38           C   tau(  38) = (   5.0000002   8.6918211   7.1287162  )
        39           C   tau(  39) = (   4.9999993   8.6279554  11.3895238  )
        40           C   tau(  40) = (   5.0000003   8.6500206  15.6539913  )
        41           C   tau(  41) = (   5.0000007   9.9433695   3.5848516  )
        42           C   tau(  42) = (   4.9999996   9.9198791   7.8411644  )
        43           C   tau(  43) = (   4.9999987   9.8529208  12.1065259  )
        44           C   tau(  44) = (   5.0000003   9.8877124  16.3644032  )
        45           C   tau(  45) = (   5.0000001  12.3605353   0.7167809  )
        46           C   tau(  46) = (   5.0000008  12.4725818   5.0028324  )
        47           C   tau(  47) = (   5.0000013  12.3125806   9.2775559  )
        48           C   tau(  48) = (   4.9999972  12.3111285  13.5234174  )
        49           C   tau(  49) = (   5.0000002  13.6053523   1.4087400  )
        50           C   tau(  50) = (   5.0000013  13.7203370   5.6945632  )
        51           C   tau(  51) = (   5.0000088  13.4572150  10.0651084  )
        52           C   tau(  52) = (   4.9999985  13.5748868  14.2001993  )
        53           C   tau(  53) = (   5.0000006  11.1777315   2.8750469  )
        54           C   tau(  54) = (   4.9999989  11.1802840   7.1404403  )
        55           C   tau(  55) = (   4.9999978  11.0788877  11.3978524  )
        56           C   tau(  56) = (   4.9999997  11.1072383  15.6517370  )
        57           C   tau(  57) = (   5.0000006  12.4198015   3.5705678  )
        58           C   tau(  58) = (   4.9999985  12.3972674   7.8604217  )
        59           C   tau(  59) = (   4.9999961  12.2957633  12.1255870  )
        60           C   tau(  60) = (   4.9999996  12.3451602  16.3420961  )
        61           C   tau(  61) = (   5.0000001  14.8069612   0.6716249  )
        62           C   tau(  62) = (   5.0000002  15.0100105   4.9497400  )
        63           C   tau(  63) = (   4.9999992  14.8057661  13.5058497  )
        64           C   tau(  64) = (   4.9999998  16.0244213   1.3428651  )
        65           C   tau(  65) = (   4.9999989  16.3437867   5.3460891  )
        66           C   tau(  66) = (   4.9999993  16.0082267  14.2170238  )
        67           C   tau(  67) = (   5.0000006  13.6442005   2.8314658  )
        68           C   tau(  68) = (   4.9999982  13.6921212   7.1585593  )
        69           C   tau(  69) = (   5.0000004  13.5154894  11.4159351  )
        70           C   tau(  70) = (   4.9999992  13.5724816  15.6115216  )
        71           C   tau(  71) = (   5.0000007  14.8958660   3.4869452  )
        72           C   tau(  72) = (   4.9999947  14.9390799   7.7150589  )
        73           C   tau(  73) = (   5.0000004  14.8307301  12.0572416  )
        74           C   tau(  74) = (   4.9999997  14.8038874  16.2925084  )
        75           C   tau(  75) = (   4.9999995  16.0582996   2.6956540  )
        76           C   tau(  76) = (   4.9999999  16.0045897  11.3754616  )
        77           C   tau(  77) = (   4.9999994  16.0112692  15.5803553  )
        78           H   tau(  78) = (   5.0000006   4.0497635   1.2618300  )
        79           H   tau(  79) = (   5.0000008   4.0725388   5.4968322  )
        80           H   tau(  80) = (   4.9999999   4.0149190   9.7197390  )
        81           H   tau(  81) = (   4.9999998   4.0058747  14.0153892  )
        82           H   tau(  82) = (   5.0000010   4.0690211   3.0990850  )
        83           H   tau(  83) = (   5.0000004   4.0515284   7.3225393  )
        84           H   tau(  84) = (   4.9999998   4.0039668  11.6146244  )
        85           H   tau(  85) = (   5.0000000   4.0251414  15.9022962  )
        86           H   tau(  86) = (   4.9999993  16.9693594   0.8110511  )
        87           H   tau(  87) = (   5.0000024  17.1075571   4.5886911  )
        88           H   tau(  88) = (   4.9999995  16.9604791  13.6946485  )
        89           H   tau(  89) = (   4.9999980  17.0531598   3.1126977  )
        90           H   tau(  90) = (   5.0000004  16.9631403  11.8831014  )
        91           H   tau(  91) = (   4.9999995  16.9667458  16.0929811  )
        92           H   tau(  92) = (   5.0000261  14.3933233   9.5957537  )
        93           H   tau(  93) = (   4.9999940  16.8556327   6.2933415  )
        94           H   tau(  94) = (   5.0000108  15.7372903   7.0400739  )
        95           H   tau(  95) = (   4.9999756  15.3416073   8.7016481  )
        96           H   tau(  96) = (   4.9999992  16.0794369  10.2948021  )

     number of k points=    26  Marzari-Vanderbilt smearing, width (Ry)=  0.0100
                       cart. coord. in units 2pi/alat
        k(    1) = (   0.0000000   0.0000000   0.0000000), wk =   0.0400000
        k(    2) = (   0.0000000   0.0000000   0.0011737), wk =   0.0800000
        k(    3) = (   0.0000000   0.0000000   0.0023474), wk =   0.0800000
        k(    4) = (   0.0000000   0.0000000   0.0035211), wk =   0.0800000
        k(    5) = (   0.0000000   0.0000000   0.0046948), wk =   0.0800000
        k(    6) = (   0.0000000   0.0000000   0.0058685), wk =   0.0800000
        k(    7) = (   0.0000000   0.0000000   0.0070423), wk =   0.0800000
        k(    8) = (   0.0000000   0.0000000   0.0082160), wk =   0.0800000
        k(    9) = (   0.0000000   0.0000000   0.0093897), wk =   0.0800000
        k(   10) = (   0.0000000   0.0000000   0.0105634), wk =   0.0800000
        k(   11) = (   0.0000000   0.0000000   0.0117371), wk =   0.0800000
        k(   12) = (   0.0000000   0.0000000   0.0129108), wk =   0.0800000
        k(   13) = (   0.0000000   0.0000000   0.0140845), wk =   0.0800000
        k(   14) = (   0.0000000   0.0000000   0.0152582), wk =   0.0800000
        k(   15) = (   0.0000000   0.0000000   0.0164319), wk =   0.0800000
        k(   16) = (   0.0000000   0.0000000   0.0176056), wk =   0.0800000
        k(   17) = (   0.0000000   0.0000000   0.0187793), wk =   0.0800000
        k(   18) = (   0.0000000   0.0000000   0.0199531), wk =   0.0800000
        k(   19) = (   0.0000000   0.0000000   0.0211268), wk =   0.0800000
        k(   20) = (   0.0000000   0.0000000   0.0223005), wk =   0.0800000
        k(   21) = (   0.0000000   0.0000000   0.0234742), wk =   0.0800000
        k(   22) = (   0.0000000   0.0000000   0.0246479), wk =   0.0800000
        k(   23) = (   0.0000000   0.0000000   0.0258216), wk =   0.0800000
        k(   24) = (   0.0000000   0.0000000   0.0269953), wk =   0.0800000
        k(   25) = (   0.0000000   0.0000000   0.0281690), wk =   0.0800000
        k(   26) = (   0.0000000   0.0000000  -0.0293427), wk =   0.0400000

     Dense  grid:  4302255 G-vectors     FFT dimensions: ( 135, 288, 225)

     Smooth grid:   827793 G-vectors     FFT dimensions: (  80, 162, 135)

     Estimated max dynamical RAM per process >     978.65 MB

     Estimated total dynamical RAM >      15.29 GB

     The potential is recalculated from file :
     /home/zfwang/scratch/GNRDATASET/AGNR/AGNR_10_Defect_H/AGNR_10_Defect_H.save/charge-density.dat


     negative rho (up, down):  1.320E-04 0.000E+00
     Starting wfcs are  327 randomized atomic wfcs +  173 random wfcs

     Band Structure Calculation
     Davidson diagonalization with overlap
     c_bands:  1 eigenvalues not converged
     c_bands:  1 eigenvalues not converged
     c_bands:  3 eigenvalues not converged
     c_bands:  2 eigenvalues not converged
     c_bands:  2 eigenvalues not converged
     c_bands:  1 eigenvalues not converged
     c_bands:  2 eigenvalues not converged

     ethr =  3.06E-09,  avg # of iterations = 95.8

     total cpu time spent up to now is    10273.9 secs

     End of band structure calculation

          k = 0.0000 0.0000 0.0000 (103407 PWs)   bands (ev):

   -21.1585 -20.8005 -20.7731 -20.6264 -20.2861 -20.1969 -19.8916 -19.6843
   -19.6685 -19.5555 -19.3751 -19.1013 -19.0785 -18.8714 -18.6308 -18.5187
   -18.2498 -18.0581 -17.8825 -17.8356 -17.6868 -17.5467 -17.4612 -17.3424
   -17.3036 -17.2115 -16.8366 -16.6384 -16.5369 -16.3251 -16.2806 -16.2298
   -16.0581 -15.8755 -15.7769 -15.4782 -15.2871 -15.0875 -14.9011 -14.8186
   -14.4632 -14.4304 -14.3560 -14.3076 -14.1067 -14.0441 -13.9752 -13.7065
   -13.5507 -13.1352 -12.9478 -12.9111 -12.8099 -12.6590 -12.5027 -12.3956
   -12.3789 -12.2848 -12.1879 -12.0290 -11.7920 -11.7798 -11.5826 -11.3865
   -11.3477 -11.0514 -10.9441 -10.7881 -10.7546 -10.6535 -10.5398 -10.3460
   -10.2738 -10.1951  -9.9962  -9.9073  -9.7711  -9.7044  -9.6643  -9.6312
    -9.4392  -9.3767  -9.2862  -9.2262  -9.1953  -9.0630  -9.0202  -8.9212
    -8.7987  -8.7774  -8.7066  -8.6179  -8.5645  -8.5501  -8.4902  -8.4739
    -8.3916  -8.3481  -8.3329  -8.2917  -8.2470  -8.2165  -8.1497  -8.1296
    -8.1196  -8.0858  -8.0184  -7.9055  -7.8479  -7.7701  -7.6542  -7.5788
    -7.5107  -7.4918  -7.4849  -7.4733  -7.3823  -7.2141  -7.1879  -7.1314
    -7.0337  -6.9677  -6.9047  -6.8674  -6.8422  -6.8292  -6.6218  -6.6018
    -6.5441  -6.3476  -6.3120  -6.2944  -6.2356  -6.1498  -5.9958  -5.9789
    -5.9252  -5.7907  -5.7048  -5.7020  -5.4880  -5.4593  -5.3248  -5.3200
    -5.1910  -5.1349  -5.1338  -4.9657  -4.9282  -4.8271  -4.6542  -4.4952
    -4.3521  -4.2707  -4.0556  -3.9585  -3.9112  -3.8351  -3.7709  -3.4008
    -3.2747  -2.6666  -2.3275  -1.9862  -1.4675  -0.9520  -0.4699  -0.2942
    -0.1034  -0.0906   0.0589   0.1006   0.1737   0.3145   0.6498   0.7234
     1.0168   1.1608   1.2506   1.3451   1.4815   1.4946   1.5194   1.6159
     1.6583   1.6732   1.7142   1.9131   1.9769   2.0106   2.0179   2.0234
     2.0296   2.1139   2.2914   2.5043   2.5279   2.5811   2.6591   2.7065
     2.8824   2.9281   2.9700   3.0418   3.0494   3.0590   3.0903   3.1104
     3.1798   3.2474   3.3154   3.3177   3.3377   3.4210   3.4463   3.4485
     3.5043   3.5473   3.5593   3.5710   3.6489   3.6979   3.7008   3.7839
     3.8311   3.9231   3.9802   4.0244   4.0482   4.1080   4.1427   4.1906
     4.2766   4.2808   4.4566   4.4678   4.4807   4.4903   4.4992   4.5268
     4.5864   4.6459   4.6553   4.6894   4.7588   4.7705   4.8065   4.8073
     4.8411   4.8617   4.9148   4.9293   4.9358   4.9804   4.9835   5.0261
     5.0797   5.1186   5.1777   5.2041   5.2365   5.2391   5.2661   5.2966
     5.3341   5.3413   5.3804   5.3891   5.4217   5.4595   5.4677   5.6021
     5.6459   5.6706   5.7347   5.7624   5.8297   5.8896   5.9103   5.9422
     5.9662   5.9886   5.9941   6.0096   6.0217   6.0406   6.0563   6.0569
     6.0734   6.1497   6.1842   6.2451   6.2498   6.2531   6.2662   6.2785
     6.3104   6.3136   6.3367   6.4068   6.4340   6.4583   6.4695   6.4797
     6.5007   6.5274   6.5311   6.5589   6.5870   6.6012   6.6150   6.6693
     6.7294   6.7389   6.7709   6.7850   6.8202   6.8240   6.8472   6.8812
     6.9083   6.9455   6.9605   6.9640   6.9929   7.0168   7.0284   7.0476
     7.0913   7.1380   7.1609   7.1973   7.2219   7.2407   7.2661   7.2725
     7.2937   7.3056   7.3253   7.3599   7.3760   7.3981   7.4006   7.4306
     7.4835   7.5068   7.5365   7.5759   7.6098   7.6114   7.6458   7.6526
     7.6735   7.6872   7.6887   7.7087   7.7277   7.7553   7.7641   7.7825
     7.7956   7.8290   7.8787   7.8911   7.9137   7.9375   7.9928   8.0005
     8.0246   8.0420   8.0520   8.0858   8.1519   8.2327   8.2444   8.2906
     8.3344   8.3451   8.3604   8.3856   8.4006   8.4081   8.4682   8.5166
     8.5248   8.5465   8.5774   8.5858   8.5906   8.6063   8.6158   8.6359
     8.6423   8.6677   8.7077   8.7115   8.7341   8.7716   8.7921   8.8041
     8.8058   8.8252   8.8377   8.8500   8.8569   8.9841   8.9953   9.0323
     9.0696   9.0855   9.1060   9.1506   9.1599   9.1725   9.1839   9.2186
     9.2270   9.2415   9.2741   9.2875   9.2939   9.3398   9.3401   9.3656
     9.3686   9.3815   9.3965   9.4206   9.4345   9.4704   9.4776   9.5225
     9.5534   9.5648   9.5725   9.5976   9.6185   9.6454   9.6477   9.6968
     9.7222   9.7324   9.7707   9.7881   9.8130   9.8306   9.8995   9.9040
     9.9343   9.9546   9.9676   9.9985   9.9989  10.0091  10.0267  10.0347
    10.0510  10.0665  10.0830  10.0902  10.1048  10.1437  10.1711  10.1861
    10.1872  10.2011  10.2396  10.2849  10.3657  10.4451  10.5057  10.5789
    10.5968  10.6371  10.6474  10.6607  10.6924  10.7224  10.7234  10.7521
    10.7903  10.7934  10.8029  10.8043  10.8225  10.8290  10.8479  10.8496
    10.8578  10.8718  10.8801  10.9112  10.9243  10.9295  10.9575  10.9736
    10.9974  11.0010  11.0465  11.0857

          k = 0.0000 0.0000 0.0012 (103433 PWs)   bands (ev):

   -21.1584 -20.8053 -20.7683 -20.6260 -20.2876 -20.1951 -19.8915 -19.7044
   -19.6488 -19.5557 -19.3744 -19.1139 -19.0654 -18.8711 -18.6330 -18.5170
   -18.2500 -18.0588 -17.9006 -17.8156 -17.6876 -17.5517 -17.4566 -17.3564
   -17.2902 -17.2098 -16.8368 -16.6425 -16.5327 -16.3266 -16.2807 -16.2280
   -16.0584 -15.8782 -15.7767 -15.4796 -15.2865 -15.0891 -14.8996 -14.8176
   -14.4621 -14.4307 -14.3596 -14.3031 -14.1071 -14.0429 -13.9745 -13.7062
   -13.5507 -13.1355 -12.9591 -12.9000 -12.8121 -12.6582 -12.5039 -12.4465
   -12.3283 -12.2856 -12.1875 -12.0265 -11.7963 -11.7754 -11.5812 -11.3950
   -11.3396 -11.0523 -10.9419 -10.7896 -10.7599 -10.6533 -10.5347 -10.3479
   -10.2718 -10.1949  -9.9998  -9.9048  -9.7724  -9.7112  -9.6644  -9.6208
    -9.4402  -9.3881  -9.2822  -9.2261  -9.1907  -9.0643  -9.0199  -8.9172
    -8.8065  -8.7696  -8.7058  -8.6174  -8.5712  -8.5490  -8.4993  -8.4702
    -8.3877  -8.3525  -8.3323  -8.2841  -8.2486  -8.2188  -8.1512  -8.1270
    -8.1202  -8.0827  -8.0167  -7.9046  -7.8474  -7.7701  -7.6550  -7.5801
    -7.5200  -7.5092  -7.4731  -7.4573  -7.3824  -7.2143  -7.1869  -7.1322
    -7.0357  -6.9655  -6.9049  -6.8835  -6.8292  -6.8258  -6.6214  -6.6046
    -6.5426  -6.3504  -6.3197  -6.2875  -6.2337  -6.1515  -5.9936  -5.9785
    -5.9249  -5.7924  -5.7049  -5.6998  -5.5148  -5.4315  -5.3247  -5.3209
    -5.1972  -5.1341  -5.1286  -4.9775  -4.9216  -4.8211  -4.6543  -4.4952
    -4.3587  -4.2649  -4.0559  -3.9587  -3.9112  -3.8388  -3.7671  -3.4018
    -3.2742  -2.6676  -2.3278  -1.9869  -1.4664  -0.9510  -0.4705  -0.2930
    -0.1099  -0.0836   0.0585   0.1010   0.1748   0.3143   0.6458   0.7253
     1.0182   1.1610   1.2464   1.3479   1.4729   1.4947   1.5196   1.6213
     1.6456   1.6864   1.7167   1.8986   1.9691   2.0019   2.0190   2.0385
     2.0461   2.1151   2.2907   2.5060   2.5261   2.5801   2.6625   2.7066
     2.8754   2.9276   2.9745   3.0314   3.0515   3.0520   3.0994   3.1167
     3.1799   3.2426   3.3178   3.3208   3.3380   3.4094   3.4470   3.4556
     3.4971   3.5310   3.5703   3.5893   3.6497   3.6828   3.7179   3.7778
     3.8375   3.9214   3.9785   4.0211   4.0351   4.1224   4.1456   4.1913
     4.2768   4.2821   4.4485   4.4669   4.4752   4.4876   4.5115   4.5228
     4.5811   4.6542   4.6587   4.6892   4.7480   4.7775   4.8065   4.8113
     4.8401   4.8547   4.9082   4.9207   4.9281   4.9842   5.0019   5.0296
     5.0850   5.1188   5.1642   5.2012   5.2304   5.2371   5.2609   5.2897
     5.3367   5.3545   5.3837   5.4054   5.4248   5.4604   5.4681   5.6033
     5.6455   5.6712   5.7345   5.7628   5.8284   5.8881   5.9090   5.9374
     5.9519   5.9664   5.9773   6.0120   6.0397   6.0420   6.0685   6.0697
     6.0839   6.1493   6.1843   6.2233   6.2411   6.2565   6.2795   6.2820
     6.3134   6.3211   6.3323   6.4038   6.4306   6.4598   6.4624   6.4759
     6.5040   6.5223   6.5406   6.5660   6.5872   6.6054   6.6180   6.6730
     6.7273   6.7388   6.7668   6.7836   6.8226   6.8258   6.8485   6.8852
     6.9062   6.9357   6.9544   6.9695   6.9931   7.0110   7.0366   7.0512
     7.0926   7.1400   7.1606   7.1840   7.1976   7.2600   7.2718   7.2751
     7.2935   7.3094   7.3258   7.3574   7.3723   7.3957   7.4059   7.4298
     7.4771   7.5045   7.5377   7.5805   7.5989   7.6075   7.6478   7.6504
     7.6695   7.6840   7.6899   7.7294   7.7306   7.7478   7.7566   7.7900
     7.8099   7.8281   7.8786   7.8907   7.9176   7.9379   7.9831   8.0011
     8.0236   8.0436   8.0667   8.0880   8.1511   8.2318   8.2418   8.2813
     8.3340   8.3349   8.3597   8.3966   8.4014   8.4053   8.4621   8.5193
     8.5278   8.5435   8.5714   8.5756   8.6005   8.6085   8.6179   8.6336
     8.6492   8.6787   8.7037   8.7083   8.7341   8.7531   8.7720   8.8038
     8.8155   8.8321   8.8507   8.8593   8.8676   8.9672   8.9958   9.0401
     9.0695   9.0898   9.1138   9.1464   9.1560   9.1625   9.1811   9.2231
     9.2244   9.2419   9.2667   9.2897   9.2965   9.3330   9.3385   9.3521
     9.3658   9.3754   9.3989   9.4309   9.4389   9.4747   9.4858   9.5260
     9.5544   9.5702   9.5730   9.5937   9.6166   9.6426   9.6483   9.6956
     9.7226   9.7289   9.7734   9.7880   9.8148   9.8304   9.8955   9.9034
     9.9390   9.9542   9.9655   9.9973  10.0007  10.0055  10.0283  10.0429
    10.0445  10.0568  10.0863  10.0929  10.1068  10.1425  10.1783  10.1795
    10.1915  10.2134  10.2460  10.2833  10.3647  10.4437  10.5042  10.5722
    10.5822  10.6360  10.6507  10.6565  10.6952  10.7198  10.7318  10.7503
    10.7648  10.7953  10.8015  10.8112  10.8284  10.8288  10.8479  10.8523
    10.8594  10.8817  10.8819  10.9140  10.9173  10.9307  10.9515  10.9776
    11.0024  11.0029  11.0395  11.0845

          k = 0.0000 0.0000 0.0023 (103431 PWs)   bands (ev):

   -21.1580 -20.8151 -20.7586 -20.6249 -20.2918 -20.1900 -19.8915 -19.7307
   -19.6241 -19.5556 -19.3726 -19.1330 -19.0450 -18.8703 -18.6392 -18.5124
   -18.2506 -18.0616 -17.9285 -17.7816 -17.6900 -17.5640 -17.4460 -17.3794
   -17.2696 -17.2034 -16.8376 -16.6530 -16.5221 -16.3306 -16.2808 -16.2231
   -16.0593 -15.8862 -15.7759 -15.4839 -15.2850 -15.0935 -14.8954 -14.8143
   -14.4608 -14.4297 -14.3674 -14.2924 -14.1084 -14.0393 -13.9725 -13.7054
   -13.5506 -13.1366 -12.9793 -12.8806 -12.8179 -12.6565 -12.5145 -12.4965
   -12.2958 -12.2645 -12.1856 -12.0197 -11.8039 -11.7680 -11.5774 -11.4114
   -11.3243 -11.0548 -10.9358 -10.7950 -10.7730 -10.6526 -10.5218 -10.3522
   -10.2668 -10.1940 -10.0089  -9.8992  -9.7759  -9.7267  -9.6602  -9.5994
    -9.4462  -9.4108  -9.2779  -9.2256  -9.1784  -9.0677  -9.0176  -8.9067
    -8.8200  -8.7563  -8.7035  -8.6159  -8.5885  -8.5479  -8.5133  -8.4692
    -8.3885  -8.3555  -8.3233  -8.2708  -8.2529  -8.2251  -8.1554  -8.1208
    -8.1198  -8.0749  -8.0119  -7.9019  -7.8458  -7.7699  -7.6575  -7.5833
    -7.5515  -7.5055  -7.4720  -7.4290  -7.3816  -7.2149  -7.1840  -7.1346
    -7.0405  -6.9600  -6.9074  -6.9054  -6.8291  -6.8010  -6.6201  -6.6119
    -6.5393  -6.3581  -6.3323  -6.2771  -6.2288  -6.1559  -5.9878  -5.9775
    -5.9243  -5.7966  -5.7058  -5.6939  -5.5502  -5.3927  -5.3244  -5.3237
    -5.2106  -5.1352  -5.1150  -5.0006  -4.9126  -4.8046  -4.6546  -4.4955
    -4.3746  -4.2513  -4.0567  -3.9590  -3.9111  -3.8479  -3.7574  -3.4047
    -3.2728  -2.6705  -2.3288  -1.9889  -1.4635  -0.9478  -0.4721  -0.2897
    -0.1199  -0.0723   0.0574   0.1020   0.1780   0.3136   0.6351   0.7298
     1.0220   1.1615   1.2360   1.3522   1.4545   1.4949   1.5202   1.6281
     1.6298   1.7054   1.7255   1.8700   1.9542   1.9839   2.0341   2.0554
     2.0812   2.1189   2.2893   2.5110   2.5208   2.5779   2.6716   2.7067
     2.8583   2.9259   2.9838   3.0096   3.0370   3.0598   3.1149   3.1297
     3.1801   3.2314   3.3184   3.3337   3.3395   3.3908   3.4429   3.4523
     3.4897   3.5341   3.5682   3.6276   3.6482   3.6729   3.7373   3.7647
     3.8516   3.9160   3.9709   4.0130   4.0147   4.1478   4.1529   4.1947
     4.2774   4.2858   4.4311   4.4635   4.4687   4.4791   4.5123   4.5324
     4.5771   4.6509   4.6853   4.6887   4.7321   4.7826   4.8049   4.8229
     4.8366   4.8371   4.8948   4.8985   4.9232   4.9918   5.0345   5.0391
     5.0974   5.1192   5.1371   5.1868   5.2140   5.2304   5.2464   5.2844
     5.3527   5.3742   5.3965   5.4333   5.4398   5.4633   5.4703   5.6069
     5.6441   5.6729   5.7337   5.7638   5.8244   5.8822   5.8941   5.9155
     5.9215   5.9594   5.9603   6.0064   6.0392   6.0482   6.0943   6.0963
     6.1133   6.1499   6.1754   6.2097   6.2250   6.2565   6.2802   6.2850
     6.3144   6.3385   6.3404   6.3948   6.4258   6.4474   6.4492   6.4846
     6.5058   6.5193   6.5611   6.5727   6.5831   6.6202   6.6287   6.6841
     6.7189   6.7381   6.7599   6.7853   6.8200   6.8320   6.8532   6.8948
     6.8998   6.9148   6.9494   6.9747   6.9937   7.0022   7.0408   7.0647
     7.0956   7.1447   7.1508   7.1642   7.1744   7.2558   7.2752   7.2907
     7.2938   7.3212   7.3346   7.3503   7.3703   7.3881   7.4108   7.4312
     7.4635   7.5007   7.5329   7.5736   7.5894   7.5979   7.6428   7.6547
     7.6793   7.6896   7.6925   7.7189   7.7304   7.7503   7.7811   7.7976
     7.8288   7.8318   7.8792   7.8892   7.9279   7.9402   7.9699   8.0029
     8.0247   8.0455   8.0931   8.0962   8.1495   8.2242   8.2403   8.2555
     8.3211   8.3341   8.3562   8.3870   8.3999   8.4246   8.4514   8.5097
     8.5385   8.5437   8.5575   8.5691   8.6089   8.6094   8.6239   8.6309
     8.6726   8.6778   8.6991   8.7103   8.7222   8.7380   8.7600   8.8064
     8.8182   8.8306   8.8525   8.8797   8.9122   8.9450   8.9972   9.0455
     9.0691   9.0962   9.1237   9.1293   9.1508   9.1558   9.1765   9.2142
     9.2277   9.2373   9.2529   9.2690   9.3163   9.3253   9.3322   9.3362
     9.3539   9.3614   9.4110   9.4495   9.4637   9.4815   9.4939   9.5243
     9.5550   9.5616   9.5871   9.5890   9.6081   9.6452   9.6541   9.6959
     9.7225   9.7239   9.7800   9.7803   9.8217   9.8302   9.8863   9.9013
     9.9481   9.9531   9.9634   9.9932   9.9961  10.0062  10.0264  10.0334
    10.0385  10.0600  10.0954  10.0977  10.1132  10.1366  10.1820  10.1919
    10.2112  10.2230  10.2653  10.2790  10.3622  10.4403  10.4980  10.5512
    10.5573  10.6325  10.6432  10.6530  10.7015  10.7116  10.7355  10.7449
    10.7508  10.7861  10.8019  10.8071  10.8265  10.8358  10.8452  10.8616
    10.8742  10.8888  10.8941  10.9049  10.9191  10.9368  10.9454  10.9831
    10.9947  11.0171  11.0272  11.0855

          k = 0.0000 0.0000 0.0035 (103427 PWs)   bands (ev):

   -21.1574 -20.8263 -20.7476 -20.6229 -20.2980 -20.1824 -19.8914 -19.7573
   -19.6030 -19.5527 -19.3698 -19.1520 -19.0237 -18.8688 -18.6485 -18.5058
   -18.2514 -18.0687 -17.9522 -17.7456 -17.6941 -17.5790 -17.4378 -17.3975
   -17.2541 -17.1893 -16.8392 -16.6664 -16.5086 -16.3362 -16.2804 -16.2166
   -16.0607 -15.8991 -15.7749 -15.4907 -15.2831 -15.1001 -14.8898 -14.8077
   -14.4642 -14.4233 -14.3751 -14.2790 -14.1111 -14.0328 -13.9691 -13.7041
   -13.5504 -13.1384 -13.0010 -12.8630 -12.8242 -12.6558 -12.5659 -12.5053
   -12.3023 -12.2103 -12.1791 -12.0094 -11.8121 -11.7600 -11.5716 -11.4290
   -11.3082 -11.0578 -10.9271 -10.8087 -10.7861 -10.6509 -10.5058 -10.3563
   -10.2606 -10.1927 -10.0207  -9.8942  -9.7814  -9.7420  -9.6531  -9.5752
    -9.4667  -9.4236  -9.2797  -9.2248  -9.1637  -9.0713  -9.0110  -8.8923
    -8.8343  -8.7423  -8.6999  -8.6135  -8.6134  -8.5481  -8.5264  -8.4722
    -8.4057  -8.3425  -8.3082  -8.2647  -8.2539  -8.2338  -8.1606  -8.1191
    -8.1094  -8.0640  -8.0051  -7.8975  -7.8430  -7.7696  -7.6618  -7.5874
    -7.5830  -7.5014  -7.4696  -7.4107  -7.3721  -7.2159  -7.1795  -7.1385
    -7.0464  -6.9543  -6.9312  -6.9053  -6.8288  -6.7757  -6.6218  -6.6177
    -6.5364  -6.3696  -6.3452  -6.2683  -6.2219  -6.1608  -5.9800  -5.9758
    -5.9236  -5.8015  -5.7091  -5.6855  -5.5824  -5.3536  -5.3287  -5.3239
    -5.2251  -5.1369  -5.1007  -5.0252  -4.9065  -4.7808  -4.6552  -4.4961
    -4.3942  -4.2353  -4.0582  -3.9594  -3.9112  -3.8596  -3.7446  -3.4093
    -3.2706  -2.6754  -2.3304  -1.9920  -1.4586  -0.9427  -0.4748  -0.2843
    -0.1298  -0.0601   0.0560   0.1034   0.1833   0.3125   0.6199   0.7352
     1.0272   1.1625   1.2230   1.3476   1.4411   1.4951   1.5211   1.6108
     1.6306   1.7254   1.7399   1.8449   1.9378   1.9658   2.0504   2.0712
     2.1198   2.1261   2.2893   2.5123   2.5188   2.5760   2.6846   2.7068
     2.8369   2.9216   2.9860   2.9923   3.0208   3.0727   3.1268   3.1446
     3.1803   3.2184   3.3200   3.3432   3.3498   3.3722   3.4226   3.4371
     3.5034   3.5489   3.5647   3.6378   3.6672   3.6759   3.7496   3.7573
     3.8683   3.9061   3.9514   4.0036   4.0037   4.1618   4.1669   4.2075
     4.2784   4.2913   4.4115   4.4518   4.4613   4.4676   4.5022   4.5545
     4.5796   4.6455   4.6865   4.7077   4.7233   4.7838   4.7952   4.8156
     4.8296   4.8405   4.8817   4.8831   4.9155   4.9981   5.0514   5.0676
     5.0973   5.1156   5.1197   5.1737   5.1907   5.2201   5.2303   5.2833
     5.3804   5.3873   5.4192   5.4466   5.4646   5.4694   5.4891   5.6124
     5.6424   5.6755   5.7323   5.7655   5.8168   5.8404   5.8810   5.8962
     5.9087   5.9449   5.9543   6.0031   6.0307   6.0550   6.1135   6.1201
     6.1392   6.1537   6.1562   6.2089   6.2263   6.2517   6.2673   6.2841
     6.3088   6.3591   6.3651   6.3795   6.4216   6.4377   6.4391   6.4959
     6.5058   6.5175   6.5737   6.5824   6.5851   6.6312   6.6490   6.6962
     6.7097   6.7384   6.7581   6.7891   6.8157   6.8347   6.8560   6.8895
     6.8901   6.9136   6.9467   6.9771   6.9947   6.9953   7.0359   7.0737
     7.1019   7.1161   7.1485   7.1630   7.1710   7.2463   7.2598   7.2944
     7.3017   7.3260   7.3354   7.3629   7.3756   7.3784   7.4075   7.4395
     7.4496   7.4995   7.5054   7.5596   7.5811   7.6002   7.6318   7.6670
     7.6886   7.6957   7.6983   7.7193   7.7225   7.7559   7.7986   7.8134
     7.8338   7.8502   7.8841   7.8883   7.9422   7.9496   7.9661   8.0061
     8.0276   8.0483   8.0975   8.1287   8.1494   8.2090   8.2216   8.2424
     8.3106   8.3260   8.3480   8.3805   8.3938   8.4385   8.4418   8.5000
     8.5295   8.5417   8.5511   8.5800   8.5952   8.6114   8.6213   8.6485
     8.6584   8.6940   8.7024   8.7141   8.7176   8.7383   8.7630   8.7993
     8.8131   8.8390   8.8557   8.8958   8.9199   8.9779   8.9996   9.0454
     9.0682   9.0916   9.1002   9.1182   9.1512   9.1539   9.1751   9.2078
     9.2142   9.2295   9.2316   9.2596   9.2971   9.3170   9.3253   9.3471
     9.3644   9.3668   9.4234   9.4627   9.4696   9.4907   9.5030   9.5280
     9.5462   9.5513   9.5765   9.5821   9.6227   9.6350   9.6808   9.6988
     9.7223   9.7236   9.7751   9.7891   9.8182   9.8307   9.8882   9.8978
     9.9411   9.9502   9.9659   9.9825   9.9892  10.0069  10.0148  10.0189
    10.0376  10.0795  10.1031  10.1100  10.1249  10.1356  10.1978  10.1981
    10.2296  10.2406  10.2746  10.2887  10.3605  10.4374  10.4812  10.5199
    10.5416  10.6256  10.6295  10.6449  10.6903  10.6982  10.7274  10.7372
    10.7623  10.7817  10.7924  10.8063  10.8261  10.8406  10.8431  10.8663
    10.8748  10.8929  10.9057  10.9066  10.9228  10.9467  10.9503  10.9805
    10.9878  11.0217  11.0308  11.0822

          k = 0.0000 0.0000 0.0047 (103427 PWs)   bands (ev):

   -21.1566 -20.8378 -20.7364 -20.6201 -20.3054 -20.1731 -19.8913 -19.7837
   -19.5912 -19.5413 -19.3665 -19.1699 -19.0027 -18.8665 -18.6598 -18.4981
   -18.2526 -18.0829 -17.9673 -17.7141 -17.6967 -17.5936 -17.4466 -17.3968
   -17.2457 -17.1670 -16.8420 -16.6800 -16.4952 -16.3419 -16.2792 -16.2097
   -16.0622 -15.9162 -15.7737 -15.4997 -15.2815 -15.1080 -14.8847 -14.7964
   -14.4732 -14.4140 -14.3781 -14.2646 -14.1155 -14.0236 -13.9644 -13.7026
   -13.5501 -13.1410 -13.0226 -12.8586 -12.8203 -12.6625 -12.6172 -12.5076
   -12.3129 -12.1841 -12.1411 -11.9967 -11.8204 -11.7519 -11.5648 -11.4452
   -11.2932 -11.0602 -10.9177 -10.8304 -10.7949 -10.6485 -10.4920 -10.3568
   -10.2546 -10.1913 -10.0326  -9.8928  -9.7914  -9.7487  -9.6478  -9.5535
    -9.4925  -9.4260  -9.2874  -9.2238  -9.1533  -9.0728  -8.9981  -8.8767
    -8.8488  -8.7286  -8.6958  -8.6413  -8.6096  -8.5499  -8.5397  -8.4782
    -8.4245  -8.3268  -8.2932  -8.2700  -8.2470  -8.2440  -8.1647  -8.1141
    -8.0970  -8.0512  -7.9972  -7.8913  -7.8388  -7.7692  -7.6678  -7.6144
    -7.5914  -7.4985  -7.4651  -7.4086  -7.3479  -7.2176  -7.1739  -7.1434
    -7.0524  -6.9539  -6.9511  -6.9032  -6.8281  -6.7511  -6.6327  -6.6138
    -6.5358  -6.3836  -6.3576  -6.2625  -6.2143  -6.1638  -5.9733  -5.9722
    -5.9236  -5.8046  -5.7182  -5.6757  -5.6072  -5.3382  -5.3231  -5.3145
    -5.2373  -5.1393  -5.0928  -5.0435  -4.9023  -4.7531  -4.6559  -4.4979
    -4.4144  -4.2196  -4.0602  -3.9597  -3.9118  -3.8717  -3.7303  -3.4156
    -3.2677  -2.6822  -2.3325  -1.9963  -1.4520  -0.9355  -0.4784  -0.2770
    -0.1394  -0.0476   0.0549   0.1047   0.1904   0.3110   0.6016   0.7405
     1.0325   1.1639   1.2105   1.3262   1.4422   1.4952   1.5225   1.5941
     1.6200   1.7458   1.7507   1.8366   1.9212   1.9479   2.0652   2.0863
     2.1373   2.1535   2.2946   2.5013   2.5287   2.5751   2.7000   2.7067
     2.8144   2.9115   2.9665   2.9982   3.0042   3.0887   3.1299   3.1620
     3.1802   3.2066   3.3223   3.3467   3.3553   3.3661   3.3925   3.4313
     3.5198   3.5595   3.5697   3.6238   3.6864   3.7073   3.7343   3.7777
     3.8855   3.8914   3.9242   3.9960   4.0012   4.1703   4.1730   4.2333
     4.2801   4.2973   4.3924   4.4271   4.4530   4.4604   4.4964   4.5761
     4.5858   4.6387   4.6801   4.6953   4.7468   4.7708   4.7843   4.8017
     4.8217   4.8579   4.8723   4.8780   4.9073   5.0012   5.0614   5.0645
     5.0813   5.1199   5.1251   5.1668   5.1827   5.2074   5.2164   5.2846
     5.3984   5.4139   5.4398   5.4631   5.4687   5.4824   5.5301   5.6190
     5.6413   5.6786   5.7297   5.7679   5.7851   5.8083   5.8671   5.8755
     5.9042   5.9319   5.9501   6.0019   6.0166   6.0630   6.1029   6.1367
     6.1410   6.1595   6.1702   6.1984   6.2283   6.2517   6.2778   6.2792
     6.3054   6.3514   6.3796   6.3912   6.4224   6.4368   6.4381   6.4961
     6.5110   6.5176   6.5723   6.5852   6.6100   6.6430   6.6604   6.6869
     6.7255   6.7468   6.7590   6.7892   6.8123   6.8347   6.8484   6.8761
     6.8877   6.9246   6.9486   6.9729   6.9958   6.9962   7.0242   7.0676
     7.0768   7.1165   7.1559   7.1632   7.1812   7.2357   7.2421   7.2929
     7.3012   7.3156   7.3315   7.3632   7.3714   7.3995   7.4089   7.4367
     7.4528   7.4644   7.5022   7.5551   7.5658   7.6045   7.6116   7.6822
     7.6895   7.6993   7.7127   7.7136   7.7399   7.7623   7.7997   7.8184
     7.8402   7.8728   7.8955   7.8977   7.9583   7.9656   7.9759   8.0103
     8.0322   8.0527   8.0975   8.1530   8.1569   8.1899   8.1915   8.2450
     8.3000   8.3081   8.3381   8.3773   8.3868   8.4368   8.4389   8.4904
     8.5113   8.5280   8.5559   8.5673   8.5979   8.6146   8.6184   8.6482
     8.6681   8.6975   8.7039   8.7157   8.7376   8.7443   8.7713   8.7867
     8.8160   8.8496   8.8601   8.8949   8.9344   9.0025   9.0285   9.0439
     9.0557   9.0692   9.0948   9.1019   9.1309   9.1509   9.1525   9.1841
     9.2072   9.2295   9.2381   9.2502   9.2863   9.3040   9.3316   9.3502
     9.3789   9.3949   9.4218   9.4631   9.4758   9.4855   9.5014   9.5274
     9.5297   9.5527   9.5777   9.5939   9.6217   9.6365   9.6855   9.6984
     9.7235   9.7369   9.7724   9.7985   9.8294   9.8323   9.8888   9.8925
     9.9306   9.9433   9.9597   9.9611   9.9895   9.9948  10.0029  10.0157
    10.0477  10.0969  10.1076  10.1296  10.1395  10.1495  10.1952  10.2145
    10.2393  10.2674  10.2793  10.3085  10.3634  10.4377  10.4509  10.4951
    10.5312  10.6124  10.6140  10.6306  10.6669  10.6819  10.7242  10.7285
    10.7579  10.7813  10.7885  10.8074  10.8203  10.8426  10.8503  10.8650
    10.8676  10.8908  10.9022  10.9192  10.9225  10.9461  10.9678  10.9879
    10.9926  11.0257  11.0331  11.0753

          k = 0.0000 0.0000 0.0059 (103441 PWs)   bands (ev):

   -21.1555 -20.8493 -20.7255 -20.6162 -20.3135 -20.1624 -19.8913 -19.8097
   -19.5898 -19.5203 -19.3632 -19.1860 -18.9825 -18.8631 -18.6723 -18.4902
   -18.2542 -18.1044 -17.9729 -17.7162 -17.6714 -17.6050 -17.4657 -17.3839
   -17.2415 -17.1395 -16.8465 -16.6922 -16.4839 -16.3463 -16.2771 -16.2037
   -16.0635 -15.9367 -15.7726 -15.5105 -15.2810 -15.1160 -14.8817 -14.7792
   -14.4857 -14.4117 -14.3678 -14.2498 -14.1213 -14.0124 -13.9582 -13.7008
   -13.5498 -13.1446 -13.0435 -12.8699 -12.8037 -12.6979 -12.6430 -12.5075
   -12.3253 -12.1756 -12.0836 -11.9826 -11.8287 -11.7436 -11.5594 -11.4575
   -11.2801 -11.0613 -10.9122 -10.8511 -10.8027 -10.6456 -10.4843 -10.3512
   -10.2497 -10.1900 -10.0428  -9.8962  -9.8064  -9.7448  -9.6508  -9.5458
    -9.4981  -9.4253  -9.2994  -9.2224  -9.1497  -9.0720  -8.9790  -8.8631
    -8.8616  -8.7155  -8.6976  -8.6630  -8.6044  -8.5579  -8.5500  -8.4888
    -8.4364  -8.3149  -8.2874  -8.2716  -8.2548  -8.2411  -8.1643  -8.1059
    -8.0832  -8.0371  -7.9888  -7.8834  -7.8332  -7.7687  -7.6752  -7.6454
    -7.5949  -7.4974  -7.4586  -7.4134  -7.3179  -7.2200  -7.1679  -7.1488
    -7.0581  -6.9747  -6.9518  -6.8989  -6.8267  -6.7281  -6.6438  -6.6078
    -6.5385  -6.3993  -6.3692  -6.2598  -6.2069  -6.1632  -5.9701  -5.9658
    -5.9253  -5.8041  -5.7366  -5.6653  -5.6211  -5.3503  -5.3221  -5.2835
    -5.2409  -5.1423  -5.1028  -5.0435  -4.8988  -4.7236  -4.6569  -4.5023
    -4.4324  -4.2056  -4.0628  -3.9600  -3.9143  -3.8820  -3.7152  -3.4231
    -3.2644  -2.6908  -2.3353  -2.0014  -1.4438  -0.9266  -0.4825  -0.2682
    -0.1481  -0.0353   0.0549   0.1059   0.1991   0.3091   0.5816   0.7452
     1.0358   1.1656   1.2006   1.2936   1.4521   1.4951   1.5242   1.5785
     1.6006   1.7491   1.7667   1.8527   1.9047   1.9302   2.0765   2.1025
     2.1523   2.1753   2.3111   2.4888   2.5401   2.5752   2.7061   2.7169
     2.7932   2.8923   2.9549   2.9880   3.0020   3.1038   3.1242   3.1796
     3.1809   3.1990   3.3229   3.3335   3.3416   3.3788   3.3845   3.4290
     3.5362   3.5526   3.5937   3.6098   3.7000   3.7183   3.7489   3.7983
     3.8727   3.8891   3.9088   3.9911   4.0020   4.1734   4.1775   4.2623
     4.2838   4.3017   4.3751   4.3978   4.4446   4.4540   4.4933   4.5930
     4.5938   4.6324   4.6677   4.6789   4.7404   4.7573   4.7927   4.7940
     4.8161   4.8664   4.8744   4.8805   4.9022   5.0001   5.0281   5.0613
     5.0631   5.1197   5.1488   5.1587   5.1939   5.2060   5.2073   5.2887
     5.4089   5.4496   5.4554   5.4718   5.4771   5.5068   5.5683   5.6262
     5.6448   5.6810   5.7211   5.7370   5.7710   5.7955   5.8376   5.8708
     5.9002   5.9190   5.9481   5.9981   6.0014   6.0692   6.0759   6.1391
     6.1436   6.1604   6.1704   6.2107   6.2157   6.2567   6.2741   6.2964
     6.3212   6.3329   6.3797   6.4140   6.4273   6.4461   6.4490   6.4827
     6.5208   6.5255   6.5721   6.5873   6.6343   6.6401   6.6641   6.6919
     6.7340   6.7538   6.7676   6.7840   6.8147   6.8326   6.8461   6.8606
     6.8917   6.9311   6.9551   6.9674   6.9953   6.9981   7.0147   7.0357
     7.0590   7.1326   7.1636   7.1669   7.1881   7.2172   7.2426   7.2842
     7.2867   7.3035   7.3256   7.3571   7.3744   7.4027   7.4151   7.4245
     7.4304   7.4746   7.5095   7.5514   7.5530   7.5859   7.6051   7.6899
     7.6949   7.7011   7.7165   7.7179   7.7626   7.7679   7.8039   7.8132
     7.8510   7.8875   7.9120   7.9214   7.9745   7.9785   8.0036   8.0142
     8.0383   8.0607   8.0942   8.1402   8.1537   8.1796   8.2023   8.2447
     8.2883   8.2894   8.3242   8.3751   8.3785   8.4310   8.4384   8.4694
     8.4926   8.5081   8.5351   8.5866   8.5916   8.6166   8.6200   8.6496
     8.6780   8.6885   8.7086   8.7310   8.7484   8.7634   8.7671   8.7907
     8.8247   8.8634   8.8657   8.8977   8.9515   9.0032   9.0234   9.0251
     9.0586   9.0673   9.0771   9.0986   9.1180   9.1242   9.1512   9.1701
     9.1905   9.2278   9.2353   9.2525   9.2894   9.2997   9.3448   9.3499
     9.3854   9.4147   9.4271   9.4386   9.4808   9.4848   9.5046   9.5112
     9.5210   9.5718   9.5730   9.6097   9.6109   9.6580   9.6797   9.6928
     9.7244   9.7310   9.7843   9.8086   9.8344   9.8608   9.8834   9.8853
     9.9231   9.9252   9.9436   9.9487   9.9781   9.9884   9.9992  10.0206
    10.0573  10.1080  10.1116  10.1484  10.1541  10.1804  10.1842  10.2255
    10.2529  10.2737  10.3104  10.3238  10.3710  10.4167  10.4430  10.4770
    10.5245  10.5909  10.5967  10.6122  10.6467  10.6650  10.7118  10.7204
    10.7445  10.7764  10.7835  10.8019  10.8236  10.8395  10.8484  10.8626
    10.8732  10.8921  10.8926  10.9071  10.9369  10.9430  10.9851  10.9970
    11.0087  11.0241  11.0360  11.0746

          k = 0.0000 0.0000 0.0070 (103457 PWs)   bands (ev):

   -21.1542 -20.8608 -20.7151 -20.6113 -20.3219 -20.1509 -19.8918 -19.8350
   -19.5937 -19.4948 -19.3606 -19.1995 -18.9638 -18.8582 -18.6854 -18.4826
   -18.2569 -18.1301 -17.9713 -17.7307 -17.6468 -17.6072 -17.4837 -17.3693
   -17.2387 -17.1097 -16.8533 -16.7016 -16.4765 -16.3481 -16.2737 -16.1996
   -16.0648 -15.9593 -15.7720 -15.5227 -15.2828 -15.1227 -14.8813 -14.7561
   -14.4999 -14.4167 -14.3454 -14.2354 -14.1279 -14.0004 -13.9499 -13.6991
   -13.5493 -13.1495 -13.0632 -12.8868 -12.7865 -12.7503 -12.6532 -12.5046
   -12.3385 -12.1670 -12.0254 -11.9673 -11.8368 -11.7350 -11.5589 -11.4624
   -11.2697 -11.0603 -10.9201 -10.8592 -10.8105 -10.6426 -10.4836 -10.3396
   -10.2465 -10.1896 -10.0499  -9.9040  -9.8223  -9.7353  -9.6680  -9.5473
    -9.4801  -9.4231  -9.3143  -9.2207  -9.1507  -9.0704  -8.9564  -8.8773
    -8.8486  -8.7171  -8.7034  -8.6649  -8.5977  -8.5750  -8.5555  -8.5034
    -8.4389  -8.3152  -8.2827  -8.2713  -8.2658  -8.2379  -8.1561  -8.0957
    -8.0686  -8.0223  -7.9802  -7.8736  -7.8262  -7.7683  -7.6836  -7.6762
    -7.5980  -7.4976  -7.4511  -7.4207  -7.2867  -7.2232  -7.1624  -7.1545
    -7.0635  -6.9928  -6.9557  -6.8941  -6.8243  -6.7078  -6.6544  -6.5988
    -6.5449  -6.4160  -6.3808  -6.2589  -6.2000  -6.1590  -5.9664  -5.9618
    -5.9291  -5.7988  -5.7635  -5.6548  -5.6245  -5.3667  -5.3209  -5.2739
    -5.2225  -5.1461  -5.1223  -5.0319  -4.8953  -4.6937  -4.6581  -4.5115
    -4.4449  -4.1940  -4.0658  -3.9607  -3.9205  -3.8876  -3.6998  -3.4318
    -3.2608  -2.7012  -2.3385  -2.0073  -1.4343  -0.9159  -0.4871  -0.2584
    -0.1556  -0.0239   0.0566   0.1068   0.2089   0.3068   0.5606   0.7492
     1.0350   1.1677   1.1938   1.2577   1.4611   1.4942   1.5263   1.5642
     1.5789   1.7420   1.7880   1.8829   1.8885   1.9128   2.0844   2.1207
     2.1703   2.1829   2.3402   2.4754   2.5521   2.5761   2.7045   2.7346
     2.7751   2.8664   2.9491   2.9727   3.0044   3.1118   3.1127   3.1811
     3.1970   3.2004   3.3014   3.3169   3.3353   3.3827   3.4008   3.4357
     3.5440   3.5527   3.5968   3.6190   3.7043   3.7154   3.7890   3.8176
     3.8528   3.8617   3.9250   3.9887   4.0047   4.1718   4.1831   4.2781
     4.2993   4.3013   4.3613   4.3695   4.4369   4.4477   4.4918   4.5996
     4.6000   4.6253   4.6572   4.6626   4.7103   4.7485   4.7877   4.8016
     4.8257   4.8641   4.8817   4.8861   4.9098   4.9909   4.9948   5.0421
     5.0469   5.1156   5.1434   5.1811   5.1976   5.2002   5.2368   5.2966
     5.4182   5.4697   5.4717   5.4895   5.4901   5.5366   5.5911   5.6325
     5.6621   5.6732   5.6833   5.7267   5.7749   5.7831   5.8096   5.8667
     5.8973   5.9056   5.9476   5.9773   5.9998   6.0423   6.0805   6.1192
     6.1387   6.1555   6.1658   6.2150   6.2262   6.2583   6.2808   6.2962
     6.3145   6.3668   6.3758   6.4285   6.4303   6.4608   6.4683   6.4729
     6.5253   6.5428   6.5737   6.5889   6.6228   6.6568   6.6737   6.6980
     6.7302   6.7480   6.7737   6.7973   6.8161   6.8366   6.8442   6.8551
     6.8944   6.9295   6.9605   6.9687   6.9836   6.9913   7.0026   7.0222
     7.0525   7.1453   7.1636   7.1717   7.1833   7.2120   7.2544   7.2555
     7.2731   7.2979   7.3172   7.3533   7.3746   7.3747   7.4081   7.4163
     7.4319   7.4939   7.5198   7.5423   7.5531   7.5636   7.6031   7.6831
     7.7005   7.7074   7.7087   7.7284   7.7613   7.7938   7.8086   7.8232
     7.8676   7.8978   7.9318   7.9436   7.9891   7.9959   8.0157   8.0325
     8.0457   8.0780   8.0929   8.1065   8.1393   8.1833   8.2309   8.2371
     8.2734   8.2815   8.3076   8.3620   8.3810   8.4205   8.4271   8.4447
     8.4747   8.4970   8.5219   8.5707   8.6076   8.6108   8.6336   8.6437
     8.6643   8.7053   8.7174   8.7404   8.7544   8.7717   8.7896   8.7929
     8.8381   8.8725   8.8799   8.9121   8.9555   8.9812   8.9961   9.0179
     9.0199   9.0473   9.0659   9.1025   9.1288   9.1500   9.1501   9.1625
     9.1779   9.2199   9.2239   9.2559   9.2755   9.3058   9.3490   9.3553
     9.3852   9.4112   9.4255   9.4473   9.4799   9.4848   9.5066   9.5115
     9.5222   9.5644   9.5884   9.6018   9.6134   9.6723   9.6841   9.6847
     9.7222   9.7323   9.8003   9.8173   9.8355   9.8507   9.8759   9.8994
     9.9016   9.9306   9.9315   9.9423   9.9632   9.9853   9.9995  10.0343
    10.0605  10.0986  10.1261  10.1648  10.1719  10.1742  10.2113  10.2377
    10.2642  10.2786  10.3379  10.3450  10.3708  10.3946  10.4536  10.4665
    10.5193  10.5652  10.5740  10.5953  10.6290  10.6489  10.6919  10.7137
    10.7281  10.7583  10.7863  10.7912  10.8165  10.8307  10.8392  10.8606
    10.8805  10.8951  10.8953  10.9045  10.9402  10.9439  10.9938  10.9966
    11.0215  11.0290  11.0434  11.0680

          k = 0.0000 0.0000 0.0082 (103435 PWs)   bands (ev):

   -21.1526 -20.8721 -20.7055 -20.6051 -20.3304 -20.1388 -19.8939 -19.8584
   -19.5998 -19.4678 -19.3596 -19.2097 -18.9473 -18.8516 -18.6983 -18.4756
   -18.2621 -18.1557 -17.9654 -17.7495 -17.6415 -17.5940 -17.4940 -17.3560
   -17.2355 -17.0788 -16.8625 -16.7078 -16.4738 -16.3469 -16.2689 -16.1979
   -16.0671 -15.9818 -15.7720 -15.5358 -15.2875 -15.1273 -14.8832 -14.7281
   -14.5151 -14.4238 -14.3171 -14.2220 -14.1344 -13.9891 -13.9389 -13.6976
   -13.5485 -13.1562 -13.0810 -12.9063 -12.8143 -12.7622 -12.6629 -12.4989
   -12.3516 -12.1577 -11.9731 -11.9463 -11.8445 -11.7259 -11.5658 -11.4577
   -11.2621 -11.0573 -10.9417 -10.8544 -10.8176 -10.6399 -10.4877 -10.3254
   -10.2455 -10.1899 -10.0526  -9.9151  -9.8365  -9.7317  -9.6885  -9.5418
    -9.4580  -9.4190  -9.3306  -9.2187  -9.1538  -9.0690  -8.9343  -8.8913
    -8.8388  -8.7417  -8.6925  -8.6591  -8.5938  -8.5892  -8.5627  -8.5163
    -8.4353  -8.3252  -8.2835  -8.2768  -8.2641  -8.2394  -8.1409  -8.0848
    -8.0533  -8.0070  -7.9709  -7.8619  -7.8181  -7.7680  -7.7063  -7.6924
    -7.6009  -7.4983  -7.4435  -7.4292  -7.2555  -7.2271  -7.1599  -7.1585
    -7.0689  -7.0067  -6.9611  -6.8907  -6.8209  -6.6913  -6.6636  -6.5862
    -6.5546  -6.4332  -6.3932  -6.2578  -6.1941  -6.1522  -5.9627  -5.9620
    -5.9337  -5.7947  -5.7887  -5.6443  -5.6210  -5.3866  -5.3193  -5.2767
    -5.1993  -5.1505  -5.1343  -5.0185  -4.8909  -4.6643  -4.6594  -4.5269
    -4.4501  -4.1855  -4.0690  -3.9631  -3.9294  -3.8879  -3.6841  -3.4413
    -3.2570  -2.7132  -2.3423  -2.0137  -1.4238  -0.9037  -0.4920  -0.2487
    -0.1608  -0.0142   0.0608   0.1076   0.2192   0.3045   0.5394   0.7525
     1.0289   1.1702   1.1835   1.2292   1.4581   1.4920   1.5286   1.5522
     1.5662   1.7352   1.8096   1.8727   1.8958   1.9180   2.0901   2.1403
     2.1813   2.1901   2.3763   2.4615   2.5638   2.5777   2.7022   2.7521
     2.7624   2.8381   2.9442   2.9600   3.0057   3.0950   3.1118   3.1875
     3.2006   3.2200   3.2669   3.3017   3.3384   3.3788   3.4243   3.4508
     3.5339   3.5694   3.5850   3.6427   3.6932   3.7316   3.8174   3.8202
     3.8454   3.8487   3.9430   3.9884   4.0089   4.1691   4.1869   4.2816
     4.2942   4.3109   4.3514   4.3559   4.4306   4.4426   4.4914   4.5911
     4.6025   4.6053   4.6471   4.6631   4.6865   4.7342   4.7846   4.8001
     4.8364   4.8632   4.8903   4.8915   4.9279   4.9551   4.9854   5.0235
     5.0267   5.1058   5.1466   5.1700   5.1999   5.2379   5.2679   5.3089
     5.4261   5.4755   5.4845   5.5022   5.5271   5.5655   5.5962   5.6156
     5.6455   5.6780   5.6913   5.7254   5.7726   5.7803   5.7865   5.8628
     5.8917   5.8956   5.9475   5.9562   5.9917   6.0189   6.0727   6.1036
     6.1244   6.1528   6.1605   6.2053   6.2323   6.2591   6.2992   6.3065
     6.3134   6.3655   6.4073   6.4280   6.4442   6.4465   6.4926   6.4967
     6.5287   6.5551   6.5828   6.5918   6.6085   6.6757   6.6759   6.6972
     6.7143   6.7484   6.7904   6.8068   6.8169   6.8292   6.8413   6.8725
     6.8974   6.9190   6.9500   6.9572   6.9748   6.9849   7.0043   7.0348
     7.0502   7.1440   7.1624   7.1654   7.1841   7.2209   7.2218   7.2556
     7.2696   7.2948   7.3122   7.3273   7.3546   7.3759   7.4032   7.4101
     7.4400   7.4997   7.5182   7.5229   7.5556   7.5765   7.6005   7.6762
     7.6840   7.7079   7.7127   7.7369   7.7635   7.8133   7.8165   7.8503
     7.8845   7.9093   7.9545   7.9600   7.9986   8.0130   8.0168   8.0456
     8.0566   8.0815   8.0970   8.1126   8.1197   8.1905   8.2234   8.2476
     8.2614   8.2873   8.2936   8.3470   8.3744   8.3896   8.4104   8.4517
     8.4578   8.4865   8.5083   8.5565   8.5970   8.6174   8.6189   8.6578
     8.6709   8.7115   8.7380   8.7396   8.7603   8.7750   8.8052   8.8147
     8.8503   8.8800   8.8986   8.9160   8.9446   8.9489   8.9629   8.9976
     9.0175   9.0233   9.0644   9.0973   9.1357   9.1489   9.1545   9.1653
     9.2003   9.2142   9.2170   9.2587   9.2642   9.2849   9.3465   9.3472
     9.3817   9.4244   9.4346   9.4420   9.4843   9.4939   9.5069   9.5255
     9.5282   9.5596   9.5781   9.5987   9.6269   9.6737   9.6748   9.6870
     9.7167   9.7641   9.8074   9.8144   9.8362   9.8384   9.8621   9.8853
     9.8928   9.9224   9.9226   9.9514   9.9538   9.9996  10.0129  10.0378
    10.0673  10.0781  10.1412  10.1712  10.1810  10.1893  10.2231  10.2583
    10.2797  10.2832  10.3355  10.3672  10.3798  10.3940  10.4631  10.4685
    10.5118  10.5424  10.5477  10.5839  10.6119  10.6338  10.6674  10.7087
    10.7094  10.7424  10.7686  10.7855  10.8034  10.8189  10.8375  10.8575
    10.8677  10.8973  10.9030  10.9208  10.9419  10.9451  10.9917  10.9999
    11.0297  11.0300  11.0532  11.0612

          k = 0.0000 0.0000 0.0094 (103429 PWs)   bands (ev):

   -21.1508 -20.8832 -20.6968 -20.5975 -20.3387 -20.1261 -19.9024 -19.8751
   -19.6072 -19.4402 -19.3609 -19.2158 -18.9339 -18.8431 -18.7103 -18.4695
   -18.2725 -18.1766 -17.9569 -17.7715 -17.6454 -17.5849 -17.4872 -17.3454
   -17.2307 -17.0477 -16.8740 -16.7106 -16.4755 -16.3432 -16.2623 -16.1993
   -16.0739 -15.9997 -15.7730 -15.5495 -15.2952 -15.1292 -14.8869 -14.6960
   -14.5303 -14.4311 -14.2854 -14.2107 -14.1394 -13.9793 -13.9247 -13.6966
   -13.5474 -13.1653 -13.0963 -12.9275 -12.8713 -12.7507 -12.6706 -12.4911
   -12.3637 -12.1478 -11.9474 -11.9004 -11.8507 -11.7160 -11.5788 -11.4452
   -11.2573 -11.0529 -10.9670 -10.8486 -10.8209 -10.6381 -10.4935 -10.3128
   -10.2467 -10.1906 -10.0505  -9.9285  -9.8481  -9.7562  -9.6844  -9.5316
    -9.4404  -9.4107  -9.3459  -9.2164  -9.1570  -9.0682  -8.9186  -8.9049
    -8.8326  -8.7607  -8.6829  -8.6601  -8.6080  -8.5788  -8.5705  -8.5246
    -8.4287  -8.3372  -8.2935  -8.2876  -8.2516  -8.2427  -8.1231  -8.0743
    -8.0375  -7.9916  -7.9600  -7.8482  -7.8097  -7.7690  -7.7348  -7.7008
    -7.6038  -7.4991  -7.4386  -7.4368  -7.2314  -7.2252  -7.1652  -7.1573
    -7.0748  -7.0149  -6.9668  -6.8896  -6.8173  -6.6790  -6.6709  -6.5701
    -6.5668  -6.4500  -6.4072  -6.2548  -6.1892  -6.1440  -5.9682  -5.9604
    -5.9361  -5.8263  -5.7751  -5.6339  -5.6139  -5.4091  -5.3175  -5.2810
    -5.2002  -5.1555  -5.1187  -5.0061  -4.8852  -4.6609  -4.6366  -4.5465
    -4.4490  -4.1805  -4.0723  -3.9704  -3.9361  -3.8848  -3.6686  -3.4513
    -3.2531  -2.7268  -2.3464  -2.0204  -1.4123  -0.8901  -0.4968  -0.2407
    -0.1622  -0.0069   0.0682   0.1084   0.2291   0.3026   0.5186   0.7550
     1.0176   1.1545   1.1730   1.2237   1.4369   1.4874   1.5312   1.5434
     1.5706   1.7296   1.8309   1.8579   1.8791   1.9537   2.0949   2.1607
     2.1759   2.2112   2.4123   2.4475   2.5745   2.5799   2.7009   2.7558
     2.7664   2.8119   2.9349   2.9531   3.0061   3.0757   3.1038   3.1932
     3.2111   3.2308   3.2397   3.2863   3.3436   3.3722   3.4504   3.4692
     3.5231   3.5742   3.5856   3.6560   3.6934   3.7467   3.7984   3.8020
     3.8674   3.8787   3.9602   3.9895   4.0150   4.1657   4.1885   4.2796
     4.2820   4.2954   4.3433   4.3710   4.4251   4.4408   4.4921   4.5646
     4.5807   4.6069   4.6333   4.6536   4.6911   4.7201   4.7809   4.7977
     4.8349   4.8604   4.8901   4.9088   4.9270   4.9456   4.9743   5.0008
     5.0198   5.0958   5.1441   5.1647   5.2053   5.2784   5.2993   5.3254
     5.4327   5.4790   5.4995   5.5151   5.5608   5.5617   5.5944   5.5968
     5.6491   5.6720   5.7086   5.7272   5.7652   5.7772   5.7911   5.8586
     5.8773   5.8946   5.9371   5.9455   5.9718   6.0075   6.0446   6.1061
     6.1090   6.1480   6.1499   6.1857   6.2410   6.2606   6.2947   6.3296
     6.3406   6.3595   6.4131   6.4296   6.4453   6.4583   6.5097   6.5265
     6.5361   6.5592   6.5904   6.5994   6.6095   6.6626   6.6882   6.6967
     6.7074   6.7504   6.8042   6.8120   6.8184   6.8252   6.8448   6.8820
     6.9002   6.9085   6.9097   6.9514   6.9803   6.9991   7.0077   7.0388
     7.0635   7.1272   7.1548   7.1643   7.1852   7.1907   7.2314   7.2485
     7.2704   7.2868   7.2918   7.3211   7.3477   7.3792   7.3889   7.4088
     7.4505   7.4886   7.4956   7.5298   7.5525   7.5897   7.6096   7.6566
     7.6755   7.7101   7.7149   7.7416   7.7701   7.8293   7.8310   7.8771
     7.8963   7.9258   7.9750   7.9769   7.9999   8.0179   8.0258   8.0394
     8.0624   8.0945   8.0979   8.1077   8.1554   8.1915   8.2127   8.2473
     8.2492   8.2834   8.3102   8.3236   8.3363   8.3918   8.4024   8.4423
     8.4522   8.4740   8.4973   8.5385   8.5811   8.6084   8.6240   8.6757
     8.6820   8.7164   8.7378   8.7557   8.7620   8.7762   8.8200   8.8378
     8.8576   8.8714   8.8850   8.9210   8.9226   8.9306   8.9624   8.9780
     9.0085   9.0308   9.0627   9.0925   9.1297   9.1479   9.1506   9.1699
     9.1864   9.2067   9.2396   9.2564   9.2583   9.2888   9.3225   9.3438
     9.3808   9.4098   9.4474   9.4629   9.4927   9.4934   9.5079   9.5382
     9.5392   9.5612   9.5695   9.6007   9.6389   9.6629   9.6717   9.7002
     9.7090   9.7837   9.7961   9.8124   9.8387   9.8387   9.8453   9.8784
     9.8833   9.9111   9.9220   9.9412   9.9517   9.9938  10.0237  10.0526
    10.0565  10.0940  10.1545  10.1726  10.1946  10.2018  10.2304  10.2700
    10.2877  10.3033  10.3216  10.3715  10.4032  10.4138  10.4603  10.4858
    10.4927  10.5196  10.5331  10.5763  10.6000  10.6208  10.6424  10.6892
    10.7051  10.7280  10.7424  10.7704  10.7954  10.8139  10.8350  10.8535
    10.8545  10.8979  10.9020  10.9362  10.9463  10.9497  10.9856  11.0077
    11.0247  11.0361  11.0576  11.0591

          k = 0.0000 0.0000 0.0106 (103431 PWs)   bands (ev):

   -21.1488 -20.8940 -20.6891 -20.5886 -20.3469 -20.1132 -19.9214 -19.8808
   -19.6154 -19.4127 -19.3649 -19.2171 -18.9238 -18.8339 -18.7199 -18.4644
   -18.2910 -18.1890 -17.9471 -17.7954 -17.6513 -17.5891 -17.4623 -17.3384
   -17.2233 -17.0168 -16.8872 -16.7103 -16.4806 -16.3384 -16.2539 -16.2036
   -16.0902 -16.0074 -15.7755 -15.5633 -15.3057 -15.1288 -14.8918 -14.6612
   -14.5449 -14.4382 -14.2514 -14.2034 -14.1405 -13.9712 -13.9078 -13.6963
   -13.5459 -13.1773 -13.1088 -12.9506 -12.9286 -12.7496 -12.6700 -12.4823
   -12.3743 -12.1378 -11.9336 -11.8647 -11.8356 -11.7052 -11.5949 -11.4282
   -11.2550 -11.0499 -10.9892 -10.8511 -10.8154 -10.6378 -10.4987 -10.3055
   -10.2499 -10.1909 -10.0439  -9.9441  -9.8570  -9.7924  -9.6674  -9.5207
    -9.4318  -9.3986  -9.3552  -9.2138  -9.1596  -9.0682  -8.9183  -8.9162
    -8.8278  -8.7695  -8.6773  -8.6746  -8.6128  -8.5731  -8.5666  -8.5291
    -8.4216  -8.3479  -8.3061  -8.2980  -8.2549  -8.2312  -8.1071  -8.0649
    -8.0213  -7.9763  -7.9466  -7.8324  -7.8016  -7.7780  -7.7549  -7.7081
    -7.6071  -7.4994  -7.4485  -7.4314  -7.2358  -7.1984  -7.1706  -7.1577
    -7.0813  -7.0160  -6.9717  -6.8911  -6.8149  -6.6756  -6.6704  -6.5800
    -6.5526  -6.4648  -6.4230  -6.2495  -6.1854  -6.1353  -5.9797  -5.9623
    -5.9359  -5.8537  -5.7594  -5.6237  -5.6049  -5.4333  -5.3154  -5.2861
    -5.2167  -5.1612  -5.0849  -4.9960  -4.8777  -4.6626  -4.6119  -4.5676
    -4.4428  -4.1788  -4.0752  -3.9839  -3.9382  -3.8795  -3.6533  -3.4616
    -3.2493  -2.7417  -2.3509  -2.0273  -1.4003  -0.8754  -0.5015  -0.2363
    -0.1578  -0.0023   0.0783   0.1096   0.2372   0.3023   0.4989   0.7567
     1.0024   1.1149   1.1763   1.2318   1.4045   1.4799   1.5331   1.5392
     1.5867   1.7252   1.8388   1.8568   1.8633   1.9872   2.0993   2.1708
     2.1817   2.2333   2.4336   2.4418   2.5825   2.5846   2.7043   2.7553
     2.7612   2.8043   2.9228   2.9499   3.0055   3.0556   3.0931   3.1953
     3.1970   3.2244   3.2581   3.2711   3.3504   3.3663   3.4768   3.4860
     3.5140   3.5647   3.6001   3.6537   3.7095   3.7528   3.7757   3.7913
     3.8889   3.9204   3.9757   3.9919   4.0237   4.1616   4.1875   4.2570
     4.2682   4.2919   4.3346   4.3849   4.4180   4.4467   4.4947   4.5273
     4.5615   4.6020   4.6233   4.6396   4.7047   4.7087   4.7777   4.7946
     4.8280   4.8566   4.8677   4.9193   4.9224   4.9473   4.9687   4.9986
     5.0215   5.0882   5.1337   5.1638   5.2164   5.3179   5.3309   5.3450
     5.4383   5.4828   5.4998   5.5222   5.5306   5.5751   5.6066   5.6157
     5.6509   5.6748   5.6997   5.7304   5.7608   5.7818   5.8120   5.8537
     5.8642   5.8923   5.9238   5.9349   5.9552   5.9926   6.0271   6.0850
     6.1138   6.1311   6.1460   6.1658   6.2545   6.2624   6.2887   6.3373
     6.3656   6.3774   6.4029   6.4165   6.4608   6.4725   6.5088   6.5423
     6.5555   6.5742   6.5881   6.6067   6.6276   6.6567   6.6912   6.6965
     6.7048   6.7550   6.8040   6.8141   6.8172   6.8388   6.8497   6.8704
     6.8764   6.9013   6.9104   6.9519   6.9829   7.0114   7.0173   7.0386
     7.0878   7.1109   7.1270   7.1615   7.1773   7.1806   7.2333   7.2474
     7.2518   7.2658   7.2942   7.3385   7.3387   7.3733   7.3844   7.4085
     7.4579   7.4584   7.4916   7.5393   7.5498   7.5873   7.6207   7.6284
     7.6832   7.7086   7.7181   7.7455   7.7820   7.8441   7.8461   7.8891
     7.9013   7.9532   7.9829   7.9904   8.0052   8.0132   8.0387   8.0441
     8.0695   8.0854   8.1136   8.1199   8.1835   8.2000   8.2067   8.2371
     8.2536   8.2641   8.2848   8.3259   8.3332   8.3917   8.3993   8.4294
     8.4316   8.4708   8.4944   8.5115   8.5712   8.6109   8.6285   8.6782
     8.7001   8.7244   8.7263   8.7528   8.7735   8.7863   8.8027   8.8373
     8.8557   8.8753   8.8823   8.9011   8.9145   8.9352   8.9505   8.9907
     9.0169   9.0392   9.0608   9.0832   9.1169   9.1362   9.1464   9.1605
     9.1948   9.2023   9.2164   9.2512   9.2666   9.2986   9.3373   9.3393
     9.3837   9.3861   9.4576   9.4797   9.4823   9.4871   9.5209   9.5395
     9.5528   9.5632   9.5894   9.6128   9.6402   9.6526   9.6723   9.7005
     9.7173   9.7717   9.7721   9.8212   9.8225   9.8349   9.8595   9.8772
     9.8778   9.8998   9.9273   9.9350   9.9496   9.9755  10.0100  10.0470
    10.0691  10.1313  10.1642  10.1747  10.2017  10.2164  10.2421  10.2790
    10.2927  10.2998  10.3359  10.3721  10.4197  10.4453  10.4486  10.4731
    10.4888  10.5056  10.5279  10.5617  10.6001  10.6121  10.6268  10.6692
    10.7024  10.7033  10.7344  10.7420  10.7889  10.8168  10.8292  10.8462
    10.8490  10.8946  10.8967  10.9428  10.9494  10.9573  10.9776  11.0125
    11.0281  11.0370  11.0599  11.0608

          k = 0.0000 0.0000 0.0117 (103457 PWs)   bands (ev):

   -21.1467 -20.9046 -20.6824 -20.5785 -20.3546 -20.1000 -19.9446 -19.8820
   -19.6242 -19.3875 -19.3694 -19.2137 -18.9167 -18.8265 -18.7249 -18.4602
   -18.3172 -18.1928 -17.9373 -17.8202 -17.6588 -17.5986 -17.4281 -17.3353
   -17.2131 -16.9866 -16.9014 -16.7077 -16.4876 -16.3337 -16.2440 -16.2109
   -16.1153 -16.0051 -15.7799 -15.5768 -15.3181 -15.1267 -14.8973 -14.6257
   -14.5572 -14.4447 -14.2185 -14.1992 -14.1360 -13.9642 -13.8891 -13.6968
   -13.5437 -13.1917 -13.1190 -12.9900 -12.9706 -12.7611 -12.6589 -12.4739
   -12.3825 -12.1278 -11.9232 -11.8660 -11.7813 -11.6933 -11.6117 -11.4097
   -11.2545 -11.0544 -11.0011 -10.8593 -10.8048 -10.6394 -10.5012 -10.3062
   -10.2536 -10.1911 -10.0345  -9.9618  -9.8648  -9.8242  -9.6477  -9.5124
    -9.4295  -9.3923  -9.3501  -9.2110  -9.1608  -9.0692  -8.9313  -8.9284
    -8.8229  -8.7694  -8.7044  -8.6675  -8.6162  -8.5662  -8.5529  -8.5310
    -8.4172  -8.3554  -8.3182  -8.3080  -8.2634  -8.2151  -8.0952  -8.0569
    -8.0049  -7.9610  -7.9302  -7.8154  -7.8024  -7.7947  -7.7592  -7.7131
    -7.6108  -7.4990  -7.4590  -7.4278  -7.2399  -7.1864  -7.1766  -7.1487
    -7.0884  -7.0100  -6.9752  -6.8949  -6.8151  -6.6778  -6.6645  -6.5926
    -6.5392  -6.4728  -6.4405  -6.2419  -6.1825  -6.1270  -5.9942  -5.9735
    -5.9344  -5.8714  -5.7427  -5.6135  -5.5956  -5.4584  -5.3131  -5.2927
    -5.2342  -5.1676  -5.0467  -4.9885  -4.8682  -4.6644  -4.5982  -4.5816
    -4.4321  -4.1804  -4.0779  -4.0015  -3.9376  -3.8726  -3.6385  -3.4716
    -3.2454  -2.7580  -2.3557  -2.0342  -1.3878  -0.8598  -0.5057  -0.2363
    -0.1471   0.0003   0.0890   0.1123   0.2417   0.3055   0.4807   0.7575
     0.9842   1.0729   1.1799   1.2422   1.3701   1.4698   1.5334   1.5404
     1.6077   1.7218   1.8254   1.8466   1.8789   2.0149   2.1035   2.1700
     2.2031   2.2559   2.4198   2.4584   2.5856   2.5973   2.7142   2.7347
     2.7608   2.8166   2.9114   2.9463   3.0037   3.0365   3.0820   3.1597
     3.2006   3.2351   3.2562   3.2757   3.3590   3.3629   3.4897   3.5012
     3.5161   3.5584   3.6083   3.6526   3.7208   3.7403   3.7666   3.8005
     3.9107   3.9629   3.9884   3.9954   4.0359   4.1568   4.1827   4.2281
     4.2555   4.2945   4.3250   4.3873   4.4055   4.4592   4.4887   4.5012
     4.5407   4.5911   4.6172   4.6309   4.7010   4.7091   4.7815   4.7902
     4.8187   4.8351   4.8518   4.9083   4.9290   4.9315   4.9813   5.0187
     5.0300   5.0856   5.1213   5.1621   5.2315   5.3520   5.3656   5.3664
     5.4411   5.4534   5.4869   5.5310   5.5456   5.5713   5.6033   5.6479
     5.6529   5.6839   5.6886   5.7338   5.7588   5.7879   5.8211   5.8482
     5.8608   5.8847   5.9170   5.9252   5.9426   5.9784   6.0233   6.0608
     6.1058   6.1139   6.1433   6.1562   6.2638   6.2707   6.2821   6.3303
     6.3775   6.3934   6.4073   6.4152   6.4641   6.4859   6.5064   6.5409
     6.5665   6.5818   6.5928   6.6314   6.6418   6.6700   6.6850   6.6937
     6.7106   6.7618   6.8010   6.8079   6.8200   6.8387   6.8465   6.8528
     6.8765   6.8966   6.9214   6.9551   6.9847   7.0151   7.0283   7.0471
     7.0872   7.0913   7.1194   7.1585   7.1737   7.1743   7.2106   7.2287
     7.2550   7.2647   7.3062   7.3263   7.3565   7.3566   7.3910   7.4114
     7.4265   7.4596   7.4946   7.5459   7.5483   7.5852   7.6021   7.6225
     7.6867   7.7027   7.7264   7.7529   7.8005   7.8501   7.8571   7.8924
     7.9000   7.9820   7.9829   7.9916   8.0179   8.0238   8.0519   8.0547
     8.0800   8.0814   8.1185   8.1437   8.1736   8.1943   8.2242   8.2358
     8.2369   8.2698   8.2742   8.3208   8.3461   8.3831   8.3998   8.4031
     8.4266   8.4664   8.4851   8.4993   8.5652   8.6165   8.6329   8.6760
     8.6987   8.7084   8.7363   8.7379   8.7725   8.7839   8.8061   8.8327
     8.8451   8.8732   8.8842   8.8932   8.9208   8.9246   8.9659   9.0022
     9.0326   9.0478   9.0592   9.0657   9.1005   9.1246   9.1432   9.1458
     9.1839   9.2076   9.2274   9.2474   9.2510   9.2990   9.3240   9.3612
     9.3816   9.4057   9.4505   9.4686   9.4794   9.4962   9.5304   9.5342
     9.5644   9.5866   9.5975   9.6347   9.6455   9.6460   9.6663   9.6927
     9.7319   9.7489   9.7676   9.7977   9.8112   9.8218   9.8654   9.8775
     9.8898   9.8978   9.9127   9.9434   9.9474   9.9602  10.0077  10.0488
    10.0747  10.1338  10.1755  10.1862  10.2055  10.2376  10.2529  10.2838
    10.2990  10.3064  10.3435  10.3819  10.4247  10.4380  10.4563  10.4603
    10.4755  10.5164  10.5223  10.5442  10.5997  10.6107  10.6256  10.6520
    10.6839  10.6971  10.7122  10.7397  10.7817  10.8209  10.8213  10.8426
    10.8438  10.8840  10.8933  10.9441  10.9526  10.9617  10.9686  11.0082
    11.0362  11.0379  11.0595  11.0693

          k = 0.0000 0.0000 0.0129 (103443 PWs)   bands (ev):

   -21.1443 -20.9148 -20.6765 -20.5672 -20.3619 -20.0867 -19.9686 -19.8819
   -19.6335 -19.3849 -19.3538 -19.2062 -18.9120 -18.8239 -18.7226 -18.4570
   -18.3482 -18.1908 -17.9290 -17.8442 -17.6683 -17.6074 -17.3907 -17.3354
   -17.2005 -16.9575 -16.9156 -16.7032 -16.4953 -16.3299 -16.2345 -16.2200
   -16.1441 -15.9968 -15.7866 -15.5894 -15.3316 -15.1238 -14.9032 -14.5991
   -14.5580 -14.4504 -14.2106 -14.1737 -14.1264 -13.9579 -13.8696 -13.6982
   -13.5406 -13.2079 -13.1286 -13.0462 -12.9957 -12.7800 -12.6419 -12.4673
   -12.3873 -12.1183 -11.9162 -11.8671 -11.7272 -11.6801 -11.6262 -11.3920
   -11.2548 -11.0685 -11.0001 -10.8694 -10.7937 -10.6427 -10.5003 -10.3148
   -10.2571 -10.1923 -10.0291  -9.9787  -9.8769  -9.8397  -9.6279  -9.5100
    -9.4294  -9.3902  -9.3340  -9.2078  -9.1603  -9.0716  -8.9489  -8.9440
    -8.8211  -8.7658  -8.7337  -8.6615  -8.6192  -8.5542  -8.5379  -8.5306
    -8.4180  -8.3617  -8.3245  -8.3174  -8.2722  -8.1989  -8.0881  -8.0502
    -7.9883  -7.9458  -7.9111  -7.8308  -7.8012  -7.7862  -7.7592  -7.7147
    -7.6148  -7.4979  -7.4698  -7.4262  -7.2438  -7.1933  -7.1834  -7.1254
    -7.0957  -6.9976  -6.9768  -6.9008  -6.8186  -6.6790  -6.6605  -6.6022
    -6.5390  -6.4660  -6.4593  -6.2326  -6.1804  -6.1196  -6.0097  -5.9966
    -5.9326  -5.8765  -5.7260  -5.6031  -5.5876  -5.4829  -5.3105  -5.3022
    -5.2480  -5.1745  -5.0083  -4.9831  -4.8568  -4.6662  -4.6150  -4.5689
    -4.4172  -4.1846  -4.0804  -4.0212  -3.9361  -3.8649  -3.6249  -3.4807
    -3.2416  -2.7753  -2.3608  -2.0409  -1.3752  -0.8436  -0.5094  -0.2394
    -0.1312   0.0014   0.0966   0.1189   0.2419   0.3131   0.4646   0.7573
     0.9638   1.0309   1.1839   1.2464   1.3429   1.4580   1.5342   1.5439
     1.6306   1.7196   1.8112   1.8312   1.9019   2.0327   2.1078   2.1780
     2.2249   2.2790   2.4065   2.4593   2.5891   2.6149   2.7042   2.7271
     2.7757   2.8299   2.9031   2.9400   3.0002   3.0206   3.0718   3.1243
     3.2043   3.2405   3.2417   3.2916   3.3626   3.3701   3.4813   3.5205
     3.5219   3.5620   3.6055   3.6626   3.7143   3.7218   3.7815   3.8178
     3.9320   3.9956   4.0004   4.0081   4.0514   4.1507   4.1733   4.2004
     4.2454   4.2982   4.3149   4.3824   4.3837   4.4522   4.4685   4.5127
     4.5206   4.5786   4.6145   4.6246   4.6962   4.7029   4.7839   4.7940
     4.8030   4.8068   4.8459   4.8863   4.9122   4.9457   4.9996   5.0397
     5.0431   5.0920   5.1092   5.1599   5.2487   5.3778   5.3874   5.3978
     5.4041   5.4498   5.4912   5.5376   5.5623   5.5667   5.5956   5.6513
     5.6544   5.6972   5.7041   5.7353   5.7584   5.7941   5.8082   5.8441
     5.8605   5.8676   5.9007   5.9324   5.9505   5.9744   6.0236   6.0340
     6.0844   6.0988   6.1416   6.1583   6.2627   6.2747   6.2880   6.3217
     6.3672   6.3847   6.4120   6.4530   6.4597   6.4975   6.5103   6.5324
     6.5595   6.5985   6.6023   6.6365   6.6642   6.6732   6.6865   6.6999
     6.7270   6.7715   6.7870   6.7965   6.8221   6.8315   6.8506   6.8511
     6.8841   6.8874   6.9353   6.9582   6.9919   7.0158   7.0288   7.0478
     7.0619   7.0826   7.1305   7.1493   7.1629   7.1847   7.1914   7.2208
     7.2502   7.2744   7.3107   7.3228   7.3391   7.3709   7.3943   7.3978
     7.4186   7.4581   7.5021   7.5386   7.5543   7.5802   7.5856   7.6238
     7.6839   7.6926   7.7307   7.7654   7.8248   7.8332   7.8670   7.8956
     7.9040   7.9824   7.9847   8.0097   8.0265   8.0492   8.0597   8.0615
     8.0911   8.0948   8.1203   8.1546   8.1639   8.1750   8.2064   8.2370
     8.2613   8.2634   8.3114   8.3170   8.3512   8.3601   8.3809   8.3936
     8.4448   8.4513   8.4727   8.5050   8.5606   8.6151   8.6375   8.6405
     8.6866   8.7104   8.7170   8.7506   8.7718   8.7876   8.8023   8.8202
     8.8485   8.8583   8.8881   8.9033   8.9117   8.9386   8.9712   9.0204
     9.0285   9.0531   9.0542   9.0604   9.0901   9.1074   9.1364   9.1496
     9.1774   9.2037   9.2248   9.2436   9.2615   9.3016   9.3116   9.3451
     9.3870   9.4296   9.4544   9.4620   9.4839   9.5134   9.5255   9.5372
     9.5793   9.5955   9.5988   9.6324   9.6480   9.6537   9.6742   9.6873
     9.7398   9.7401   9.7704   9.7724   9.7916   9.8066   9.8620   9.8689
     9.8863   9.8942   9.9092   9.9358   9.9558   9.9758  10.0164  10.0554
    10.0774  10.1190  10.1745  10.1900  10.2105  10.2508  10.2667  10.2903
    10.3064  10.3260  10.3480  10.3904  10.4168  10.4294  10.4333  10.4622
    10.4878  10.5023  10.5214  10.5420  10.6053  10.6144  10.6177  10.6420
    10.6722  10.6864  10.7036  10.7527  10.7716  10.8134  10.8219  10.8392
    10.8415  10.8763  10.8877  10.9433  10.9503  10.9638  10.9644  11.0032
    11.0355  11.0378  11.0582  11.0707

          k = 0.0000 0.0000 0.0141 (103441 PWs)   bands (ev):

   -21.1417 -20.9247 -20.6714 -20.5550 -20.3686 -20.0735 -19.9926 -19.8813
   -19.6431 -19.3947 -19.3278 -19.1950 -18.9091 -18.8276 -18.7123 -18.4546
   -18.3817 -18.1852 -17.9262 -17.8637 -17.6797 -17.6138 -17.3561 -17.3341
   -17.1863 -16.9349 -16.9242 -16.6975 -16.5028 -16.3273 -16.2401 -16.2191
   -16.1712 -15.9853 -15.7957 -15.6008 -15.3455 -15.1209 -14.9088 -14.5996
   -14.5300 -14.4546 -14.2168 -14.1365 -14.1136 -13.9518 -13.8499 -13.7006
   -13.5367 -13.2249 -13.1415 -13.0996 -13.0203 -12.8018 -12.6227 -12.4638
   -12.3879 -12.1095 -11.9132 -11.8645 -11.6903 -11.6632 -11.6258 -11.3777
   -11.2548 -11.0846 -10.9932 -10.8801 -10.7839 -10.6469 -10.4961 -10.3291
   -10.2609 -10.1956 -10.0444  -9.9822  -9.8894  -9.8385  -9.6091  -9.5148
    -9.4275  -9.3859  -9.3159  -9.2045  -9.1579  -9.0764  -8.9706  -8.9563
    -8.8252  -8.7747  -8.7506  -8.6562  -8.6186  -8.5437  -8.5260  -8.5219
    -8.4230  -8.3732  -8.3260  -8.3204  -8.2788  -8.1829  -8.0857  -8.0446
    -7.9716  -7.9310  -7.8901  -7.8596  -7.7981  -7.7693  -7.7582  -7.7120
    -7.6191  -7.4960  -7.4810  -7.4263  -7.2478  -7.2063  -7.1911  -7.1028
    -7.0995  -6.9800  -6.9766  -6.9087  -6.8250  -6.6822  -6.6579  -6.6056
    -6.5507  -6.4788  -6.4462  -6.2221  -6.1790  -6.1141  -6.0279  -6.0250
    -5.9307  -5.8725  -5.7101  -5.5922  -5.5842  -5.5039  -5.3148  -5.3077
    -5.2567  -5.1820  -4.9868  -4.9634  -4.8440  -4.6681  -4.6351  -4.5559
    -4.3986  -4.1907  -4.0831  -4.0419  -3.9343  -3.8568  -3.6130  -3.4881
    -3.2379  -2.7936  -2.3660  -2.0474  -1.3626  -0.8272  -0.5124  -0.2442
    -0.1119   0.0019   0.0995   0.1292   0.2394   0.3244   0.4510   0.7558
     0.9409   0.9905   1.1882   1.2329   1.3347   1.4454   1.5362   1.5481
     1.6529   1.7195   1.7972   1.8161   1.9255   2.0384   2.1121   2.1971
     2.2470   2.3024   2.3939   2.4478   2.5929   2.6358   2.6729   2.7375
     2.8033   2.8370   2.9009   2.9301   2.9946   3.0098   3.0635   3.0894
     3.2081   3.2276   3.2401   3.3054   3.3639   3.3837   3.4718   3.5193
     3.5306   3.5782   3.5967   3.6802   3.7041   3.7070   3.8055   3.8367
     3.9521   4.0029   4.0073   4.0496   4.0699   4.1418   4.1593   4.1774
     4.2376   4.3023   4.3055   4.3519   4.3741   4.4190   4.4718   4.5030
     4.5218   4.5667   4.6151   4.6195   4.6919   4.6958   4.7670   4.7748
     4.7915   4.8168   4.8407   4.8603   4.9030   4.9631   5.0151   5.0542
     5.0591   5.0948   5.1133   5.1593   5.2664   5.3447   5.3970   5.4094
     5.4409   5.4544   5.4964   5.5345   5.5655   5.5768   5.5981   5.6346
     5.6532   5.7140   5.7288   5.7299   5.7611   5.7910   5.8025   5.8364
     5.8526   5.8551   5.8889   5.9299   5.9740   5.9862   6.0065   6.0248
     6.0603   6.0883   6.1386   6.1652   6.2546   6.2688   6.3053   6.3161
     6.3471   6.3769   6.4020   6.4672   6.4877   6.5078   6.5082   6.5284
     6.5618   6.6042   6.6119   6.6409   6.6599   6.6632   6.6900   6.7292
     6.7432   6.7714   6.7859   6.7973   6.8223   6.8282   6.8501   6.8653
     6.8768   6.8916   6.9410   6.9619   6.9918   7.0091   7.0288   7.0331
     7.0625   7.0880   7.1267   7.1324   7.1398   7.1803   7.2126   7.2283
     7.2453   7.2872   7.2918   7.3218   7.3401   7.3615   7.3791   7.4035
     7.4282   7.4626   7.5094   7.5253   7.5566   7.5656   7.5885   7.6287
     7.6786   7.6809   7.7309   7.7754   7.8047   7.8431   7.8779   7.8969
     7.9201   7.9811   7.9849   8.0248   8.0296   8.0530   8.0661   8.0901
     8.0998   8.1071   8.1162   8.1214   8.1804   8.1824   8.2092   8.2355
     8.2579   8.2894   8.3079   8.3313   8.3365   8.3625   8.3737   8.3875
     8.4333   8.4648   8.4731   8.5079   8.5552   8.5772   8.6170   8.6421
     8.6798   8.7072   8.7120   8.7520   8.7660   8.7932   8.7955   8.8091
     8.8495   8.8681   8.8829   8.8979   8.9231   8.9541   8.9599   9.0075
     9.0382   9.0512   9.0537   9.0673   9.0884   9.0984   9.1261   9.1602
     9.1764   9.1837   9.2347   9.2387   9.2749   9.2831   9.3275   9.3314
     9.3847   9.4186   9.4408   9.4878   9.5142   9.5167   9.5352   9.5459
     9.5885   9.5936   9.5998   9.6252   9.6270   9.6417   9.6859   9.7044
     9.7386   9.7443   9.7604   9.7618   9.7827   9.7910   9.8418   9.8596
     9.8903   9.8909   9.9087   9.9312   9.9692   9.9976  10.0256  10.0640
    10.0834  10.1036  10.1719  10.1737  10.2186  10.2532  10.2808  10.2911
    10.3143  10.3308  10.3569  10.3932  10.4024  10.4227  10.4358  10.4621
    10.4890  10.4935  10.5114  10.5640  10.5780  10.6147  10.6208  10.6548
    10.6571  10.6973  10.7032  10.7529  10.7721  10.8028  10.8148  10.8385
    10.8453  10.8781  10.8801  10.9411  10.9415  10.9630  10.9666  11.0013
    11.0301  11.0346  11.0564  11.0571

          k = 0.0000 0.0000 0.0153 (103453 PWs)   bands (ev):

   -21.1390 -20.9343 -20.6670 -20.5423 -20.3746 -20.0610 -20.0156 -19.8805
   -19.6530 -19.4060 -19.3018 -19.1807 -18.9080 -18.8358 -18.6960 -18.4527
   -18.4164 -18.1772 -17.9352 -17.8727 -17.6918 -17.6175 -17.3508 -17.3054
   -17.1710 -16.9442 -16.9018 -16.6911 -16.5092 -16.3261 -16.2613 -16.2157
   -16.1873 -15.9722 -15.8073 -15.6108 -15.3593 -15.1187 -14.9137 -14.6098
   -14.4946 -14.4534 -14.2252 -14.1041 -14.0932 -13.9456 -13.8307 -13.7037
   -13.5315 -13.2423 -13.1747 -13.1340 -13.0447 -12.8243 -12.6027 -12.4638
   -12.3842 -12.1018 -11.9134 -11.8585 -11.6894 -11.6481 -11.5866 -11.3691
   -11.2539 -11.0969 -10.9857 -10.8907 -10.7760 -10.6507 -10.4892 -10.3467
   -10.2659 -10.2014 -10.0790  -9.9766  -9.8925  -9.8283  -9.5935  -9.5241
    -9.4226  -9.3792  -9.2992  -9.2009  -9.1541  -9.0846  -8.9888  -8.9682
    -8.8372  -8.8006  -8.7505  -8.6516  -8.6136  -8.5381  -8.5165  -8.5054
    -8.4290  -8.3889  -8.3337  -8.3155  -8.2766  -8.1674  -8.0870  -8.0399
    -7.9549  -7.9168  -7.8884  -7.8686  -7.8009  -7.7569  -7.7501  -7.7044
    -7.6230  -7.4940  -7.4925  -7.4276  -7.2531  -7.2212  -7.1989  -7.1093
    -7.0742  -6.9748  -6.9579  -6.9186  -6.8333  -6.6894  -6.6563  -6.6015
    -6.5672  -6.4987  -6.4210  -6.2111  -6.1781  -6.1121  -6.0630  -6.0381
    -5.9289  -5.8637  -5.6956  -5.5910  -5.5806  -5.5166  -5.3286  -5.3047
    -5.2615  -5.1901  -4.9867  -4.9254  -4.8306  -4.6701  -4.6536  -4.5463
    -4.3773  -4.1977  -4.0879  -4.0618  -3.9326  -3.8490  -3.6038  -3.4926
    -3.2342  -2.8126  -2.3714  -2.0535  -1.3501  -0.8108  -0.5145  -0.2494
    -0.0907   0.0022   0.1001   0.1381   0.2379   0.3381   0.4403   0.7525
     0.9140   0.9542   1.1929   1.2030   1.3444   1.4325   1.5390   1.5528
     1.6716   1.7243   1.7835   1.8014   1.9495   2.0345   2.1167   2.2243
     2.2693   2.3251   2.3828   2.4291   2.5969   2.6416   2.6572   2.7451
     2.8350   2.8415   2.8991   2.9246   2.9867   3.0047   3.0549   3.0574
     3.2118   3.2139   3.2354   3.3171   3.3637   3.4000   3.4626   3.5159
     3.5285   3.5868   3.5994   3.6890   3.6974   3.7123   3.8309   3.8558
     3.9695   4.0064   4.0173   4.0820   4.0984   4.1283   4.1420   4.1636
     4.2301   4.2976   4.3069   4.3138   4.3638   4.3879   4.4715   4.4877
     4.5217   4.5560   4.5980   4.6347   4.6865   4.6932   4.7367   4.7600
     4.7776   4.8323   4.8388   4.8391   4.9002   4.9826   5.0240   5.0664
     5.0771   5.0858   5.1316   5.1679   5.2742   5.3040   5.4084   5.4269
     5.4586   5.4673   5.5088   5.5241   5.5691   5.5883   5.6116   5.6201
     5.6495   5.7057   5.7287   5.7445   5.7627   5.7872   5.8130   5.8151
     5.8503   5.8603   5.8830   5.9317   5.9729   5.9744   6.0192   6.0233
     6.0416   6.0904   6.1352   6.1724   6.2384   6.2644   6.3132   6.3213
     6.3244   6.3702   6.3805   6.4735   6.5001   6.5040   6.5336   6.5360
     6.5682   6.6039   6.6105   6.6396   6.6525   6.6639   6.6898   6.7457
     6.7516   6.7718   6.7857   6.8180   6.8289   6.8325   6.8510   6.8687
     6.8801   6.8964   6.9436   6.9532   6.9659   7.0232   7.0344   7.0364
     7.0626   7.0928   7.0992   7.1180   7.1384   7.1798   7.2090   7.2359
     7.2699   7.2743   7.2993   7.3040   7.3292   7.3566   7.3810   7.4099
     7.4357   7.4757   7.5066   7.5153   7.5569   7.5569   7.5940   7.6367
     7.6613   7.6806   7.7296   7.7720   7.7807   7.8435   7.8876   7.9178
     7.9352   7.9762   7.9887   8.0249   8.0360   8.0460   8.0622   8.0761
     8.1052   8.1162   8.1201   8.1508   8.1811   8.2032   8.2264   8.2307
[...]
    -5.2585  -5.2259  -5.0908  -4.8237  -4.6843  -4.6410  -4.5697  -4.5386
    -4.3465  -4.3130  -4.0951  -4.0846  -3.9249  -3.8757  -3.6103  -3.4157
    -3.2005  -2.9770  -2.4098  -2.0871  -1.2699  -0.7146  -0.4950  -0.2374
    -0.0849   0.0146   0.1093   0.2274   0.3396   0.4261   0.5099   0.5660
     0.6695   0.7545   0.9613   1.2464   1.3300   1.5139   1.5801   1.6079
     1.6650   1.6859   1.6944   1.9145   1.9694   2.1529   2.1547   2.1866
     2.2861   2.3562   2.4896   2.5167   2.5709   2.6393   2.6754   2.7381
     2.7832   2.7942   2.8284   2.8902   3.0003   3.0425   3.0983   3.1017
     3.1400   3.2156   3.2741   3.3030   3.3453   3.3833   3.3864   3.4793
     3.5696   3.6300   3.6823   3.7763   3.7829   3.8276   3.8305   3.9446
     3.9863   4.0300   4.0408   4.0768   4.1126   4.1411   4.1418   4.1870
     4.2174   4.2496   4.2749   4.3120   4.3524   4.3631   4.3916   4.4175
     4.4350   4.4365   4.4507   4.5143   4.5352   4.5597   4.6332   4.7186
     4.8173   4.8308   4.8780   4.9485   4.9736   5.0004   5.0147   5.0626
     5.1123   5.1440   5.2597   5.2645   5.2868   5.3321   5.3369   5.4507
     5.4604   5.4714   5.4884   5.4943   5.5304   5.5514   5.6024   5.6228
     5.6750   5.6869   5.7711   5.7714   5.8111   5.8497   5.8501   5.8754
     5.8805   5.8810   5.9241   5.9273   5.9595   5.9756   5.9984   6.0338
     6.0627   6.1095   6.1337   6.1612   6.1962   6.2068   6.2102   6.2309
     6.2706   6.3009   6.3457   6.4712   6.4781   6.4822   6.5170   6.5468
     6.5815   6.6181   6.6299   6.6364   6.6487   6.6956   6.7261   6.7272
     6.7710   6.7995   6.8105   6.8228   6.8350   6.8497   6.8744   6.8969
     6.9092   6.9182   6.9417   6.9729   6.9923   7.0076   7.0442   7.0540
     7.0861   7.1086   7.1094   7.1436   7.1518   7.1782   7.2074   7.2156
     7.2516   7.2945   7.3153   7.3337   7.3599   7.3984   7.4111   7.4355
     7.4525   7.4804   7.4899   7.5280   7.5625   7.5694   7.5741   7.5981
     7.6402   7.7241   7.7331   7.7719   7.7972   7.8303   7.8480   7.8551
     7.8792   7.9121   7.9500   7.9521   7.9694   8.0308   8.0504   8.0897
     8.1074   8.1409   8.1455   8.1662   8.1690   8.1999   8.2085   8.2557
     8.2738   8.3034   8.3142   8.3232   8.3523   8.3849   8.3992   8.4147
     8.4583   8.4821   8.5037   8.5477   8.5624   8.5923   8.6225   8.6611
     8.6805   8.6849   8.7253   8.7311   8.7564   8.7590   8.7987   8.8097
     8.8592   8.8738   8.9017   8.9259   8.9342   8.9627   8.9751   8.9765
     9.0120   9.0140   9.0487   9.0489   9.0952   9.1188   9.1448   9.1680
     9.1749   9.1804   9.1862   9.1963   9.2191   9.2750   9.2894   9.3105
     9.3411   9.3573   9.4065   9.4405   9.4468   9.4801   9.5195   9.5232
     9.5661   9.5770   9.6172   9.6286   9.6484   9.6500   9.6775   9.7048
     9.7211   9.7298   9.7590   9.8027   9.8238   9.8401   9.8432   9.8765
     9.9135   9.9268   9.9460   9.9648   9.9951  10.0052  10.0391  10.0393
    10.1008  10.1038  10.1546  10.1763  10.1895  10.2194  10.2207  10.2506
    10.2984  10.3274  10.3300  10.3792  10.3795  10.3953  10.4464  10.4674
    10.5141  10.5554  10.5695  10.5888  10.6043  10.6213  10.6406  10.6542
    10.6862  10.7247  10.7254  10.7352  10.7384  10.7521  10.7611  10.7917
    10.8008  10.8481  10.8672  10.8968  10.9006  10.9486  10.9551  10.9616
    10.9872  10.9892  11.0300  11.0378

          k = 0.0000 0.0000 0.0270 (103398 PWs)   bands (ev):

   -21.1121 -20.9998 -20.6442 -20.4636 -20.3289 -20.2406 -19.9455 -19.8688
   -19.7466 -19.4887 -19.0981 -19.0197 -18.9313 -18.8676 -18.7660 -18.5246
   -18.3875 -18.2162 -18.0181 -17.9493 -17.6953 -17.5683 -17.4854 -17.1166
   -16.9468 -16.8677 -16.8194 -16.6815 -16.6096 -16.4727 -16.3392 -16.2359
   -16.1521 -16.0133 -15.7896 -15.6720 -15.4449 -15.1521 -14.9109 -14.6833
   -14.4924 -14.2961 -14.0078 -13.9756 -13.8955 -13.8161 -13.7467 -13.6866
   -13.6325 -13.4930 -13.3643 -13.3280 -13.2558 -12.9304 -12.5059 -12.4506
   -12.3145 -12.0839 -11.9211 -11.8155 -11.7406 -11.5583 -11.4675 -11.2307
   -11.0850 -11.0544 -10.9611 -10.9068 -10.7371 -10.6985 -10.5843 -10.4886
   -10.4094 -10.3332 -10.1622 -10.0377  -9.8037  -9.6286  -9.4983  -9.4788
    -9.4388  -9.3644  -9.2802  -9.1919  -9.1629  -9.1273  -9.0529  -9.0409
    -8.9925  -8.8866  -8.7804  -8.6546  -8.6251  -8.5218  -8.4950  -8.4516
    -8.4266  -8.4185  -8.2927  -8.2573  -8.1940  -8.1582  -8.0950  -8.0360
    -7.9966  -7.8967  -7.8191  -7.7920  -7.7351  -7.7325  -7.6835  -7.6284
    -7.6066  -7.5855  -7.4693  -7.3961  -7.3304  -7.2967  -7.2873  -7.1806
    -7.0707  -6.9094  -6.8632  -6.8559  -6.7976  -6.7816  -6.6778  -6.6611
    -6.6022  -6.4612  -6.4052  -6.2868  -6.2359  -6.1257  -6.0523  -6.0249
    -5.9198  -5.8964  -5.7135  -5.6451  -5.5981  -5.4344  -5.3225  -5.3094
    -5.2599  -5.2141  -5.1063  -4.8261  -4.6850  -4.6304  -4.5584  -4.5197
    -4.3749  -4.3206  -4.0899  -4.0726  -3.9249  -3.8867  -3.6105  -3.4093
    -3.1974  -2.9873  -2.4116  -2.0883  -1.2665  -0.7116  -0.4926  -0.2282
    -0.0998   0.0124   0.1087   0.2584   0.3430   0.4164   0.5227   0.5616
     0.6493   0.7375   0.9540   1.2517   1.3229   1.5248   1.5835   1.6135
     1.6620   1.6794   1.6880   1.9107   1.9959   2.1249   2.1575   2.2112
     2.2817   2.3295   2.5085   2.5322   2.5987   2.6392   2.6582   2.7142
     2.7713   2.8027   2.8317   2.8939   2.9841   3.0493   3.0931   3.0969
     3.1626   3.2164   3.2753   3.2801   3.3420   3.3876   3.4242   3.4745
     3.5612   3.6549   3.6756   3.7590   3.7704   3.8274   3.8360   3.9377
     3.9988   4.0428   4.0507   4.0627   4.1159   4.1389   4.1389   4.1953
     4.2136   4.2706   4.2730   4.3113   4.3389   4.3694   4.3844   4.4059
     4.4159   4.4303   4.4427   4.5295   4.5349   4.5688   4.6272   4.7153
     4.7688   4.8394   4.8827   4.9530   4.9693   5.0091   5.0404   5.0738
     5.1179   5.1475   5.2372   5.2748   5.2767   5.3334   5.3486   5.4377
     5.4544   5.4727   5.4809   5.4932   5.5413   5.5530   5.5976   5.6266
     5.6710   5.6871   5.7639   5.7698   5.8136   5.8456   5.8607   5.8740
     5.8880   5.8893   5.9273   5.9501   5.9788   5.9790   6.0063   6.0207
     6.0563   6.1086   6.1176   6.1299   6.1868   6.1881   6.2170   6.2580
     6.2709   6.3097   6.3479   6.4409   6.4569   6.4933   6.5392   6.5471
     6.5783   6.6103   6.6316   6.6473   6.6473   6.7000   6.7205   6.7266
     6.7688   6.8009   6.8115   6.8176   6.8380   6.8533   6.8618   6.9047
     6.9186   6.9233   6.9480   6.9657   6.9987   7.0010   7.0401   7.0507
     7.0822   7.1098   7.1166   7.1433   7.1525   7.1822   7.2042   7.2120
     7.2573   7.3106   7.3144   7.3421   7.3639   7.3841   7.3965   7.4491
     7.4706   7.4779   7.5169   7.5260   7.5347   7.5673   7.5867   7.5993
     7.6484   7.6956   7.7263   7.7650   7.7886   7.8307   7.8608   7.8695
     7.8844   7.9228   7.9498   7.9513   7.9722   8.0159   8.0390   8.0776
     8.0945   8.1209   8.1484   8.1489   8.1696   8.2042   8.2275   8.2592
     8.2721   8.3067   8.3158   8.3218   8.3540   8.3746   8.3835   8.4150
     8.4647   8.4851   8.5311   8.5532   8.5766   8.5837   8.6266   8.6527
     8.6728   8.6793   8.7382   8.7406   8.7611   8.7868   8.7889   8.8236
     8.8631   8.8777   8.8963   8.9318   8.9404   8.9587   8.9717   8.9718
     9.0092   9.0110   9.0336   9.0496   9.0964   9.1202   9.1258   9.1516
     9.1757   9.1760   9.1967   9.2073   9.2152   9.2798   9.2892   9.3078
     9.3170   9.3723   9.3791   9.4369   9.4420   9.4905   9.5225   9.5279
     9.5580   9.5723   9.6122   9.6329   9.6473   9.6524   9.6839   9.7014
     9.7195   9.7404   9.7571   9.8247   9.8282   9.8521   9.8565   9.8835
     9.9141   9.9322   9.9352   9.9656   9.9697   9.9801  10.0125  10.0392
    10.0682  10.0887  10.1717  10.1917  10.2097  10.2468  10.2471  10.2592
    10.2944  10.3154  10.3439  10.3782  10.3810  10.4157  10.4340  10.4655
    10.5167  10.5510  10.5708  10.5823  10.5900  10.6317  10.6366  10.6553
    10.6756  10.7085  10.7161  10.7250  10.7348  10.7365  10.7609  10.7826
    10.8091  10.8394  10.8565  10.8957  10.9031  10.9422  10.9675  10.9769
    10.9877  10.9933  11.0354  11.0440

          k = 0.0000 0.0000 0.0282 (103420 PWs)   bands (ev):

   -21.1111 -21.0016 -20.6436 -20.4631 -20.3154 -20.2567 -19.9417 -19.8680
   -19.7504 -19.4907 -19.0836 -19.0333 -18.9156 -18.8552 -18.7961 -18.5212
   -18.3765 -18.2308 -18.0037 -17.9645 -17.6933 -17.5583 -17.4977 -17.1165
   -16.9408 -16.8491 -16.8005 -16.7212 -16.6079 -16.4717 -16.3393 -16.2283
   -16.1591 -16.0190 -15.7825 -15.6758 -15.4468 -15.1543 -14.9099 -14.6850
   -14.4928 -14.2979 -13.9969 -13.9444 -13.8838 -13.8293 -13.7768 -13.6900
   -13.5970 -13.5227 -13.3658 -13.3199 -13.2746 -12.9311 -12.5068 -12.4468
   -12.3126 -12.0843 -11.9214 -11.8178 -11.7348 -11.5627 -11.4681 -11.2263
   -11.0900 -11.0325 -10.9636 -10.8883 -10.7427 -10.7156 -10.5896 -10.4930
   -10.4181 -10.3319 -10.1545 -10.0447  -9.8052  -9.6173  -9.4990  -9.4636
    -9.4317  -9.3799  -9.2944  -9.1873  -9.1613  -9.1191  -9.0556  -9.0538
    -8.9929  -8.8846  -8.7746  -8.6671  -8.6244  -8.5207  -8.4939  -8.4518
    -8.4270  -8.4204  -8.2811  -8.2363  -8.2041  -8.1813  -8.0950  -8.0258
    -7.9934  -7.9026  -7.8149  -7.7918  -7.7302  -7.7233  -7.6824  -7.6278
    -7.6120  -7.5953  -7.4728  -7.3700  -7.3330  -7.3108  -7.2862  -7.1904
    -7.0736  -6.9084  -6.8491  -6.8429  -6.8046  -6.8019  -6.6838  -6.6547
    -6.5717  -6.4989  -6.3890  -6.3029  -6.2340  -6.1237  -6.0304  -6.0236
    -5.9204  -5.9197  -5.7047  -5.6448  -5.6072  -5.4269  -5.3202  -5.3140
    -5.2604  -5.2042  -5.1185  -4.8275  -4.6854  -4.6229  -4.5595  -4.4905
    -4.4039  -4.3243  -4.0895  -4.0611  -3.9251  -3.8947  -3.6106  -3.4053
    -3.1953  -2.9938  -2.4127  -2.0890  -1.2645  -0.7098  -0.4912  -0.2206
    -0.1110   0.0111   0.1083   0.2843   0.3453   0.4003   0.5298   0.5700
     0.6307   0.7260   0.9499   1.2554   1.3180   1.5318   1.5858   1.6176
     1.6598   1.6748   1.6839   1.9074   2.0226   2.0970   2.1600   2.2351
     2.2796   2.3039   2.5236   2.5418   2.6236   2.6336   2.6526   2.6878
     2.7652   2.8112   2.8278   2.9034   2.9686   3.0551   3.0872   3.0942
     3.1869   3.2160   3.2490   3.2843   3.3374   3.3905   3.4644   3.4713
     3.5460   3.6614   3.6795   3.7369   3.7698   3.8276   3.8391   3.9373
     4.0050   4.0371   4.0574   4.0702   4.1187   4.1314   4.1368   4.2054
     4.2136   4.2688   4.2795   4.3162   4.3348   4.3743   4.3791   4.3802
     4.4100   4.4318   4.4420   4.5123   4.5356   4.6095   4.6281   4.7047
     4.7291   4.8447   4.8858   4.9556   4.9660   5.0147   5.0491   5.0959
     5.1277   5.1486   5.2039   5.2672   5.2850   5.3362   5.3719   5.4280
     5.4291   5.4753   5.4772   5.4989   5.5532   5.5555   5.5921   5.6244
     5.6600   5.7077   5.7520   5.7688   5.8114   5.8393   5.8687   5.8725
     5.8896   5.8945   5.9352   5.9662   5.9778   6.0016   6.0135   6.0270
     6.0518   6.0930   6.0966   6.1132   6.1661   6.1809   6.2212   6.2711
     6.3011   6.3114   6.3613   6.3967   6.4373   6.5071   6.5329   6.5726
     6.5787   6.6068   6.6277   6.6473   6.6482   6.7037   6.7257   6.7277
     6.7673   6.7950   6.8009   6.8125   6.8397   6.8559   6.8620   6.9082
     6.9260   6.9264   6.9573   6.9626   6.9919   7.0005   7.0365   7.0617
     7.0765   7.1118   7.1165   7.1304   7.1619   7.1735   7.2095   7.2210
     7.2572   7.3082   7.3144   7.3537   7.3624   7.3851   7.3968   7.4557
     7.4706   7.4746   7.4888   7.5359   7.5647   7.5662   7.5986   7.6120
     7.6576   7.6696   7.6998   7.7491   7.7711   7.8279   7.8849   7.8895
     7.8982   7.9260   7.9498   7.9585   7.9767   8.0072   8.0242   8.0606
     8.0896   8.0977   8.1391   8.1499   8.1694   8.2133   8.2359   8.2657
     8.2740   8.3057   8.3156   8.3242   8.3554   8.3566   8.3810   8.4116
     8.4695   8.4945   8.5432   8.5506   8.5801   8.6009   8.6290   8.6407
     8.6683   8.6706   8.7315   8.7452   8.7643   8.7878   8.8212   8.8522
     8.8628   8.8826   8.8916   8.9186   8.9355   8.9505   8.9654   8.9728
     8.9924   9.0293   9.0322   9.0525   9.0973   9.1094   9.1195   9.1373
     9.1664   9.1674   9.2119   9.2197   9.2311   9.2696   9.2736   9.3086
     9.3200   9.3562   9.3874   9.4313   9.4465   9.4976   9.5088   9.5223
     9.5579   9.5740   9.6108   9.6268   9.6542   9.6633   9.6850   9.6991
     9.7135   9.7337   9.7764   9.8239   9.8484   9.8582   9.8604   9.8969
     9.9103   9.9335   9.9390   9.9502   9.9684   9.9705   9.9867  10.0377
    10.0390  10.0778  10.1738  10.2046  10.2182  10.2601  10.2647  10.2794
    10.3092  10.3098  10.3723  10.3730  10.3753  10.3865  10.4359  10.4691
    10.5092  10.5489  10.5748  10.5896  10.5922  10.6159  10.6454  10.6515
    10.6593  10.6916  10.7043  10.7157  10.7360  10.7394  10.7736  10.7759
    10.8099  10.8325  10.8503  10.8949  10.9065  10.9339  10.9642  10.9903
    10.9975  11.0010  11.0387  11.0456

          k = 0.0000 0.0000-0.0293 (103456 PWs)   bands (ev):

   -21.1107 -21.0022 -20.6435 -20.4630 -20.3087 -20.2642 -19.9405 -19.8677
   -19.7517 -19.4913 -19.0764 -19.0403 -18.9105 -18.8425 -18.8145 -18.5202
   -18.3721 -18.2363 -17.9948 -17.9736 -17.6926 -17.5537 -17.5030 -17.1165
   -16.9387 -16.8463 -16.7713 -16.7543 -16.6071 -16.4714 -16.3392 -16.2249
   -16.1623 -16.0209 -15.7800 -15.6772 -15.4474 -15.1550 -14.9096 -14.6855
   -14.4930 -14.2985 -13.9947 -13.9301 -13.8638 -13.8517 -13.7885 -13.6902
   -13.5686 -13.5493 -13.3663 -13.3129 -13.2848 -12.9314 -12.5071 -12.4455
   -12.3120 -12.0845 -11.9214 -11.8185 -11.7327 -11.5644 -11.4682 -11.2246
   -11.0926 -11.0235 -10.9651 -10.8799 -10.7492 -10.7191 -10.5918 -10.4937
   -10.4213 -10.3314 -10.1515 -10.0475  -9.8058  -9.6129  -9.5016  -9.4596
    -9.4171  -9.3946  -9.2993  -9.1858  -9.1607  -9.1146  -9.0599  -9.0564
    -8.9927  -8.8842  -8.7719  -8.6720  -8.6242  -8.5203  -8.4933  -8.4521
    -8.4272  -8.4209  -8.2764  -8.2228  -8.2083  -8.1955  -8.0950  -8.0222
    -7.9922  -7.9049  -7.8135  -7.7918  -7.7294  -7.7184  -7.6825  -7.6278
    -7.6139  -7.5987  -7.4742  -7.3535  -7.3339  -7.3252  -7.2833  -7.1942
    -7.0744  -6.9081  -6.8461  -6.8250  -6.8199  -6.8076  -6.6859  -6.6532
    -6.5415  -6.5310  -6.3820  -6.3099  -6.2334  -6.1230  -6.0231  -6.0204
    -5.9311  -5.9197  -5.7013  -5.6447  -5.6107  -5.4242  -5.3194  -5.3158
    -5.2606  -5.1999  -5.1235  -4.8280  -4.6855  -4.6201  -4.5606  -4.4732
    -4.4207  -4.3254  -4.0894  -4.0567  -3.9253  -3.8977  -3.6106  -3.4039
    -3.1946  -2.9961  -2.4130  -2.0892  -1.2638  -0.7092  -0.4907  -0.2175
    -0.1153   0.0107   0.1082   0.2956   0.3466   0.3912   0.5319   0.5771
     0.6212   0.7219   0.9486   1.2568   1.3163   1.5342   1.5865   1.6191
     1.6591   1.6731   1.6825   1.9062   2.0384   2.0808   2.1608   2.2484
     2.2830   2.2858   2.5298   2.5451   2.6242   2.6445   2.6566   2.6667
     2.7633   2.8179   2.8223   2.9092   2.9612   3.0576   3.0845   3.0933
     3.2030   3.2157   3.2324   3.2860   3.3355   3.3915   3.4701   3.4881
     3.5317   3.6547   3.6958   3.7212   3.7712   3.8280   3.8392   3.9384
     4.0068   4.0328   4.0571   4.0794   4.1197   4.1262   4.1360   4.2103
     4.2143   4.2666   4.2779   4.3287   4.3313   4.3658   4.3762   4.3776
     4.4074   4.4313   4.4452   4.5042   4.5360   4.6174   4.6643   4.6661
     4.7211   4.8466   4.8868   4.9564   4.9648   5.0167   5.0505   5.1052
     5.1411   5.1488   5.1820   5.2639   5.2887   5.3375   5.3913   5.4090
     5.4243   5.4732   5.4789   5.5009   5.5567   5.5594   5.5886   5.6228
     5.6561   5.7247   5.7391   5.7684   5.8089   5.8372   5.8723   5.8723
     5.8883   5.8968   5.9402   5.9721   5.9772   5.9947   6.0414   6.0442
     6.0474   6.0590   6.0885   6.1134   6.1579   6.1790   6.2225   6.2712
     6.3110   6.3348   6.3627   6.3707   6.4267   6.5143   6.5291   6.5695
     6.5951   6.6060   6.6262   6.6411   6.6474   6.7052   6.7252   6.7396
     6.7667   6.7781   6.8008   6.8129   6.8403   6.8569   6.8638   6.9093
     6.9269   6.9284   6.9575   6.9699   6.9841   7.0002   7.0350   7.0733
     7.0741   7.1057   7.1125   7.1302   7.1661   7.1694   7.2083   7.2297
     7.2567   7.3070   7.3127   7.3537   7.3541   7.3926   7.4247   7.4328
     7.4681   7.4685   7.4841   7.5474   7.5658   7.5660   7.6166   7.6364
     7.6470   7.6550   7.6816   7.7404   7.7659   7.8270   7.8891   7.9023
     7.9104   7.9279   7.9497   7.9528   7.9842   7.9987   8.0252   8.0584
     8.0681   8.0988   8.1358   8.1504   8.1694   8.2181   8.2374   8.2619
     8.2887   8.3053   8.3055   8.3283   8.3487   8.3577   8.3793   8.4103
     8.4712   8.4985   8.5403   8.5577   8.5785   8.6141   8.6285   8.6353
     8.6607   8.6701   8.7274   8.7465   8.7649   8.7888   8.8441   8.8569
     8.8674   8.8851   8.8942   8.9045   8.9367   8.9392   8.9607   8.9723
     8.9866   9.0285   9.0426   9.0614   9.0949   9.1042   9.1077   9.1420
     9.1604   9.1620   9.2210   9.2244   9.2481   9.2547   9.2626   9.3117
     9.3243   9.3454   9.3936   9.4295   9.4539   9.4884   9.5051   9.5223
     9.5568   9.5767   9.6111   9.6242   9.6549   9.6754   9.6802   9.6983
     9.7088   9.7332   9.7840   9.8218   9.8542   9.8605   9.8697   9.8912
     9.9123   9.9391   9.9397   9.9469   9.9599   9.9703   9.9839  10.0205
    10.0386  10.0738  10.1738  10.2108  10.2210  10.2554  10.2675  10.2879
    10.3213  10.3376  10.3526  10.3575  10.3816  10.4072  10.4278  10.4351
    10.5405  10.5594  10.5641  10.5907  10.5931  10.5948  10.6468  10.6514
    10.6621  10.6850  10.6987  10.7083  10.7369  10.7446  10.7734  10.7817
    10.8049  10.8297  10.8501  10.8947  10.9085  10.9294  10.9624  10.9929
    11.0015  11.0078  11.0396  11.0453

     the Fermi energy is    -2.0298 ev

     Writing output data file AGNR_10_Defect_H.save/

     init_run     :     16.41s CPU     17.11s WALL (       1 calls)
     electrons    :  10141.39s CPU  10255.36s WALL (       1 calls)

     Called by init_run:
     wfcinit      :      0.00s CPU      0.00s WALL (       1 calls)
     potinit      :      0.99s CPU      1.09s WALL (       1 calls)
     hinit0       :     12.68s CPU     12.79s WALL (       1 calls)

     Called by electrons:
     c_bands      :  10141.37s CPU  10255.06s WALL (       1 calls)
     v_of_rho     :      0.77s CPU      0.82s WALL (       1 calls)
     newd         :      0.70s CPU      0.94s WALL (       1 calls)

     Called by c_bands:
     init_us_2    :      1.12s CPU      1.19s WALL (      26 calls)
     cegterg      :   9974.00s CPU  10077.78s WALL (     136 calls)

     Called by sum_band:

     Called by *egterg:
     h_psi        :   2685.01s CPU   2726.75s WALL (    2653 calls)
     s_psi        :    393.77s CPU    396.37s WALL (    2653 calls)
     g_psi        :     13.60s CPU     13.70s WALL (    2491 calls)
     cdiaghg      :   4213.27s CPU   4229.67s WALL (    2517 calls)

     Called by h_psi:
     h_psi:pot    :   2667.46s CPU   2701.74s WALL (    2653 calls)
     h_psi:calbec :    373.97s CPU    379.73s WALL (    2653 calls)
     vloc_psi     :   1899.43s CPU   1925.65s WALL (    2653 calls)
     add_vuspsi   :    394.02s CPU    396.19s WALL (    2653 calls)

     General routines
     calbec       :    373.95s CPU    379.62s WALL (    2653 calls)
     fft          :      0.83s CPU      0.91s WALL (      14 calls)
     ffts         :      0.00s CPU      0.01s WALL (       1 calls)
     fftw         :   1507.56s CPU   1528.78s WALL (  662064 calls)
     interpolate  :      0.05s CPU      0.05s WALL (       1 calls)
     davcio       :      0.00s CPU      6.05s WALL (      52 calls)

     Parallel routines
     fft_scatt_xy :    258.92s CPU    261.34s WALL (  662079 calls)
     fft_scatt_yz :    248.56s CPU    253.20s WALL (  662079 calls)

     PWSCF        :     2h49m CPU       49h 2m WALL

      56h

   This run was terminated on:  22:10:52  16Apr2021            

=------------------------------------------------------------------------------=
   JOB DONE.
=------------------------------------------------------------------------------=
