
     Program PWSCF v.6.3 starts on 20Dec2021 at 22:13: 6 

     This program is part of the open-source Quantum ESPRESSO suite
     for quantum simulation of materials; please cite
         "P. Giannozzi et al., J. Phys.:Condens. Matter 21 395502 (2009);
         "P. Giannozzi et al., J. Phys.:Condens. Matter 29 465901 (2017);
          URL http://www.quantum-espresso.org", 
     in publications or presentations arising from this work. More details at
     http://www.quantum-espresso.org/quote

     Parallel version (MPI), running on    16 processors
     R & G space division:  proc/nbgrp/npool/nimage =      16
     Waiting for input...
     Reading input from standard input
     Message from routine read_cards :
     DEPRECATED: no units specified in CELL_PARAMETERS card

     Current dimensions of program PWSCF are:
     Max number of different atomic species (ntypx) = 10
     Max number of k-points (npk) =  40000
     Max angular momentum in pseudopotentials (lmaxx) =  3

     Atomic positions and unit cell read from directory:
     /home/zfwang/scratch/GNRDATASET/AGNR/AGNR_10_Defect_I/AGNR_10_Defect_I.save/


     Subspace diagonalization in iterative solution of the eigenvalue problem:
     a serial algorithm will be used


     Parallelization info
     --------------------
     sticks:   dense  smooth     PW     G-vecs:    dense   smooth      PW
     Min        1795     598    154               268889    51736    6769
     Max        1797     599    155               268893    51739    6771
     Sum       28723    9573   2475              4302255   827793  108323



     bravais-lattice index     =            0
     lattice parameter (alat)  =       1.8897  a.u.
     unit-cell volume          =   24226.2045 (a.u.)^3
     number of atoms/cell      =           94
     number of atomic types    =            2
     number of electrons       =       322.00
     number of Kohn-Sham states=          500
     kinetic-energy cutoff     =      40.0000  Ry
     charge density cutoff     =     480.0000  Ry
     Exchange-correlation      = PBE ( 1  4  3  4 0 0)

     celldm(1)=  18.897261  celldm(2)=   2.106780  celldm(3)=   1.704000
     celldm(4)=   0.000000  celldm(5)=   0.000000  celldm(6)=   0.000000

     crystal axes: (cart. coord. in units of alat)
               a(1) = (  10.000000   0.000000   0.000000 )  
               a(2) = (   0.000000  21.067800   0.000000 )  
               a(3) = (   0.000000   0.000000  17.040000 )  

     reciprocal axes: (cart. coord. in units 2 pi/alat)
               b(1) = (  0.100000  0.000000  0.000000 )  
               b(2) = (  0.000000  0.047466  0.000000 )  
               b(3) = (  0.000000  0.000000  0.058685 )  


     PseudoPot. # 1 for C  read from file:
     /home/zfwang/hp_home/MySoftware/qe-6.3/pseudo/C.pbe-n-rrkjus_psl.0.1.UPF
     MD5 check sum: fff530ed632a789b3b184014e67dd7f1
     Pseudo is Ultrasoft + core correction, Zval =  4.0
     Generated using "atomic" code by A. Dal Corso v.5.0.2 svn rev. 9415
     Using radial grid of 1073 points,  4 beta functions with: 
                l(1) =   0
                l(2) =   0
                l(3) =   1
                l(4) =   1
     Q(r) pseudized with 0 coefficients 


     PseudoPot. # 2 for H  read from file:
     /home/zfwang/hp_home/MySoftware/qe-6.3/pseudo/H.pbe-rrkjus_psl.0.1.UPF
     MD5 check sum: e164a6907b691c6980f16942be34de84
     Pseudo is Ultrasoft, Zval =  1.0
     Generated using "atomic" code by A. Dal Corso v.5.0.2 svn rev. 9415
     Using radial grid of  929 points,  2 beta functions with: 
                l(1) =   0
                l(2) =   0
     Q(r) pseudized with 0 coefficients 


     atomic species   valence    mass     pseudopotential
        C              4.00    12.01070     C ( 1.00)
        H              1.00     1.00794     H ( 1.00)

     No symmetry found



   Cartesian axes

     site n.     atom                  positions (alat units)
         1           C   tau(   1) = (   4.9999991   6.0560900   2.8037242  )
         2           C   tau(   2) = (   4.9999995   6.0178591   7.0629054  )
         3           C   tau(   3) = (   5.0000011   6.0287640  11.3443574  )
         4           C   tau(   4) = (   4.9999998   6.0638906  15.6014185  )
         5           C   tau(   5) = (   4.9999984   7.2583699   3.5375568  )
         6           C   tau(   6) = (   5.0000003   7.2195606   7.8034459  )
         7           C   tau(   7) = (   5.0000009   7.2401961  12.0725352  )
         8           C   tau(   8) = (   5.0000002   7.2736469  16.3259341  )
         9           C   tau(   9) = (   4.9999997   6.0638902   1.4385860  )
        10           C   tau(  10) = (   4.9999983   6.0287634   5.6956493  )
        11           C   tau(  11) = (   5.0000012   6.0178590   9.9770942  )
        12           C   tau(  12) = (   5.0000000   6.0560910  14.2362751  )
        13           C   tau(  13) = (   4.9999987   8.4962840   2.8371315  )
        14           C   tau(  14) = (   4.9999997   8.4505845   7.0983472  )
        15           C   tau(  15) = (   5.0000011   8.4643515  11.3653073  )
        16           C   tau(  16) = (   5.0000006   8.5052215  15.6238265  )
        17           C   tau(  17) = (   4.9999991   9.7315684   3.5472360  )
        18           C   tau(  18) = (   5.0000001   9.6815683   7.8117828  )
        19           C   tau(  19) = (   5.0000009   9.7061861  12.0763997  )
        20           C   tau(  20) = (   5.0000006   9.7479061  16.3300701  )
        21           C   tau(  21) = (   4.9999997   7.2736450   0.7140673  )
        22           C   tau(  22) = (   4.9999984   7.2401940   4.9674656  )
        23           C   tau(  23) = (   5.0000010   7.2195629   9.2365568  )
        24           C   tau(  24) = (   5.0000006   7.2583714  13.5024467  )
        25           C   tau(  25) = (   4.9999992   8.5052200   1.4161757  )
        26           C   tau(  26) = (   4.9999990   8.4643490   5.6746947  )
        27           C   tau(  27) = (   5.0000009   8.4505872   9.9416513  )
        28           C   tau(  28) = (   5.0000010   8.4962866  14.2028702  )
        29           C   tau(  29) = (   4.9999997  10.9739736   2.8392710  )
        30           C   tau(  30) = (   4.9999997  10.9089178   7.0984018  )
        31           C   tau(  31) = (   5.0000005  10.9270736  11.3639265  )
        32           C   tau(  32) = (   5.0000010  10.9791699  15.6212101  )
        33           C   tau(  33) = (   5.0000003  12.2076046   3.5512187  )
        34           C   tau(  34) = (   4.9999993  12.1274413   7.8118727  )
        35           C   tau(  35) = (   5.0000002  12.1635661  12.0725016  )
        36           C   tau(  36) = (   5.0000011  12.2259235  16.3221916  )
        37           C   tau(  37) = (   4.9999999   9.7479059   0.7099313  )
        38           C   tau(  38) = (   4.9999992   9.7061832   4.9635979  )
        39           C   tau(  39) = (   5.0000004   9.6815671   9.2282189  )
        40           C   tau(  40) = (   5.0000011   9.7315716  13.4927647  )
        41           C   tau(  41) = (   5.0000002  10.9791699   1.4187870  )
        42           C   tau(  42) = (   4.9999996  10.9270752   5.6760825  )
        43           C   tau(  43) = (   5.0000003  10.9089287   9.9415908  )
        44           C   tau(  44) = (   5.0000011  10.9739706  14.2007319  )
        45           C   tau(  45) = (   5.0000009  13.4714537   2.8592541  )
        46           C   tau(  46) = (   4.9999990  13.3549998   7.0984445  )
        47           C   tau(  47) = (   4.9999994  13.3807194  11.3564476  )
        48           C   tau(  48) = (   5.0000012  13.4500560  15.6119280  )
        49           C   tau(  49) = (   5.0000014  14.7030810   3.5849624  )
        50           C   tau(  50) = (   4.9999977  14.5613138   7.8198211  )
        51           C   tau(  51) = (   5.0000000  14.6273073  12.0420020  )
        52           C   tau(  52) = (   5.0000011  14.6910066  16.3246426  )
        53           C   tau(  53) = (   5.0000009  12.2259255   0.7178104  )
        54           C   tau(  54) = (   5.0000000  12.1635633   4.9674887  )
        55           C   tau(  55) = (   4.9999993  12.1274201   9.2281381  )
        56           C   tau(  56) = (   5.0000009  12.2076105  13.4887795  )
        57           C   tau(  57) = (   5.0000011  13.4500526   1.4280691  )
        58           C   tau(  58) = (   4.9999998  13.3807175   5.6835968  )
        59           C   tau(  59) = (   4.9999985  13.3550337   9.9415081  )
        60           C   tau(  60) = (   5.0000006  13.4714418  14.1807512  )
        61           C   tau(  61) = (   5.0000017  16.0012271   2.8832979  )
        62           C   tau(  62) = (   4.9999985  15.7781572   7.1334361  )
        63           C   tau(  63) = (   5.0000011  15.7928304  11.2517031  )
        64           C   tau(  64) = (   5.0000007  15.9162772  15.6205651  )
        65           C   tau(  65) = (   5.0000027  17.2898362   3.3591846  )
        66           C   tau(  66) = (   5.0000001  17.0915203  16.3628945  )
        67           C   tau(  67) = (   5.0000013  14.6910129   0.7153596  )
        68           C   tau(  68) = (   5.0000005  14.6273181   4.9979616  )
        69           C   tau(  69) = (   4.9999973  14.5612873   9.2202210  )
        70           C   tau(  70) = (   5.0000001  14.7030938  13.4550285  )
        71           C   tau(  71) = (   5.0000010  15.9162658   1.4194368  )
        72           C   tau(  72) = (   5.0000002  15.7927810   5.7885044  )
        73           C   tau(  73) = (   4.9999984  15.7781725   9.9063621  )
        74           C   tau(  74) = (   4.9999993  16.0012343  14.1567000  )
        75           C   tau(  75) = (   5.0000003  17.0915292   0.6771049  )
        76           C   tau(  76) = (   4.9999970  17.2898365  13.6808136  )
        77           H   tau(  77) = (   5.0000045  17.6897736   4.3526116  )
        78           H   tau(  78) = (   4.9999930  17.6897819  12.6873828  )
        79           H   tau(  79) = (   4.9999992   5.0986012   3.3180247  )
        80           H   tau(  80) = (   4.9999996   5.0582257   7.5740568  )
        81           H   tau(  81) = (   5.0000010   5.0753375  11.8653483  )
        82           H   tau(  82) = (   4.9999992   5.1105833  16.1217667  )
        83           H   tau(  83) = (   5.0000007   5.1105829   0.9182331  )
        84           H   tau(  84) = (   4.9999975   5.0753363   5.1746581  )
        85           H   tau(  85) = (   5.0000013   5.0582242   9.4659492  )
        86           H   tau(  86) = (   4.9999993   5.0986021  13.7219749  )
        87           H   tau(  87) = (   4.9999978  16.7306175   7.6504164  )
        88           H   tau(  88) = (   5.0000055  16.7542577  11.6929062  )
        89           H   tau(  89) = (   5.0000020  18.1112480   2.6617400  )
        90           H   tau(  90) = (   4.9999989  18.0724505  15.9108965  )
        91           H   tau(  91) = (   5.0000007  16.7543031   5.3470707  )
        92           H   tau(  92) = (   4.9999990  16.7305901   9.3896092  )
        93           H   tau(  93) = (   4.9999997  18.0724471   1.1290996  )
        94           H   tau(  94) = (   4.9999983  18.1112574  14.3782584  )

     number of k points=    26  Marzari-Vanderbilt smearing, width (Ry)=  0.0100
                       cart. coord. in units 2pi/alat
        k(    1) = (   0.0000000   0.0000000   0.0000000), wk =   0.0400000
        k(    2) = (   0.0000000   0.0000000   0.0011737), wk =   0.0800000
        k(    3) = (   0.0000000   0.0000000   0.0023474), wk =   0.0800000
        k(    4) = (   0.0000000   0.0000000   0.0035211), wk =   0.0800000
        k(    5) = (   0.0000000   0.0000000   0.0046948), wk =   0.0800000
        k(    6) = (   0.0000000   0.0000000   0.0058685), wk =   0.0800000
        k(    7) = (   0.0000000   0.0000000   0.0070423), wk =   0.0800000
        k(    8) = (   0.0000000   0.0000000   0.0082160), wk =   0.0800000
        k(    9) = (   0.0000000   0.0000000   0.0093897), wk =   0.0800000
        k(   10) = (   0.0000000   0.0000000   0.0105634), wk =   0.0800000
        k(   11) = (   0.0000000   0.0000000   0.0117371), wk =   0.0800000
        k(   12) = (   0.0000000   0.0000000   0.0129108), wk =   0.0800000
        k(   13) = (   0.0000000   0.0000000   0.0140845), wk =   0.0800000
        k(   14) = (   0.0000000   0.0000000   0.0152582), wk =   0.0800000
        k(   15) = (   0.0000000   0.0000000   0.0164319), wk =   0.0800000
        k(   16) = (   0.0000000   0.0000000   0.0176056), wk =   0.0800000
        k(   17) = (   0.0000000   0.0000000   0.0187793), wk =   0.0800000
        k(   18) = (   0.0000000   0.0000000   0.0199531), wk =   0.0800000
        k(   19) = (   0.0000000   0.0000000   0.0211268), wk =   0.0800000
        k(   20) = (   0.0000000   0.0000000   0.0223005), wk =   0.0800000
        k(   21) = (   0.0000000   0.0000000   0.0234742), wk =   0.0800000
        k(   22) = (   0.0000000   0.0000000   0.0246479), wk =   0.0800000
        k(   23) = (   0.0000000   0.0000000   0.0258216), wk =   0.0800000
        k(   24) = (   0.0000000   0.0000000   0.0269953), wk =   0.0800000
        k(   25) = (   0.0000000   0.0000000   0.0281690), wk =   0.0800000
        k(   26) = (   0.0000000   0.0000000  -0.0293427), wk =   0.0400000

     Dense  grid:  4302255 G-vectors     FFT dimensions: ( 135, 288, 225)

     Smooth grid:   827793 G-vectors     FFT dimensions: (  80, 162, 135)

     Estimated max dynamical RAM per process >     977.59 MB

     Estimated total dynamical RAM >      15.27 GB

     The potential is recalculated from file :
     /home/zfwang/scratch/GNRDATASET/AGNR/AGNR_10_Defect_I/AGNR_10_Defect_I.save/charge-density.dat


     negative rho (up, down):  1.431E-04 0.000E+00
     Starting wfcs are  322 randomized atomic wfcs +  178 random wfcs

     Band Structure Calculation
     Davidson diagonalization with overlap
     c_bands:  1 eigenvalues not converged
     c_bands:  1 eigenvalues not converged
     c_bands:  2 eigenvalues not converged

     ethr =  3.11E-09,  avg # of iterations = 89.3

     total cpu time spent up to now is     9891.3 secs

     End of band structure calculation

          k = 0.0000 0.0000 0.0000 (103407 PWs)   bands (ev):

   -21.1600 -20.7986 -20.7752 -20.6278 -20.3125 -20.2208 -19.8538 -19.7017
   -19.6689 -19.5215 -19.3817 -19.2403 -19.1045 -18.8103 -18.5367 -18.3790
   -18.2813 -18.2021 -17.9119 -17.8911 -17.5887 -17.5396 -17.4302 -17.3760
   -17.1395 -17.0375 -16.9544 -16.6680 -16.5541 -16.4090 -16.2184 -16.1126
   -15.9204 -15.8988 -15.6917 -15.4993 -15.2130 -14.9397 -14.8466 -14.6117
   -14.5622 -14.4938 -14.2573 -14.2111 -14.0389 -14.0210 -13.7663 -13.6149
   -13.4788 -12.9926 -12.9009 -12.8537 -12.6588 -12.4167 -12.4096 -12.3909
   -12.3351 -12.1786 -12.0638 -11.9555 -11.9157 -11.8159 -11.3438 -11.3115
   -10.9333 -10.8666 -10.8640 -10.7449 -10.6590 -10.4984 -10.4463 -10.3623
   -10.2716 -10.0680  -9.9372  -9.8315  -9.7361  -9.6451  -9.4822  -9.4701
    -9.2586  -9.2448  -9.2302  -9.2202  -9.0580  -9.0123  -8.8591  -8.8002
    -8.7998  -8.7774  -8.6262  -8.5893  -8.5366  -8.4701  -8.4245  -8.3847
    -8.3665  -8.3290  -8.3016  -8.2710  -8.2382  -8.1913  -8.1725  -8.1540
    -8.0463  -7.8851  -7.8479  -7.8103  -7.7288  -7.7194  -7.6276  -7.5372
    -7.5067  -7.4871  -7.3363  -7.2255  -7.2222  -7.1839  -7.1631  -7.0476
    -6.9650  -6.8783  -6.8578  -6.8460  -6.6108  -6.5610  -6.5562  -6.3386
    -6.3280  -6.2347  -6.0954  -6.0880  -6.0794  -5.9602  -5.9508  -5.9393
    -5.7592  -5.5972  -5.5839  -5.5228  -5.4990  -5.2187  -5.2130  -5.0812
    -5.0441  -4.9885  -4.9499  -4.8115  -4.6597  -4.5588  -4.3279  -4.3126
    -4.1627  -3.9297  -3.9180  -3.7710  -3.7045  -3.3535  -3.1473  -2.7497
    -1.9362  -1.8947  -0.9927  -0.6121  -0.4158  -0.1967  -0.1161  -0.1110
     0.1347   0.1418   0.5019   0.5671   0.7300   0.9314   0.9831   1.1509
     1.3241   1.4474   1.4700   1.5053   1.5663   1.6176   1.6559   1.6642
     1.8820   1.9198   1.9236   1.9861   2.0025   2.0249   2.0824   2.3804
     2.4463   2.5102   2.6037   2.6051   2.6812   2.8045   2.8064   2.8392
     2.9571   3.0339   3.0523   3.0834   3.0930   3.1653   3.2314   3.2404
     3.2557   3.3029   3.3754   3.4095   3.4259   3.4792   3.4841   3.5225
     3.5310   3.6212   3.6766   3.7023   3.7661   3.8138   3.9332   3.9687
     4.0039   4.0862   4.1113   4.1570   4.1663   4.2500   4.2968   4.3485
     4.4224   4.4494   4.4950   4.5039   4.5118   4.5645   4.5805   4.6199
     4.6590   4.7207   4.7350   4.7488   4.7564   4.7945   4.8139   4.9075
     4.9303   4.9330   4.9741   5.0283   5.0421   5.0626   5.1448   5.1625
     5.1846   5.2127   5.2308   5.2373   5.2639   5.2720   5.3338   5.3421
     5.4070   5.4579   5.4815   5.4907   5.5856   5.6084   5.6909   5.7223
     5.7647   5.8771   5.9105   5.9201   5.9565   5.9577   5.9693   5.9817
     5.9998   6.0231   6.0339   6.0533   6.0683   6.0861   6.1675   6.1959
     6.2018   6.2321   6.2591   6.2776   6.2899   6.3071   6.3260   6.3488
     6.3748   6.4131   6.4305   6.4561   6.4749   6.5131   6.5385   6.5627
     6.5823   6.5917   6.6224   6.6510   6.6987   6.7246   6.7373   6.7452
     6.7633   6.7914   6.8160   6.8480   6.8536   6.9164   6.9387   6.9400
     6.9655   7.0067   7.0362   7.0608   7.0713   7.0990   7.1037   7.1467
     7.1730   7.1999   7.2089   7.2254   7.2693   7.2715   7.2821   7.3010
     7.3611   7.3831   7.4175   7.4346   7.4493   7.4583   7.4868   7.5005
     7.5040   7.5302   7.5613   7.6048   7.6641   7.6671   7.6815   7.6958
     7.7038   7.7170   7.7622   7.7884   7.8012   7.8035   7.8085   7.8469
     7.8765   7.9027   7.9311   7.9719   7.9813   8.0085   8.0199   8.0507
     8.0774   8.1157   8.1316   8.2753   8.2866   8.3177   8.3423   8.3609
     8.3914   8.3946   8.4174   8.4381   8.4708   8.5287   8.5665   8.5749
     8.5764   8.5974   8.5987   8.6239   8.6363   8.7052   8.7106   8.7125
     8.7148   8.7570   8.7669   8.7822   8.7860   8.7910   8.8021   8.8481
     8.8956   8.9702   8.9791   8.9944   9.0110   9.0885   9.0901   9.1040
     9.1123   9.1687   9.1809   9.2104   9.2251   9.2575   9.2660   9.2724
     9.2756   9.3173   9.3379   9.3469   9.3590   9.3736   9.3796   9.4075
     9.4318   9.4473   9.4906   9.4980   9.5049   9.5140   9.5489   9.5822
     9.5896   9.6076   9.6697   9.6905   9.7198   9.7213   9.7356   9.8011
     9.8098   9.8117   9.8515   9.8800   9.9166   9.9349   9.9360   9.9803
    10.0029  10.0041  10.0252  10.0303  10.0401  10.0666  10.0686  10.0737
    10.0892  10.1154  10.1261  10.1646  10.1647  10.1931  10.2399  10.2507
    10.3017  10.3023  10.4147  10.4411  10.5272  10.5705  10.6243  10.6682
    10.6739  10.6929  10.7071  10.7130  10.7280  10.7454  10.7821  10.7826
    10.7905  10.7908  10.8131  10.8160  10.8358  10.8428  10.8437  10.8828
    10.9140  10.9267  10.9287  10.9513  10.9893  10.9924  11.0410  11.0442
    11.0476  11.0803  11.1086  11.1540

          k = 0.0000 0.0000 0.0012 (103433 PWs)   bands (ev):

   -21.1598 -20.8054 -20.7682 -20.6276 -20.3145 -20.2186 -19.8540 -19.7171
   -19.6530 -19.5224 -19.3805 -19.2454 -19.0991 -18.8104 -18.5385 -18.3785
   -18.2831 -18.1984 -17.9439 -17.8589 -17.5923 -17.5380 -17.4450 -17.3611
   -17.1372 -17.0385 -16.9548 -16.6723 -16.5491 -16.4090 -16.2182 -16.1130
   -15.9204 -15.9015 -15.6917 -15.5009 -15.2140 -14.9379 -14.8460 -14.6188
   -14.5556 -14.4905 -14.2610 -14.2079 -14.0423 -14.0164 -13.7681 -13.6131
   -13.4792 -12.9924 -12.9100 -12.8445 -12.6600 -12.4622 -12.4212 -12.3387
   -12.3338 -12.1823 -12.0606 -11.9550 -11.9122 -11.8144 -11.3497 -11.3058
   -10.9356 -10.8830 -10.8462 -10.7548 -10.6485 -10.5026 -10.4452 -10.3597
   -10.2728 -10.0724  -9.9311  -9.8336  -9.7341  -9.6443  -9.4927  -9.4653
    -9.2815  -9.2408  -9.2301  -9.2021  -9.0538  -9.0105  -8.8599  -8.8091
    -8.7988  -8.7678  -8.6261  -8.5910  -8.5487  -8.4641  -8.4328  -8.3879
    -8.3621  -8.3263  -8.2940  -8.2704  -8.2412  -8.1924  -8.1706  -8.1506
    -8.0475  -7.8843  -7.8491  -7.8085  -7.7288  -7.7171  -7.6303  -7.5346
    -7.5310  -7.4624  -7.3382  -7.2281  -7.2232  -7.1798  -7.1637  -7.0458
    -6.9755  -6.8676  -6.8634  -6.8429  -6.6139  -6.5571  -6.5563  -6.3533
    -6.3135  -6.2373  -6.1160  -6.0862  -6.0610  -5.9648  -5.9590  -5.9237
    -5.7606  -5.5960  -5.5832  -5.5556  -5.4662  -5.2310  -5.2022  -5.0815
    -5.0528  -4.9888  -4.9456  -4.8057  -4.6602  -4.5586  -4.3285  -4.3179
    -4.1577  -3.9302  -3.9178  -3.7766  -3.6987  -3.3544  -3.1473  -2.7503
    -1.9520  -1.8794  -0.9917  -0.6119  -0.4147  -0.1978  -0.1275  -0.0975
     0.1294   0.1473   0.4965   0.5671   0.7343   0.9309   0.9829   1.1511
     1.3249   1.4476   1.4508   1.5055   1.5849   1.6112   1.6570   1.6707
     1.8624   1.8796   1.9810   1.9815   2.0007   2.0349   2.0828   2.3749
     2.4491   2.5080   2.5948   2.6168   2.6820   2.7974   2.8150   2.8383
     2.9532   3.0343   3.0489   3.0758   3.1047   3.1646   3.2222   3.2385
     3.2660   3.3075   3.3736   3.4065   3.4217   3.4806   3.4889   3.4950
     3.5648   3.6195   3.6695   3.7114   3.7608   3.8193   3.9297   3.9685
     3.9972   4.0916   4.0972   4.1589   4.1809   4.2502   4.2981   4.3448
     4.4224   4.4481   4.4832   4.5057   4.5222   4.5586   4.5801   4.6198
     4.6662   4.7222   4.7225   4.7465   4.7684   4.7941   4.8196   4.8930
     4.9241   4.9411   4.9787   5.0184   5.0419   5.0710   5.1425   5.1534
     5.1795   5.2093   5.2290   5.2322   5.2719   5.2792   5.3389   5.3571
     5.4080   5.4598   5.4824   5.4905   5.5862   5.6091   5.6912   5.7221
     5.7646   5.8775   5.9090   5.9164   5.9355   5.9402   5.9585   5.9765
     6.0145   6.0422   6.0448   6.0632   6.0713   6.0857   6.1518   6.1858
     6.2091   6.2363   6.2594   6.2694   6.3034   6.3142   6.3220   6.3469
     6.3714   6.3976   6.4508   6.4553   6.4649   6.5251   6.5360   6.5616
     6.5838   6.5984   6.6208   6.6527   6.6942   6.7240   6.7282   6.7493
     6.7665   6.7926   6.8183   6.8539   6.8571   6.9033   6.9395   6.9499
     6.9668   7.0052   7.0381   7.0389   7.0898   7.0976   7.1048   7.1431
     7.1565   7.1979   7.1988   7.2481   7.2639   7.2715   7.2871   7.3010
     7.3627   7.3886   7.4169   7.4305   7.4468   7.4542   7.4827   7.4982
     7.5075   7.5331   7.5519   7.6058   7.6440   7.6684   7.6958   7.6987
     7.7101   7.7265   7.7630   7.7691   7.7912   7.8083   7.8371   7.8502
     7.8822   7.9040   7.9060   7.9786   7.9911   8.0146   8.0244   8.0498
     8.0783   8.1047   8.1412   8.2760   8.2866   8.3003   8.3454   8.3586
     8.3729   8.4152   8.4231   8.4370   8.4639   8.5246   8.5680   8.5692
     8.5815   8.5859   8.6145   8.6316   8.6348   8.6948   8.7009   8.7058
     8.7098   8.7468   8.7613   8.7743   8.7950   8.8188   8.8286   8.8461
     8.8960   8.9621   8.9814   8.9948   9.0117   9.0881   9.0894   9.0965
     9.1251   9.1665   9.1713   9.1999   9.2354   9.2507   9.2573   9.2750
     9.2900   9.3175   9.3203   9.3354   9.3530   9.3738   9.3787   9.4166
     9.4432   9.4516   9.4922   9.4988   9.5090   9.5193   9.5619   9.5824
     9.5846   9.6082   9.6680   9.6772   9.7053   9.7353   9.7375   9.8016
     9.8076   9.8096   9.8501   9.8959   9.9163   9.9177   9.9365   9.9715
    10.0001  10.0140  10.0237  10.0290  10.0363  10.0637  10.0678  10.0781
    10.0866  10.1168  10.1324  10.1710  10.1798  10.1928  10.2369  10.2488
    10.2959  10.3138  10.4113  10.4404  10.5234  10.5629  10.6260  10.6621
    10.6699  10.6906  10.7123  10.7150  10.7309  10.7423  10.7698  10.7833
    10.7843  10.8065  10.8126  10.8190  10.8256  10.8442  10.8464  10.8859
    10.9055  10.9231  10.9471  10.9565  10.9904  10.9948  11.0285  11.0380
    11.0681  11.0742  11.1066  11.1237

          k = 0.0000 0.0000 0.0023 (103431 PWs)   bands (ev):

   -21.1594 -20.8176 -20.7551 -20.6271 -20.3199 -20.2124 -19.8546 -19.7417
   -19.6272 -19.5250 -19.3767 -19.2590 -19.0848 -18.8104 -18.5437 -18.3775
   -18.2871 -18.1885 -17.9841 -17.8180 -17.6019 -17.5345 -17.4717 -17.3338
   -17.1305 -17.0415 -16.9560 -16.6829 -16.5365 -16.4088 -16.2174 -16.1144
   -15.9202 -15.9097 -15.6915 -15.5055 -15.2169 -14.9329 -14.8436 -14.6338
   -14.5416 -14.4807 -14.2698 -14.2005 -14.0480 -14.0068 -13.7730 -13.6078
   -13.4801 -12.9919 -12.9282 -12.8261 -12.6637 -12.5224 -12.4351 -12.3309
   -12.2780 -12.1916 -12.0528 -11.9537 -11.9012 -11.8099 -11.3616 -11.2941
   -10.9447 -10.8949 -10.8275 -10.7758 -10.6258 -10.5139 -10.4423 -10.3527
   -10.2762 -10.0831  -9.9153  -9.8389  -9.7290  -9.6424  -9.5128  -9.4617
    -9.3124  -9.2405  -9.2296  -9.1739  -9.0412  -9.0048  -8.8620  -8.8245
    -8.7948  -8.7514  -8.6256  -8.5991  -8.5714  -8.4637  -8.4457  -8.3934
    -8.3555  -8.3119  -8.2893  -8.2591  -8.2492  -8.1948  -8.1663  -8.1416
    -8.0507  -7.8818  -7.8524  -7.8034  -7.7288  -7.7107  -7.6374  -7.5625
    -7.5274  -7.4299  -7.3434  -7.2413  -7.2167  -7.1717  -7.1657  -7.0404
    -6.9987  -6.8746  -6.8437  -6.8389  -6.6212  -6.5565  -6.5475  -6.3718
    -6.2955  -6.2447  -6.1438  -6.0817  -6.0406  -5.9813  -5.9543  -5.9022
    -5.7643  -5.5979  -5.5936  -5.5799  -5.4238  -5.2473  -5.1905  -5.0825
    -5.0743  -4.9897  -4.9359  -4.7893  -4.6615  -4.5582  -4.3353  -4.3268
    -4.1446  -3.9321  -3.9165  -3.7895  -3.6850  -3.3571  -3.1472  -2.7522
    -1.9794  -1.8534  -0.9889  -0.6114  -0.4111  -0.2015  -0.1373  -0.0805
     0.1219   0.1555   0.4818   0.5665   0.7462   0.9295   0.9823   1.1517
     1.3270   1.4129   1.4481   1.5060   1.5977   1.6193   1.6620   1.6850
     1.8043   1.8730   1.9663   2.0065   2.0414   2.0522   2.0843   2.3609
     2.4548   2.5016   2.5881   2.6314   2.6844   2.7912   2.8257   2.8357
     2.9431   3.0353   3.0381   3.0702   3.1216   3.1617   3.2084   3.2352
     3.2833   3.3185   3.3670   3.4001   3.4122   3.4564   3.5007   3.5025
     3.6038   3.6140   3.6589   3.7283   3.7487   3.8312   3.9181   3.9676
     3.9863   4.0573   4.1221   4.1592   4.2036   4.2507   4.3041   4.3350
     4.4204   4.4450   4.4657   4.5096   4.5346   4.5465   4.5804   4.6191
     4.6830   4.7045   4.7263   4.7387   4.7857   4.7966   4.8330   4.8700
     4.9102   4.9361   4.9875   5.0174   5.0411   5.0689   5.1245   5.1560
     5.1669   5.2003   5.2220   5.2231   5.2943   5.2950   5.3525   5.3922
     5.4113   5.4644   5.4852   5.4900   5.5879   5.6111   5.6921   5.7212
     5.7641   5.8779   5.8807   5.9037   5.9066   5.9182   5.9575   5.9745
     6.0172   6.0578   6.0666   6.0691   6.0834   6.1114   6.1344   6.1555
     6.2174   6.2405   6.2490   6.2693   6.3121   6.3244   6.3356   6.3426
     6.3623   6.3883   6.4385   6.4514   6.4878   6.5268   6.5468   6.5626
     6.5836   6.6156   6.6206   6.6551   6.6809   6.7105   6.7279   6.7584
     6.7705   6.7945   6.8231   6.8569   6.8708   6.8943   6.9372   6.9586
     6.9722   7.0017   7.0090   7.0467   7.0946   7.1013   7.1061   7.1191
     7.1437   7.1950   7.2043   7.2434   7.2466   7.2814   7.3000   7.3159
     7.3655   7.3981   7.4152   7.4216   7.4365   7.4472   7.4798   7.4870
     7.5114   7.5364   7.5397   7.5896   7.6495   7.6582   7.6935   7.7068
     7.7258   7.7418   7.7640   7.7656   7.7893   7.8093   7.8640   7.8643
     7.8766   7.8958   7.9092   7.9739   7.9991   8.0318   8.0452   8.0475
     8.0808   8.0913   8.1531   8.2675   8.2779   8.2857   8.3452   8.3521
     8.3560   8.4083   8.4350   8.4468   8.4602   8.5210   8.5514   8.5700
     8.5717   8.6053   8.6253   8.6279   8.6495   8.6537   8.6782   8.6921
     8.7230   8.7450   8.7546   8.7795   8.8136   8.8385   8.8421   8.8818
     8.8974   8.9500   8.9840   8.9959   9.0136   9.0750   9.0872   9.1042
     9.1313   9.1360   9.1829   9.1890   9.2234   9.2441   9.2570   9.2690
     9.2862   9.3069   9.3158   9.3223   9.3415   9.3746   9.3986   9.4328
     9.4335   9.4809   9.4921   9.5058   9.5187   9.5311   9.5597   9.5715
     9.6103   9.6121   9.6551   9.6621   9.6914   9.7425   9.7431   9.7878
     9.8089   9.8170   9.8462   9.8822   9.9157   9.9240   9.9370   9.9687
     9.9921   9.9958  10.0139  10.0215  10.0454  10.0526  10.0761  10.0942
    10.0945  10.1141  10.1453  10.1915  10.1957  10.2076  10.2263  10.2577
    10.2796  10.3342  10.4026  10.4384  10.5129  10.5435  10.6271  10.6464
    10.6725  10.6853  10.7108  10.7140  10.7273  10.7430  10.7617  10.7789
    10.7877  10.8059  10.8083  10.8155  10.8327  10.8449  10.8498  10.8966
    10.9010  10.9196  10.9668  10.9707  10.9919  11.0010  11.0233  11.0272
    11.0586  11.0793  11.0936  11.1154

          k = 0.0000 0.0000 0.0035 (103427 PWs)   bands (ev):

   -21.1587 -20.8306 -20.7407 -20.6264 -20.3277 -20.2033 -19.8561 -19.7664
   -19.6001 -19.5288 -19.3709 -19.2774 -19.0651 -18.8105 -18.5518 -18.3771
   -18.2907 -18.1744 -18.0244 -17.7766 -17.6160 -17.5314 -17.4988 -17.3049
   -17.1194 -17.0463 -16.9585 -16.6957 -16.5213 -16.4072 -16.2163 -16.1165
   -15.9239 -15.9189 -15.6914 -15.5132 -15.2213 -14.9265 -14.8385 -14.6507
   -14.5257 -14.4653 -14.2812 -14.1916 -14.0533 -13.9952 -13.7805 -13.5998
   -13.4814 -12.9913 -12.9484 -12.8054 -12.6701 -12.5824 -12.4556 -12.3279
   -12.2177 -12.2030 -12.0433 -11.9520 -11.8828 -11.8028 -11.3750 -11.2811
   -10.9629 -10.8983 -10.8121 -10.7971 -10.6006 -10.5300 -10.4371 -10.3430
   -10.2819 -10.0958  -9.8946  -9.8456  -9.7220  -9.6414  -9.5369  -9.4626
    -9.3403  -9.2409  -9.2287  -9.1499  -9.0220  -8.9940  -8.8646  -8.8404
    -8.7889  -8.7337  -8.6247  -8.6228  -8.5859  -8.4867  -8.4480  -8.3991
    -8.3453  -8.2984  -8.2868  -8.2602  -8.2353  -8.1971  -8.1616  -8.1291
    -8.0551  -7.8776  -7.8569  -7.7954  -7.7289  -7.7011  -7.6472  -7.5939
    -7.5172  -7.3970  -7.3508  -7.2577  -7.2070  -7.1693  -7.1634  -7.0319
    -7.0262  -6.8888  -6.8363  -6.8150  -6.6299  -6.5568  -6.5359  -6.3892
    -6.2787  -6.2558  -6.1716  -6.0762  -6.0268  -5.9950  -5.9442  -5.8795
    -5.7699  -5.6406  -5.5922  -5.5726  -5.3811  -5.2650  -5.1802  -5.1026
    -5.0842  -4.9912  -4.9245  -4.7652  -4.6634  -4.5577  -4.3545  -4.3290
    -4.1275  -3.9365  -3.9135  -3.8048  -3.6680  -3.3616  -3.1472  -2.7554
    -2.0090  -1.8263  -0.9841  -0.6105  -0.4053  -0.2092  -0.1416  -0.0629
     0.1144   0.1639   0.4609   0.5646   0.7630   0.9273   0.9816   1.1527
     1.3291   1.3722   1.4488   1.5069   1.5820   1.6418   1.6812   1.7017
     1.7502   1.8638   1.9489   2.0176   2.0691   2.0884   2.1010   2.3426
     2.4598   2.4919   2.5841   2.6476   2.6883   2.7873   2.8305   2.8374
     2.9297   3.0230   3.0370   3.0651   3.1395   3.1553   3.1976   3.2342
     3.3009   3.3319   3.3553   3.3866   3.4019   3.4396   3.5154   3.5211
     3.6042   3.6437   3.6513   3.7346   3.7472   3.8447   3.8987   3.9640
     3.9802   4.0226   4.1524   4.1589   4.2171   4.2514   4.3183   4.3212
     4.4125   4.4429   4.4485   4.5087   4.5396   4.5406   4.5849   4.6176
     4.6850   4.7052   4.7292   4.7319   4.7914   4.8129   4.8470   4.8506
     4.8934   4.9111   4.9955   5.0291   5.0395   5.0559   5.0915   5.1509
     5.1832   5.1872   5.2102   5.2145   5.3143   5.3251   5.3714   5.4177
     5.4350   5.4700   5.4889   5.4896   5.5910   5.6149   5.6936   5.7187
     5.7629   5.8304   5.8698   5.8774   5.8961   5.9179   5.9578   5.9656
     6.0197   6.0545   6.0675   6.0739   6.1070   6.1216   6.1302   6.1608
     6.2116   6.2178   6.2521   6.2795   6.3028   6.3295   6.3484   6.3518
     6.3680   6.3864   6.4268   6.4438   6.5042   6.5267   6.5546   6.5741
     6.5851   6.6245   6.6384   6.6545   6.6625   6.6966   6.7357   6.7689
     6.7740   6.7965   6.8269   6.8438   6.8909   6.9093   6.9296   6.9606
     6.9743   6.9826   7.0005   7.0575   7.0667   7.0910   7.1127   7.1205
     7.1392   7.1869   7.2158   7.2298   7.2315   7.2745   7.3086   7.3480
     7.3658   7.3936   7.4087   7.4180   7.4298   7.4435   7.4657   7.4789
     7.5168   7.5243   7.5450   7.5736   7.6342   7.6617   7.7063   7.7070
     7.7272   7.7519   7.7611   7.7810   7.8048   7.8146   7.8371   7.8792
     7.9092   7.9172   7.9209   7.9708   7.9988   8.0309   8.0444   8.0810
     8.0877   8.0884   8.1624   8.2320   8.2800   8.2823   8.3360   8.3413
     8.3431   8.3985   8.4208   8.4387   8.4997   8.5202   8.5321   8.5646
     8.5663   8.5922   8.6177   8.6327   8.6352   8.6592   8.6703   8.6807
     8.7428   8.7465   8.7486   8.7935   8.8219   8.8414   8.8588   8.8999
     8.9266   8.9522   8.9899   8.9979   9.0169   9.0593   9.0835   9.1009
     9.1143   9.1203   9.1696   9.1927   9.2137   9.2180   9.2439   9.2564
     9.2818   9.2992   9.3176   9.3359   9.3547   9.3758   9.4125   9.4225
     9.4505   9.4921   9.4973   9.5169   9.5303   9.5424   9.5524   9.5537
     9.6140   9.6244   9.6508   9.6727   9.6823   9.7414   9.7484   9.7752
     9.8083   9.8252   9.8404   9.8481   9.9145   9.9319   9.9342   9.9741
     9.9752   9.9900   9.9947  10.0140  10.0230  10.0705  10.0920  10.0988
    10.1101  10.1291  10.1507  10.2055  10.2135  10.2251  10.2401  10.2583
    10.2724  10.3451  10.3983  10.4359  10.4975  10.5181  10.6193  10.6393
    10.6621  10.6879  10.7012  10.7080  10.7091  10.7462  10.7650  10.7676
    10.7943  10.7975  10.8016  10.8195  10.8381  10.8514  10.8575  10.8887
    10.9142  10.9292  10.9743  10.9752  10.9943  11.0068  11.0176  11.0298
    11.0408  11.0622  11.1090  11.1193

          k = 0.0000 0.0000 0.0047 (103427 PWs)   bands (ev):

   -21.1577 -20.8437 -20.7257 -20.6252 -20.3370 -20.1923 -19.8592 -19.7894
   -19.5743 -19.5320 -19.3636 -19.2982 -19.0423 -18.8107 -18.5622 -18.3783
   -18.2918 -18.1580 -18.0642 -17.7352 -17.6339 -17.5376 -17.5158 -17.2764
   -17.1040 -17.0527 -16.9625 -16.7078 -16.5078 -16.4024 -16.2152 -16.1192
   -15.9415 -15.9187 -15.6913 -15.5240 -15.2266 -14.9214 -14.8288 -14.6672
   -14.5092 -14.4452 -14.2936 -14.1828 -14.0571 -13.9822 -13.7898 -13.5901
   -13.4830 -12.9923 -12.9674 -12.7841 -12.6810 -12.6404 -12.4806 -12.3262
   -12.2167 -12.1558 -12.0342 -11.9495 -11.8579 -11.7933 -11.3886 -11.2682
   -10.9872 -10.8960 -10.8268 -10.7889 -10.5789 -10.5481 -10.4287 -10.3324
   -10.2900 -10.1072  -9.8763  -9.8479  -9.7144  -9.6467  -9.5590  -9.4677
    -9.3635  -9.2411  -9.2275  -9.1318  -9.0029  -8.9740  -8.8664  -8.8564
    -8.7818  -8.7154  -8.6563  -8.6235  -8.5954  -8.5145  -8.4537  -8.4040
    -8.3318  -8.3103  -8.2727  -8.2598  -8.2083  -8.1993  -8.1579  -8.1145
    -8.0590  -7.8722  -7.8613  -7.7852  -7.7294  -7.6901  -7.6575  -7.6245
    -7.5053  -7.3695  -7.3541  -7.2754  -7.1950  -7.1740  -7.1566  -7.0551
    -7.0208  -6.9052  -6.8351  -6.7844  -6.6390  -6.5572  -6.5253  -6.4038
    -6.2696  -6.2659  -6.1964  -6.0726  -6.0211  -6.0038  -5.9280  -5.8558
    -5.7763  -5.6832  -5.5920  -5.5618  -5.3384  -5.2842  -5.1713  -5.1340
    -5.0865  -4.9933  -4.9125  -4.7366  -4.6656  -4.5575  -4.3768  -4.3308
    -4.1095  -3.9435  -3.9092  -3.8196  -3.6498  -3.3677  -3.1472  -2.7597
    -2.0393  -1.7995  -0.9776  -0.6091  -0.3974  -0.2208  -0.1403  -0.0448
     0.1073   0.1724   0.4362   0.5611   0.7818   0.9248   0.9811   1.1540
     1.3165   1.3466   1.4499   1.5080   1.5660   1.6417   1.6869   1.7190
     1.7354   1.8534   1.9311   2.0315   2.0795   2.1006   2.1590   2.3232
     2.4622   2.4800   2.5821   2.6650   2.6933   2.7858   2.8219   2.8500
     2.9160   3.0066   3.0392   3.0565   3.1446   3.1580   3.1915   3.2367
     3.3160   3.3364   3.3452   3.3656   3.3943   3.4418   3.5312   3.5424
     3.5911   3.6467   3.6840   3.7200   3.7669   3.8531   3.8793   3.9510
     3.9792   3.9971   4.1579   4.1846   4.2191   4.2521   4.3054   4.3393
     4.3973   4.4343   4.4422   4.4979   4.5358   4.5478   4.5928   4.6167
     4.6677   4.7197   4.7262   4.7363   4.7935   4.8256   4.8333   4.8706
     4.8761   4.8804   4.9998   5.0187   5.0371   5.0462   5.0792   5.1347
     5.1703   5.1958   5.2094   5.2171   5.3351   5.3594   5.3932   5.4263
     5.4743   5.4759   5.4927   5.4949   5.5956   5.6215   5.6957   5.7109
     5.7600   5.7852   5.8353   5.8690   5.8917   5.9203   5.9534   5.9594
     6.0229   6.0259   6.0710   6.0846   6.0869   6.1322   6.1400   6.1757
     6.2037   6.2134   6.2588   6.2846   6.2931   6.3189   6.3452   6.3743
     6.3860   6.3978   6.4241   6.4437   6.4982   6.5287   6.5562   6.5887
     6.6019   6.6201   6.6470   6.6524   6.6634   6.6931   6.7461   6.7673
     6.7870   6.7998   6.8218   6.8386   6.9099   6.9124   6.9314   6.9582
     6.9671   6.9683   7.0060   7.0306   7.0675   7.0872   7.1048   7.1333
     7.1354   7.1742   7.2156   7.2207   7.2322   7.2651   7.3144   7.3513
     7.3658   7.3746   7.4064   7.4085   7.4318   7.4511   7.4523   7.4765
     7.5113   7.5269   7.5465   7.5689   7.6104   7.6575   7.6979   7.7213
     7.7476   7.7560   7.7729   7.7762   7.7915   7.8229   7.8674   7.8884
     7.9334   7.9439   7.9471   7.9725   7.9961   8.0205   8.0417   8.0865
     8.0973   8.1254   8.1706   8.1988   8.2707   8.2831   8.3118   8.3345
     8.3356   8.3876   8.4000   8.4402   8.5115   8.5126   8.5386   8.5407
     8.5653   8.5662   8.6041   8.6182   8.6387   8.6577   8.6837   8.6918
     8.7408   8.7541   8.7659   8.7967   8.8215   8.8615   8.8708   8.9033
     8.9361   8.9895   9.0009   9.0054   9.0214   9.0452   9.0636   9.0794
     9.0956   9.1270   9.1309   9.1735   9.1822   9.2087   9.2550   9.2553
     9.2884   9.3068   9.3181   9.3340   9.3767   9.3819   9.4191   9.4234
     9.4525   9.4782   9.5051   9.5218   9.5323   9.5430   9.5588   9.5694
     9.6189   9.6195   9.6350   9.6770   9.7109   9.7330   9.7511   9.7656
     9.8089   9.8169   9.8334   9.8418   9.9126   9.9226   9.9266   9.9479
     9.9629   9.9838   9.9929  10.0022  10.0318  10.0619  10.1069  10.1202
    10.1283  10.1486  10.1597  10.2064  10.2129  10.2394  10.2593  10.2755
    10.2907  10.3334  10.4101  10.4352  10.4796  10.4912  10.6033  10.6346
    10.6383  10.6818  10.6938  10.6954  10.7070  10.7390  10.7534  10.7790
    10.7872  10.7928  10.8051  10.8257  10.8332  10.8627  10.8717  10.8729
    10.9294  10.9412  10.9548  10.9790  10.9933  10.9998  11.0036  11.0429
    11.0592  11.0669  11.1050  11.1185

          k = 0.0000 0.0000 0.0059 (103441 PWs)   bands (ev):

   -21.1565 -20.8566 -20.7103 -20.6238 -20.3472 -20.1800 -19.8658 -19.8086
   -19.5574 -19.5266 -19.3563 -19.3188 -19.0179 -18.8108 -18.5742 -18.3820
   -18.2895 -18.1417 -18.1017 -17.6946 -17.6545 -17.5594 -17.5158 -17.2494
   -17.0853 -17.0599 -16.9684 -16.7176 -16.4993 -16.3922 -16.2144 -16.1223
   -15.9637 -15.9177 -15.6914 -15.5376 -15.2325 -14.9203 -14.8126 -14.6819
   -14.4928 -14.4213 -14.3063 -14.1749 -14.0590 -13.9684 -13.8002 -13.5797
   -13.4844 -13.0017 -12.9778 -12.7632 -12.7118 -12.6808 -12.5081 -12.3264
   -12.2286 -12.0956 -12.0258 -11.9456 -11.8279 -11.7818 -11.4019 -11.2560
   -11.0141 -10.8917 -10.8489 -10.7720 -10.5783 -10.5530 -10.4154 -10.3218
   -10.3004 -10.1151  -9.8743  -9.8325  -9.7074  -9.6676  -9.5692  -9.4767
    -9.3814  -9.2409  -9.2259  -9.1184  -8.9884  -8.9456  -8.8720  -8.8653
    -8.7749  -8.6967  -8.6912  -8.6220  -8.6080  -8.5403  -8.4628  -8.4080
    -8.3258  -8.3173  -8.2859  -8.2316  -8.2017  -8.1804  -8.1556  -8.0986
    -8.0609  -7.8701  -7.8603  -7.7734  -7.7311  -7.6846  -7.6614  -7.6535
    -7.4924  -7.3736  -7.3264  -7.2937  -7.1813  -7.1801  -7.1513  -7.0845
    -7.0080  -6.9233  -6.8351  -6.7529  -6.6482  -6.5578  -6.5190  -6.4129
    -6.2852  -6.2652  -6.2100  -6.0737  -6.0220  -6.0054  -5.9077  -5.8318
    -5.7828  -5.7251  -5.5922  -5.5486  -5.3057  -5.2950  -5.1696  -5.1607
    -5.0894  -4.9959  -4.8997  -4.7081  -4.6653  -4.5582  -4.3991  -4.3329
    -4.0924  -3.9528  -3.9056  -3.8308  -3.6313  -3.3753  -3.1473  -2.7653
    -2.0698  -1.7733  -0.9692  -0.6072  -0.3873  -0.2351  -0.1343  -0.0266
     0.1005   0.1806   0.4096   0.5563   0.7995   0.9234   0.9806   1.1558
     1.2784   1.3481   1.4511   1.5091   1.5502   1.6098   1.6715   1.7358
     1.7755   1.8433   1.9134   2.0469   2.0843   2.1197   2.2111   2.3081
     2.4612   2.4668   2.5815   2.6833   2.6991   2.7872   2.8089   2.8633
     2.9042   2.9900   3.0417   3.0438   3.1311   3.1766   3.1892   3.2411
     3.3118   3.3246   3.3369   3.3668   3.3939   3.4548   3.5465   3.5648
     3.5767   3.6440   3.7057   3.7247   3.7867   3.8363   3.8822   3.9225
     3.9818   3.9878   4.1555   4.2141   4.2165   4.2526   4.2901   4.3570
     4.3767   4.4286   4.4414   4.4851   4.5268   4.5605   4.5929   4.6234
     4.6506   4.7116   4.7333   4.7454   4.7957   4.8075   4.8504   4.8523
     4.8626   4.8921   4.9990   4.9992   5.0139   5.0337   5.1047   5.1206
     5.1500   5.1801   5.2098   5.2534   5.3563   5.3952   5.4163   5.4361
     5.4816   5.4817   5.4965   5.5300   5.6016   5.6332   5.6866   5.6984
     5.7495   5.7629   5.8008   5.8549   5.8934   5.9238   5.9391   5.9619
     5.9943   6.0270   6.0523   6.0723   6.0955   6.1321   6.1390   6.1691
     6.2039   6.2466   6.2508   6.2791   6.2871   6.3260   6.3406   6.3848
     6.3989   6.4179   6.4369   6.4562   6.4916   6.5200   6.5584   6.5990
     6.6032   6.6220   6.6364   6.6579   6.6884   6.7006   6.7558   6.7623
     6.7918   6.8070   6.8212   6.8443   6.8796   6.9241   6.9383   6.9527
     6.9622   6.9774   7.0038   7.0162   7.0721   7.0815   7.0854   7.1317
     7.1523   7.1611   7.2037   7.2172   7.2426   7.2575   7.3152   7.3330
     7.3459   7.3621   7.3851   7.4109   7.4434   7.4463   7.4681   7.4766
     7.4955   7.5382   7.5493   7.5676   7.5921   7.6484   7.6854   7.7202
     7.7622   7.7684   7.7709   7.7769   7.8100   7.8309   7.8979   7.9131
     7.9419   7.9617   7.9759   7.9915   7.9918   8.0149   8.0408   8.0891
     8.1083   8.1545   8.1810   8.1810   8.2535   8.2819   8.2850   8.3254
     8.3295   8.3757   8.3868   8.4415   8.4762   8.4928   8.5195   8.5525
     8.5621   8.5827   8.5846   8.5942   8.6447   8.6639   8.6914   8.7140
     8.7353   8.7561   8.7896   8.7928   8.8325   8.8761   8.8871   8.9079
     8.9402   9.0045   9.0080   9.0140   9.0236   9.0309   9.0570   9.0694
     9.0733   9.0882   9.1277   9.1582   9.1696   9.1882   9.2535   9.2702
     9.2933   9.3180   9.3269   9.3401   9.3756   9.3841   9.4122   9.4416
     9.4479   9.4693   9.5083   9.5137   9.5419   9.5521   9.5611   9.5856
     9.6152   9.6281   9.6333   9.6744   9.7011   9.7444   9.7477   9.7591
     9.8000   9.8092   9.8281   9.8733   9.9009   9.9113   9.9182   9.9185
     9.9463   9.9824   9.9847   9.9934  10.0391  10.0533  10.1233  10.1474
    10.1477  10.1590  10.1709  10.1887  10.2158  10.2589  10.2836  10.3050
    10.3111  10.3214  10.4156  10.4473  10.4617  10.4674  10.5815  10.6062
    10.6219  10.6610  10.6909  10.7011  10.7043  10.7280  10.7493  10.7767
    10.7794  10.7883  10.8143  10.8273  10.8358  10.8472  10.8769  10.8913
    10.9168  10.9252  10.9554  10.9836  10.9876  11.0010  11.0065  11.0664
    11.0673  11.0800  11.1023  11.1067

          k = 0.0000 0.0000 0.0070 (103457 PWs)   bands (ev):

   -21.1549 -20.8693 -20.6947 -20.6220 -20.3577 -20.1667 -19.8786 -19.8213
   -19.5577 -19.5045 -19.3566 -19.3312 -18.9927 -18.8109 -18.5873 -18.3880
   -18.2841 -18.1506 -18.1125 -17.6821 -17.6504 -17.5823 -17.5125 -17.2240
   -17.0761 -17.0555 -16.9760 -16.7242 -16.4973 -16.3761 -16.2144 -16.1255
   -15.9894 -15.9164 -15.6920 -15.5538 -15.2385 -14.9246 -14.7897 -14.6940
   -14.4770 -14.3943 -14.3186 -14.1686 -14.0585 -13.9539 -13.8114 -13.5694
   -13.4850 -13.0207 -12.9783 -12.7699 -12.7402 -12.6992 -12.5363 -12.3292
   -12.2390 -12.0405 -12.0135 -11.9400 -11.7944 -11.7686 -11.4145 -11.2453
   -11.0416 -10.8916 -10.8646 -10.7551 -10.6000 -10.5447 -10.3971 -10.3155
   -10.3086 -10.1186  -9.8809  -9.8080  -9.7048  -9.7006  -9.5668  -9.4883
    -9.3942  -9.2401  -9.2240  -9.1082  -8.9761  -8.9193  -8.8874  -8.8567
    -8.7723  -8.7212  -8.6776  -8.6271  -8.6201  -8.5607  -8.4732  -8.4114
    -8.3435  -8.3028  -8.2993  -8.2121  -8.1975  -8.1621  -8.1456  -8.0818
    -8.0590  -7.8732  -7.8515  -7.7605  -7.7360  -7.6932  -7.6788  -7.6505
    -7.4793  -7.3840  -7.3121  -7.2927  -7.1877  -7.1667  -7.1475  -7.1137
    -6.9942  -6.9424  -6.8360  -6.7210  -6.6578  -6.5585  -6.5198  -6.4140
    -6.3019  -6.2827  -6.2057  -6.0802  -6.0275  -5.9998  -5.8858  -5.8102
    -5.7888  -5.7639  -5.5925  -5.5340  -5.3273  -5.2536  -5.2007  -5.1555
    -5.0931  -4.9992  -4.8860  -4.6930  -4.6509  -4.5603  -4.4194  -4.3354
    -4.0774  -3.9643  -3.9065  -3.8342  -3.6131  -3.3841  -3.1476  -2.7720
    -2.1004  -1.7481  -0.9592  -0.6046  -0.3754  -0.2508  -0.1249  -0.0083
     0.0942   0.1881   0.3824   0.5502   0.8127   0.9255   0.9797   1.1580
     1.2383   1.3537   1.4526   1.5098   1.5358   1.5584   1.6726   1.7504
     1.8207   1.8354   1.8960   2.0627   2.0886   2.1408   2.2369   2.3181
     2.4529   2.4570   2.5819   2.7022   2.7050   2.7913   2.7913   2.8772
     2.8949   2.9734   3.0283   3.0441   3.1167   3.1889   3.1951   3.2448
     3.2791   3.3241   3.3267   3.3798   3.4035   3.4732   3.5550   3.5674
     3.5873   3.6424   3.6929   3.7642   3.8056   3.8098   3.8890   3.8945
     3.9863   3.9871   4.1507   4.2068   4.2386   4.2550   4.2825   4.3527
     4.3592   4.4381   4.4385   4.4748   4.5164   4.5743   4.5833   4.6342
     4.6378   4.7052   4.7145   4.7604   4.7919   4.7975   4.8364   4.8434
     4.8763   4.9117   4.9696   4.9949   4.9957   5.0275   5.1107   5.1289
     5.1350   5.1643   5.2158   5.2906   5.3770   5.4309   5.4387   5.4463
     5.4806   5.4851   5.5023   5.5665   5.6086   5.6436   5.6543   5.7018
     5.7407   5.7565   5.7667   5.8405   5.8967   5.9226   5.9277   5.9631
     5.9654   6.0187   6.0325   6.0700   6.0961   6.1122   6.1251   6.1837
     6.2216   6.2231   6.2650   6.2693   6.2933   6.3309   6.3486   6.3889
     6.4208   6.4263   6.4634   6.4790   6.4886   6.5134   6.5585   6.5799
     6.6070   6.6214   6.6410   6.6690   6.7108   6.7154   6.7500   6.7710
     6.7909   6.8115   6.8355   6.8474   6.8552   6.9010   6.9359   6.9617
     6.9631   6.9872   7.0006   7.0298   7.0479   7.0711   7.0866   7.1297
     7.1477   7.1711   7.1956   7.2126   7.2408   7.2580   7.3059   7.3115
     7.3183   7.3596   7.3674   7.4120   7.4407   7.4593   7.4628   7.4790
     7.4934   7.5304   7.5561   7.5675   7.5904   7.6477   7.6639   7.7071
     7.7581   7.7750   7.7866   7.8031   7.8371   7.8462   7.9079   7.9356
     7.9529   7.9740   7.9813   8.0009   8.0076   8.0400   8.0452   8.0901
     8.1162   8.1423   8.1957   8.2127   8.2341   8.2581   8.2726   8.3142
     8.3239   8.3671   8.3765   8.4305   8.4442   8.4743   8.5051   8.5297
     8.5650   8.5663   8.5734   8.6226   8.6525   8.6655   8.6960   8.7308
     8.7367   8.7502   8.8028   8.8116   8.8412   8.8812   8.9112   8.9135
     8.9400   8.9876   8.9882   9.0106   9.0181   9.0213   9.0367   9.0598
     9.0666   9.1106   9.1303   9.1398   9.1709   9.1805   9.2507   9.2656
     9.3003   9.3167   9.3271   9.3651   9.3670   9.3840   9.3949   9.4578
     9.4642   9.4678   9.5035   9.5108   9.5501   9.5576   9.5697   9.5952
     9.5962   9.6333   9.6382   9.6715   9.6966   9.7383   9.7478   9.7652
     9.7863   9.8022   9.8297   9.8760   9.8873   9.9087   9.9091   9.9190
     9.9340   9.9678   9.9864   9.9872  10.0287  10.0634  10.1288  10.1404
    10.1499  10.1677  10.1932  10.2073  10.2282  10.2737  10.3039  10.3063
    10.3372  10.3472  10.4081  10.4430  10.4475  10.4786  10.5556  10.5696
    10.5979  10.6491  10.6877  10.6971  10.7058  10.7204  10.7511  10.7619
    10.7648  10.7914  10.8137  10.8229  10.8372  10.8449  10.8733  10.8848
    10.9064  10.9167  10.9659  10.9806  10.9888  11.0129  11.0149  11.0597
    11.0874  11.0905  11.0938  11.0989

          k = 0.0000 0.0000 0.0082 (103435 PWs)   bands (ev):

   -21.1531 -20.8818 -20.6788 -20.6198 -20.3685 -20.1529 -19.8973 -19.8276
   -19.5637 -19.4769 -19.3740 -19.3256 -18.9672 -18.8108 -18.6010 -18.3955
   -18.2765 -18.1869 -18.0944 -17.7076 -17.6193 -17.5959 -17.5086 -17.2004
   -17.0864 -17.0305 -16.9847 -16.7272 -16.5007 -16.3557 -16.2156 -16.1284
   -16.0177 -15.9148 -15.6933 -15.5721 -15.2443 -14.9340 -14.7611 -14.7030
   -14.4624 -14.3655 -14.3291 -14.1644 -14.0554 -13.9391 -13.8229 -13.5601
   -13.4843 -13.0421 -12.9761 -12.8283 -12.7216 -12.7176 -12.5632 -12.3351
   -12.2476 -12.0202 -11.9674 -11.9326 -11.7590 -11.7532 -11.4261 -11.2372
   -11.0677 -10.9060 -10.8641 -10.7382 -10.6253 -10.5415 -10.3759 -10.3279
   -10.2986 -10.1171  -9.8883  -9.7829  -9.7493  -9.6966  -9.5586  -9.5009
    -9.4022  -9.2386  -9.2218  -9.1004  -8.9654  -8.9040  -8.9025  -8.8361
    -8.7877  -8.7317  -8.6582  -8.6519  -8.6179  -8.5755  -8.4833  -8.4145
    -8.3629  -8.3128  -8.2889  -8.2148  -8.1769  -8.1622  -8.1179  -8.0643
    -8.0526  -7.8760  -7.8397  -7.7483  -7.7469  -7.7063  -7.6961  -7.6341
    -7.4666  -7.3950  -7.3298  -7.2585  -7.1967  -7.1545  -7.1454  -7.1394
    -6.9811  -6.9610  -6.8374  -6.6892  -6.6681  -6.5591  -6.5276  -6.4077
    -6.3191  -6.3078  -6.1937  -6.0899  -6.0361  -5.9897  -5.8643  -5.8195
    -5.7935  -5.7709  -5.5924  -5.5184  -5.3510  -5.2346  -5.2115  -5.1485
    -5.0973  -5.0030  -4.8716  -4.6951  -4.6196  -4.5647  -4.4363  -4.3382
    -4.0652  -3.9778  -3.9144  -3.8273  -3.5957  -3.3938  -3.1482  -2.7798
    -2.1309  -1.7238  -0.9476  -0.6012  -0.3620  -0.2671  -0.1127   0.0097
     0.0886   0.1942   0.3559   0.5430   0.8181   0.9335   0.9775   1.1605
     1.2009   1.3593   1.4540   1.5047   1.5074   1.5254   1.6776   1.7600
     1.8325   1.8662   1.8792   2.0767   2.0957   2.1629   2.2267   2.3629
     2.4387   2.4508   2.5830   2.7109   2.7214   2.7699   2.7981   2.8877
     2.8918   2.9570   3.0114   3.0457   3.1029   3.1899   3.2127   3.2429
     3.2462   3.3175   3.3231   3.3942   3.4204   3.4948   3.5423   3.5773
     3.6080   3.6411   3.6832   3.7732   3.8128   3.8175   3.8630   3.9066
     3.9872   3.9950   4.1421   4.2005   4.2306   4.2625   4.2990   4.3271
     4.3490   4.4306   4.4531   4.4692   4.5099   4.5708   4.5868   4.6189
     4.6520   4.6830   4.7014   4.7676   4.7710   4.7969   4.8387   4.8395
     4.8954   4.9228   4.9337   4.9902   4.9963   5.0165   5.0985   5.1178
     5.1486   5.1661   5.2261   5.3280   5.3963   5.4521   5.4626   5.4636
     5.4811   5.4855   5.5118   5.5931   5.5947   5.6168   5.6855   5.7070
     5.7351   5.7372   5.7500   5.8276   5.8999   5.9024   5.9302   5.9352
     5.9691   5.9891   6.0384   6.0479   6.0822   6.1128   6.1188   6.1826
     6.1917   6.2402   6.2652   6.2749   6.3092   6.3240   6.3478   6.4065
     6.4399   6.4424   6.4839   6.4964   6.4990   6.5144   6.5569   6.5738
     6.5932   6.6259   6.6453   6.6772   6.7244   6.7315   6.7455   6.7784
     6.7972   6.8176   6.8220   6.8462   6.8722   6.8727   6.9336   6.9608
     6.9628   6.9857   7.0090   7.0266   7.0435   7.0697   7.0870   7.1324
     7.1329   7.1734   7.1990   7.2062   7.2331   7.2523   7.2819   7.2902
     7.3183   7.3530   7.3587   7.4167   7.4314   7.4554   7.4638   7.4764
     7.4985   7.5215   7.5350   7.5696   7.6131   7.6205   7.6820   7.6940
     7.7517   7.7843   7.8091   7.8308   7.8430   7.8858   7.9058   7.9333
     7.9562   7.9833   7.9943   8.0101   8.0309   8.0572   8.0766   8.0912
     8.1216   8.1346   8.2026   8.2289   8.2340   8.2524   8.2529   8.3037
     8.3200   8.3424   8.3725   8.4073   8.4378   8.4561   8.4852   8.5059
     8.5454   8.5623   8.5668   8.6533   8.6565   8.6693   8.7025   8.7284
     8.7423   8.7599   8.8148   8.8309   8.8473   8.8832   8.9153   8.9196
     8.9355   8.9513   8.9681   8.9855   9.0153   9.0170   9.0472   9.0594
     9.0745   9.0979   9.1178   9.1552   9.1888   9.1957   9.2467   9.2607
     9.2705   9.3124   9.3387   9.3512   9.3769   9.3856   9.4166   9.4512
     9.4664   9.4775   9.5139   9.5238   9.5461   9.5523   9.5841   9.5859
     9.5947   9.6185   9.6502   9.6548   9.7122   9.7246   9.7614   9.7687
     9.7859   9.7883   9.8322   9.8503   9.8596   9.8995   9.9059   9.9068
     9.9539   9.9584   9.9915   9.9925  10.0300  10.0709  10.0863  10.1418
    10.1647  10.1880  10.1978  10.2214  10.2664  10.2839  10.3158  10.3193
    10.3514  10.3836  10.3955  10.4364  10.4432  10.5067  10.5274  10.5309
    10.5713  10.6390  10.6778  10.6868  10.7069  10.7198  10.7409  10.7477
    10.7596  10.7868  10.7970  10.8157  10.8288  10.8548  10.8620  10.8693
    10.9155  10.9244  10.9697  10.9752  10.9945  11.0199  11.0293  11.0535
    11.0665  11.0885  11.1023  11.1148

          k = 0.0000 0.0000 0.0094 (103429 PWs)   bands (ev):

   -21.1511 -20.8940 -20.6630 -20.6170 -20.3793 -20.1386 -19.9193 -19.8300
   -19.5712 -19.4487 -19.3954 -19.3145 -18.9421 -18.8102 -18.6150 -18.4039
   -18.2685 -18.2238 -18.0735 -17.7355 -17.6307 -17.5661 -17.5035 -17.1784
   -17.1006 -17.0047 -16.9900 -16.7269 -16.5078 -16.3330 -16.2187 -16.1311
   -16.0474 -15.9131 -15.6960 -15.5915 -15.2498 -14.9477 -14.7287 -14.7080
   -14.4496 -14.3491 -14.3233 -14.1625 -14.0494 -13.9242 -13.8346 -13.5526
   -13.4815 -13.0640 -12.9730 -12.8878 -12.7412 -12.7023 -12.5866 -12.3441
   -12.2543 -12.0139 -11.9238 -11.9079 -11.7385 -11.7202 -11.4363 -11.2337
   -11.0901 -10.9269 -10.8563 -10.7214 -10.6521 -10.5437 -10.3576 -10.3417
   -10.2834 -10.1111  -9.8952  -9.7988  -9.7597  -9.6934  -9.5491  -9.5123
    -9.4055  -9.2364  -9.2192  -9.0947  -8.9568  -8.9173  -8.8972  -8.8204
    -8.8089  -8.7241  -8.6768  -8.6384  -8.6153  -8.5877  -8.4920  -8.4173
    -8.3833  -8.3262  -8.2758  -8.2230  -8.1646  -8.1579  -8.0889  -8.0464
    -8.0408  -7.8776  -7.8255  -7.7698  -7.7332  -7.7203  -7.7037  -7.6161
    -7.4553  -7.4062  -7.3457  -7.2244  -7.2072  -7.1748  -7.1451  -7.1312
    -6.9842  -6.9636  -6.8387  -6.6793  -6.6582  -6.5592  -6.5397  -6.3987
    -6.3364  -6.3323  -6.1800  -6.1007  -6.0471  -5.9772  -5.8581  -5.8451
    -5.7960  -5.7477  -5.5916  -5.5022  -5.3765  -5.2657  -5.1755  -5.1380
    -5.1021  -5.0074  -4.8565  -4.7035  -4.5840  -4.5711  -4.4483  -4.3414
    -4.0559  -3.9932  -3.9272  -3.8123  -3.5796  -3.4036  -3.1489  -2.7886
    -2.1610  -1.7006  -0.9345  -0.5969  -0.3477  -0.2830  -0.0984   0.0269
     0.0843   0.1977   0.3320   0.5348   0.8151   0.9472   0.9723   1.1635
     1.1688   1.3623   1.4538   1.4549   1.4984   1.5230   1.6844   1.7616
     1.8370   1.8637   1.9107   2.0855   2.1086   2.1855   2.2061   2.4113
     2.4245   2.4491   2.5847   2.7164   2.7392   2.7475   2.8070   2.8813
     2.9069   2.9410   2.9947   3.0455   3.0911   3.1917   3.2073   3.2278
     3.2427   3.3085   3.3265   3.4094   3.4408   3.5181   3.5266   3.5876
     3.6220   3.6389   3.6814   3.7458   3.8048   3.8526   3.8653   3.9174
     3.9892   4.0055   4.1291   4.1968   4.2128   4.2655   4.2975   4.3324
     4.3345   4.4192   4.4522   4.4679   4.5119   4.5644   4.5920   4.6091
     4.6331   4.6760   4.7007   4.7472   4.7630   4.7964   4.8435   4.8538
     4.8976   4.9106   4.9226   4.9931   4.9937   5.0162   5.0791   5.1231
     5.1332   5.1971   5.2395   5.3648   5.4131   5.4577   5.4737   5.4783
     5.4835   5.5028   5.5259   5.5486   5.6128   5.6260   5.6957   5.7041
     5.7352   5.7427   5.7439   5.8156   5.8764   5.9013   5.9133   5.9271
     5.9630   5.9782   6.0131   6.0459   6.0799   6.0977   6.1275   6.1595
     6.1673   6.2504   6.2595   6.3038   6.3085   6.3287   6.3393   6.4137
     6.4567   6.4649   6.4886   6.5064   6.5165   6.5313   6.5660   6.5772
     6.5845   6.6309   6.6465   6.6763   6.7181   6.7385   6.7535   6.7777
     6.8115   6.8162   6.8271   6.8367   6.8683   6.8892   6.9283   6.9565
     6.9640   6.9681   6.9877   7.0463   7.0563   7.0708   7.0871   7.1162
     7.1429   7.1669   7.1703   7.2174   7.2294   7.2438   7.2648   7.2749
     7.3275   7.3404   7.3592   7.4171   7.4223   7.4521   7.4528   7.4859
     7.4929   7.5111   7.5208   7.5704   7.5732   7.6457   7.6934   7.7112
     7.7470   7.7934   7.8276   7.8524   7.8571   7.8882   7.9206   7.9427
     7.9459   7.9873   8.0067   8.0250   8.0452   8.0676   8.1052   8.1113
     8.1283   8.1426   8.1900   8.2173   8.2256   8.2506   8.2866   8.2923
     8.3051   8.3197   8.3730   8.3999   8.4277   8.4384   8.4552   8.4938
     8.5277   8.5476   8.5679   8.6430   8.6673   8.7034   8.7078   8.7263
     8.7340   8.7837   8.8185   8.8396   8.8471   8.8803   8.9016   8.9112
     8.9148   8.9300   8.9647   8.9920   9.0161   9.0205   9.0514   9.0610
     9.0706   9.0945   9.1089   9.1494   9.2031   9.2287   9.2412   9.2503
     9.2631   9.3021   9.3393   9.3537   9.3794   9.3872   9.4253   9.4557
     9.4642   9.4948   9.5179   9.5283   9.5418   9.5586   9.5628   9.5902
     9.6030   9.6221   9.6364   9.6627   9.7085   9.7161   9.7571   9.7702
     9.7939   9.8046   9.8180   9.8218   9.8524   9.8847   9.8905   9.9032
     9.9418   9.9475   9.9895  10.0219  10.0320  10.0506  10.0968  10.1287
    10.1866  10.2017  10.2086  10.2384  10.2845  10.3059  10.3170  10.3338
    10.3508  10.3912  10.4198  10.4458  10.4534  10.4926  10.4941  10.5364
    10.5482  10.6248  10.6649  10.6708  10.7072  10.7139  10.7214  10.7382
    10.7576  10.7596  10.7924  10.8085  10.8157  10.8547  10.8647  10.8714
    10.9207  10.9377  10.9653  10.9710  10.9996  11.0280  11.0395  11.0464
    11.0498  11.0849  11.1114  11.1122

          k = 0.0000 0.0000 0.0106 (103431 PWs)   bands (ev):

   -21.1487 -20.9059 -20.6473 -20.6135 -20.3900 -20.1242 -19.9426 -19.8305
   -19.5791 -19.4308 -19.4068 -19.3018 -18.9183 -18.8084 -18.6289 -18.4128
   -18.2740 -18.2463 -18.0521 -17.7641 -17.6503 -17.5328 -17.4928 -17.1586
   -17.1168 -17.0065 -16.9648 -16.7236 -16.5174 -16.3101 -16.2237 -16.1355
   -16.0755 -15.9113 -15.7009 -15.6106 -15.2551 -14.9646 -14.7137 -14.6893
   -14.4394 -14.3547 -14.2911 -14.1628 -14.0408 -13.9095 -13.8463 -13.5471
   -13.4763 -13.0862 -12.9699 -12.9471 -12.7683 -12.6870 -12.6039 -12.3558
   -12.2596 -12.0087 -11.9139 -11.8476 -11.7213 -11.6817 -11.4448 -11.2377
   -11.1055 -10.9487 -10.8470 -10.7048 -10.6797 -10.5500 -10.3608 -10.3407
   -10.2614 -10.1009  -9.9027  -9.8489  -9.7423  -9.6898  -9.5413  -9.5205
    -9.4036  -9.2336  -9.2162  -9.0909  -8.9507  -8.9317  -8.8946  -8.8517
    -8.7943  -8.7105  -8.6917  -8.6186  -8.6121  -8.5996  -8.4983  -8.4211
    -8.4031  -8.3395  -8.2640  -8.2340  -8.1654  -8.1441  -8.0629  -8.0281
    -8.0223  -7.8775  -7.8091  -7.7962  -7.7351  -7.7188  -7.7057  -7.5973
    -7.4476  -7.4173  -7.3577  -7.2193  -7.2045  -7.1892  -7.1471  -7.1135
    -7.0014  -6.9524  -6.8393  -6.6919  -6.6297  -6.5574  -6.5532  -6.3973
    -6.3535  -6.3466  -6.1664  -6.1118  -6.0599  -5.9641  -5.8987  -5.8310
    -5.7941  -5.7215  -5.5898  -5.4857  -5.4036  -5.2959  -5.1547  -5.1127
    -5.1076  -5.0123  -4.8410  -4.7157  -4.5814  -4.5452  -4.4552  -4.3449
    -4.0500  -4.0100  -3.9420  -3.7923  -3.5658  -3.4126  -3.1500  -2.7984
    -2.1906  -1.6787  -0.9200  -0.5916  -0.3350  -0.2960  -0.0822   0.0419
     0.0825   0.1961   0.3132   0.5259   0.8057   0.9589   0.9668   1.1447
     1.1668   1.3537   1.4151   1.4543   1.4879   1.5248   1.6926   1.7562
     1.8395   1.8580   1.9526   2.0910   2.1259   2.1846   2.2086   2.4104
     2.4196   2.4879   2.5866   2.7193   2.7220   2.7612   2.8172   2.8739
     2.9224   2.9254   2.9797   3.0420   3.0831   3.1722   3.1940   3.2243
     3.2522   3.2991   3.3355   3.4250   3.4628   3.5108   3.5415   3.5953
     3.6247   3.6328   3.6931   3.7176   3.7835   3.8836   3.8944   3.9266
     3.9919   4.0185   4.1129   4.1925   4.1954   4.2664   4.2721   4.3187
     4.3643   4.4063   4.4361   4.4693   4.5064   4.5725   4.5816   4.5943
     4.6118   4.6829   4.7035   4.7299   4.7492   4.7990   4.8522   4.8612
     4.8739   4.9005   4.9350   4.9744   5.0035   5.0381   5.0609   5.1180
     5.1363   5.2271   5.2552   5.3998   5.4261   5.4550   5.4656   5.4747
     5.4934   5.5185   5.5324   5.5468   5.6291   5.6364   5.6677   5.7097
     5.7308   5.7376   5.7907   5.8027   5.8468   5.8933   5.8963   5.9191
     5.9561   5.9715   5.9923   6.0542   6.0773   6.0809   6.1286   6.1360
     6.1428   6.2504   6.2644   6.2933   6.3251   6.3385   6.3468   6.4166
     6.4527   6.4879   6.4893   6.4982   6.5506   6.5647   6.5677   6.5741
     6.6110   6.6343   6.6448   6.6713   6.6953   6.7415   6.7644   6.7763
     6.8131   6.8227   6.8285   6.8453   6.8829   6.8985   6.9219   6.9245
     6.9594   6.9670   6.9877   7.0472   7.0667   7.0729   7.0980   7.0999
     7.1311   7.1571   7.1648   7.2006   7.2355   7.2503   7.2563   7.2656
     7.3290   7.3370   7.3632   7.3980   7.4243   7.4443   7.4580   7.4717
     7.4875   7.5010   7.5261   7.5266   7.5809   7.6440   7.7102   7.7425
     7.7547   7.7959   7.8363   7.8673   7.8697   7.8795   7.9173   7.9525
     7.9776   7.9905   8.0123   8.0349   8.0382   8.0782   8.1317   8.1335
     8.1474   8.1655   8.1789   8.1990   8.2101   8.2437   8.2743   8.2886
     8.3183   8.3370   8.3736   8.3932   8.4103   8.4214   8.4313   8.4866
     8.5144   8.5280   8.5683   8.6298   8.6799   8.6998   8.7195   8.7299
     8.7386   8.8004   8.8079   8.8281   8.8603   8.8697   8.8763   8.8860
     8.9161   8.9353   8.9625   9.0053   9.0240   9.0255   9.0450   9.0576
     9.0760   9.0773   9.1126   9.1611   9.1803   9.2236   9.2340   9.2769
     9.2841   9.3035   9.3312   9.3601   9.3814   9.3884   9.4201   9.4452
     9.4818   9.5071   9.5152   9.5220   9.5259   9.5550   9.5772   9.6072
     9.6089   9.6216   9.6313   9.6709   9.6943   9.7164   9.7478   9.7488
     9.7917   9.7965   9.8129   9.8315   9.8546   9.8649   9.8828   9.9009
     9.9316   9.9462   9.9671  10.0204  10.0251  10.0371  10.1176  10.1539
    10.2092  10.2128  10.2293  10.2475  10.2910  10.3024  10.3217  10.3306
    10.3553  10.4120  10.4485  10.4492  10.4565  10.4793  10.4805  10.5309
    10.5541  10.6101  10.6478  10.6503  10.6893  10.7071  10.7097  10.7290
    10.7298  10.7511  10.7925  10.8078  10.8109  10.8485  10.8738  10.8797
    10.9252  10.9374  10.9628  10.9725  10.9997  11.0256  11.0347  11.0383
    11.0622  11.0856  11.1163  11.1172

          k = 0.0000 0.0000 0.0117 (103457 PWs)   bands (ev):

   -21.1461 -20.9175 -20.6328 -20.6083 -20.4006 -20.1098 -19.9661 -19.8299
   -19.5872 -19.4476 -19.3832 -19.2883 -18.8974 -18.8042 -18.6424 -18.4218
   -18.3074 -18.2401 -18.0310 -17.7921 -17.6700 -17.5154 -17.4657 -17.1479
   -17.1278 -17.0141 -16.9308 -16.7179 -16.5285 -16.2886 -16.2304 -16.1487
   -16.0939 -15.9099 -15.7094 -15.6274 -15.2606 -14.9838 -14.7135 -14.6503
   -14.4333 -14.3596 -14.2540 -14.1648 -14.0301 -13.8955 -13.8579 -13.5433
   -13.4692 -13.1085 -13.0065 -12.9669 -12.7987 -12.6785 -12.6116 -12.3695
   -12.2641 -12.0032 -11.9034 -11.7878 -11.7029 -11.6428 -11.4511 -11.2507
   -11.1120 -10.9705 -10.8383 -10.7095 -10.6868 -10.5589 -10.3757 -10.3344
   -10.2337 -10.0872  -9.9213  -9.8877  -9.7355  -9.6820  -9.5371  -9.5234
    -9.3961  -9.2304  -9.2130  -9.0894  -8.9478  -8.9457  -8.9023  -8.8745
    -8.7983  -8.7020  -8.6800  -8.6125  -8.6095  -8.5976  -8.5015  -8.4343
    -8.4130  -8.3524  -8.2568  -8.2440  -8.1647  -8.1348  -8.0419  -8.0096
    -7.9969  -7.8758  -7.8244  -7.7905  -7.7490  -7.7054  -7.7051  -7.5783
    -7.4465  -7.4282  -7.3626  -7.2331  -7.2326  -7.1564  -7.1520  -7.0941
    -7.0175  -6.9427  -6.8386  -6.7062  -6.6080  -6.5663  -6.5495  -6.4141
    -6.3698  -6.3411  -6.1535  -6.1226  -6.0741  -5.9576  -5.9323  -5.8241
    -5.7864  -5.6947  -5.5863  -5.4691  -5.4321  -5.3246  -5.1471  -5.1136
    -5.0749  -5.0178  -4.8253  -4.7314  -4.5909  -4.5076  -4.4575  -4.3484
    -4.0489  -4.0269  -3.9567  -3.7694  -3.5560  -3.4192  -3.1515  -2.8093
    -2.2196  -1.6580  -0.9042  -0.5852  -0.3336  -0.2962  -0.0645   0.0512
     0.0870   0.1873   0.3023   0.5162   0.7920   0.9424   0.9823   1.1312
     1.1706   1.3198   1.4028   1.4499   1.4808   1.5279   1.7021   1.7470
     1.8267   1.8725   1.9894   2.0955   2.1447   2.1663   2.2321   2.3967
     2.4089   2.5450   2.5886   2.6928   2.7277   2.7804   2.8282   2.8642
     2.9102   2.9379   2.9679   3.0350   3.0793   3.1368   3.1969   3.2129
     3.2667   3.2901   3.3481   3.4404   3.4847   3.4956   3.5622   3.6004
     3.6189   3.6214   3.6913   3.7142   3.7707   3.9050   3.9325   3.9383
     3.9949   4.0337   4.0948   4.1716   4.1954   4.2412   4.2728   4.3026
     4.3843   4.4041   4.4124   4.4726   4.4906   4.5387   4.5671   4.6091
     4.6155   4.6691   4.7087   4.7327   4.7346   4.8027   4.8272   4.8598
     4.8817   4.8949   4.9353   4.9698   5.0182   5.0445   5.0656   5.1033
     5.1547   5.2555   5.2722   5.4141   5.4289   5.4401   5.4566   5.4807
     5.4981   5.5180   5.5589   5.5715   5.6232   5.6476   5.6638   5.7142
     5.7224   5.7369   5.7861   5.8168   5.8409   5.8720   5.8830   5.9173
     5.9462   5.9559   5.9973   6.0615   6.0628   6.0697   6.1071   6.1153
     6.1422   6.2373   6.2768   6.2814   6.3162   6.3552   6.3741   6.4142
     6.4476   6.4754   6.4981   6.5105   6.5570   6.5764   6.5890   6.6046
     6.6296   6.6346   6.6499   6.6728   6.6758   6.7442   6.7666   6.7815
     6.8026   6.8260   6.8442   6.8554   6.8839   6.8925   6.9090   6.9206
     6.9660   6.9686   6.9870   7.0393   7.0710   7.0724   7.0780   7.0894
     7.1243   7.1550   7.1830   7.1836   7.2348   7.2498   7.2503   7.2801
     7.3178   7.3415   7.3725   7.3758   7.4247   7.4384   7.4539   7.4653
     7.4703   7.4820   7.5038   7.5404   7.5897   7.6353   7.7116   7.7728
     7.7860   7.7864   7.8361   7.8526   7.8861   7.8906   7.9193   7.9612
     7.9964   8.0071   8.0163   8.0304   8.0446   8.0853   8.1438   8.1576
     8.1610   8.1663   8.1889   8.1950   8.2025   8.2166   8.2681   8.3025
     8.3293   8.3651   8.3740   8.3804   8.3916   8.4065   8.4285   8.4792
     8.5009   8.5106   8.5682   8.6158   8.6715   8.6933   8.7103   8.7208
     8.7718   8.7827   8.8236   8.8295   8.8428   8.8540   8.8726   8.8736
     8.9224   8.9401   8.9749   9.0001   9.0153   9.0301   9.0405   9.0488
     9.0841   9.0921   9.1069   9.1507   9.1916   9.2243   9.2249   9.2617
     9.2997   9.3249   9.3449   9.3504   9.3891   9.4002   9.4169   9.4319
     9.4837   9.4904   9.4980   9.5278   9.5454   9.5607   9.5848   9.6009
     9.6257   9.6341   9.6382   9.6615   9.6940   9.7103   9.7248   9.7472
     9.7661   9.7770   9.8015   9.8453   9.8536   9.8729   9.8799   9.8971
     9.9217   9.9364   9.9615   9.9990  10.0193  10.0408  10.1149  10.2157
    10.2225  10.2323  10.2476  10.2486  10.2829  10.2931  10.3089  10.3412
    10.3719  10.4135  10.4174  10.4361  10.4916  10.4964  10.5079  10.5274
    10.5509  10.5990  10.6280  10.6319  10.6654  10.6734  10.7045  10.7151
    10.7348  10.7418  10.7910  10.8119  10.8125  10.8511  10.8813  10.8826
    10.9186  10.9300  10.9661  10.9845  10.9907  11.0114  11.0291  11.0429
    11.0751  11.0927  11.0995  11.1110

          k = 0.0000 0.0000 0.0129 (103443 PWs)   bands (ev):

   -21.1432 -20.9287 -20.6212 -20.5997 -20.4110 -20.0959 -19.9890 -19.8287
   -19.5952 -19.4703 -19.3535 -19.2741 -18.8818 -18.7954 -18.6550 -18.4308
   -18.3446 -18.2296 -18.0113 -17.8181 -17.6895 -17.5093 -17.4274 -17.1639
   -17.1159 -17.0202 -16.8949 -16.7100 -16.5406 -16.2716 -16.2368 -16.1759
   -16.0965 -15.9094 -15.7222 -15.6401 -15.2665 -15.0041 -14.7118 -14.6086
   -14.4323 -14.3602 -14.2147 -14.1682 -14.0178 -13.8823 -13.8694 -13.5403
   -13.4610 -13.1314 -13.0647 -12.9659 -12.8305 -12.6793 -12.6077 -12.3846
   -12.2684 -11.9972 -11.8927 -11.7301 -11.6819 -11.6041 -11.4548 -11.2712
   -11.1111 -10.9917 -10.8311 -10.7383 -10.6702 -10.5691 -10.3910 -10.3318
   -10.2035 -10.0713  -9.9665  -9.8987  -9.7398  -9.6704  -9.5359  -9.5206
    -9.3834  -9.2268  -9.2093  -9.0904  -8.9594  -8.9525  -8.9225  -8.8823
    -8.8130  -8.6924  -8.6562  -8.6267  -8.6058  -8.5770  -8.5010  -8.4560
    -8.4128  -8.3651  -8.2665  -8.2399  -8.1621  -8.1293  -8.0244  -7.9910
    -7.9682  -7.8725  -7.8529  -7.7697  -7.7621  -7.7040  -7.6917  -7.5594
    -7.4534  -7.4389  -7.3589  -7.2611  -7.2486  -7.1601  -7.1243  -7.0725
    -7.0310  -6.9365  -6.8357  -6.7220  -6.5988  -6.5780  -6.5304  -6.4393
    -6.3850  -6.3260  -6.1421  -6.1330  -6.0889  -5.9882  -5.9284  -5.8222
    -5.7758  -5.6682  -5.5807  -5.4613  -5.4526  -5.3517  -5.1430  -5.1201
    -5.0342  -5.0238  -4.8100  -4.7505  -4.5997  -4.4728  -4.4537  -4.3518
    -4.0580  -4.0388  -3.9699  -3.7447  -3.5521  -3.4214  -3.1533  -2.8210
    -2.2478  -1.6386  -0.8873  -0.5777  -0.3460  -0.2817  -0.0458   0.0530
     0.0993   0.1711   0.2998   0.5059   0.7753   0.9172   0.9973   1.1275
     1.1747   1.2750   1.4040   1.4407   1.4789   1.5318   1.7127   1.7359
     1.8116   1.8920   2.0154   2.1000   2.1567   2.1642   2.2559   2.3835
     2.3962   2.5901   2.6032   2.6663   2.7342   2.7987   2.8395   2.8519
     2.8955   2.9523   2.9606   3.0267   3.0782   3.1018   3.1998   3.2002
     3.2805   3.2822   3.3635   3.4547   3.4787   3.5078   3.5741   3.5956
     3.6043   3.6211   3.6704   3.7391   3.7692   3.9273   3.9399   3.9792
     3.9982   4.0503   4.0761   4.1510   4.1959   4.2134   4.2768   4.2864
     4.3727   4.3835   4.4306   4.4692   4.4779   4.4963   4.5521   4.6171
     4.6343   4.6476   4.7083   4.7220   4.7518   4.7949   4.8069   4.8528
     4.8731   4.9152   4.9177   4.9867   5.0321   5.0366   5.0889   5.0931
     5.1775   5.2809   5.2898   5.3656   5.4461   5.4463   5.4501   5.4920
     5.4980   5.5345   5.5819   5.5965   5.5982   5.6581   5.6836   5.7134
     5.7179   5.7366   5.7652   5.7913   5.8471   5.8632   5.8990   5.9141
     5.9302   5.9566   6.0039   6.0431   6.0446   6.0754   6.0882   6.0997
     6.1471   6.2204   6.2608   6.2999   6.3077   6.3579   6.4021   6.4088
     6.4397   6.4725   6.4987   6.5287   6.5599   6.5756   6.5904   6.6144
     6.6382   6.6456   6.6782   6.6832   6.6873   6.7473   6.7670   6.7813
     6.8037   6.8281   6.8297   6.8591   6.8745   6.8840   6.9172   6.9361
     6.9687   6.9709   6.9901   7.0274   7.0432   7.0639   7.0686   7.0788
     7.1443   7.1502   7.1716   7.2063   7.2318   7.2440   7.2571   7.2994
     7.3053   7.3415   7.3530   7.3840   7.4279   7.4311   7.4342   7.4436
     7.4521   7.4726   7.5118   7.5560   7.5968   7.6317   7.7055   7.7611
     7.8014   7.8089   7.8405   7.8463   7.8903   7.8998   7.9333   7.9695
     7.9902   8.0077   8.0289   8.0421   8.0682   8.0925   8.1253   8.1436
     8.1596   8.1783   8.1814   8.2083   8.2135   8.2472   8.2601   8.3082
     8.3401   8.3471   8.3681   8.3840   8.3985   8.4207   8.4321   8.4632
     8.4895   8.5011   8.5682   8.5946   8.6357   8.6984   8.7041   8.7073
     8.7764   8.8000   8.8042   8.8162   8.8452   8.8597   8.8632   8.8832
     8.9269   8.9420   8.9673   8.9884   9.0098   9.0341   9.0399   9.0435
     9.1002   9.1079   9.1090   9.1358   9.2096   9.2218   9.2280   9.2402
     9.3166   9.3186   9.3368   9.3615   9.3862   9.4149   9.4159   9.4438
     9.4684   9.4831   9.4939   9.5314   9.5562   9.5761   9.5892   9.6024
     9.6239   9.6366   9.6482   9.6546   9.6917   9.6995   9.7091   9.7380
     9.7528   9.7667   9.7860   9.8425   9.8454   9.8778   9.8778   9.9014
     9.9157   9.9247   9.9674   9.9983  10.0123  10.0492  10.1156  10.2107
    10.2434  10.2495  10.2542  10.2759  10.2790  10.2844  10.3214  10.3574
    10.3775  10.3856  10.3894  10.4366  10.5060  10.5262  10.5315  10.5361
    10.5470  10.5820  10.6082  10.6270  10.6372  10.6499  10.6834  10.7108
    10.7379  10.7514  10.7888  10.8160  10.8175  10.8543  10.8753  10.8867
    10.9103  10.9344  10.9689  10.9744  10.9878  11.0073  11.0252  11.0471
    11.0743  11.0814  11.0924  11.1034

          k = 0.0000 0.0000 0.0141 (103441 PWs)   bands (ev):

   -21.1401 -20.9397 -20.6136 -20.5866 -20.4210 -20.0840 -20.0098 -19.8271
   -19.6030 -19.4935 -19.3230 -19.2592 -18.8733 -18.7806 -18.6665 -18.4402
   -18.3814 -18.2187 -17.9950 -17.8397 -17.7088 -17.5061 -17.3863 -17.1874
   -17.1009 -17.0232 -16.8582 -16.7005 -16.5534 -16.2676 -16.2354 -16.2101
   -16.0896 -15.9107 -15.7384 -15.6484 -15.2734 -15.0247 -14.7086 -14.5650
   -14.4363 -14.3560 -14.1753 -14.1710 -14.0046 -13.8808 -13.8703 -13.5372
   -13.4524 -13.1568 -13.1200 -12.9694 -12.8598 -12.6862 -12.5965 -12.4003
   -12.2727 -11.9905 -11.8823 -11.6837 -11.6496 -11.5662 -11.4552 -11.2959
   -11.1064 -11.0117 -10.8273 -10.7669 -10.6537 -10.5794 -10.4057 -10.3315
   -10.1736 -10.0610 -10.0096  -9.9024  -9.7501  -9.6597  -9.5343  -9.5144
    -9.3667  -9.2235  -9.2054  -9.0938  -8.9743  -8.9728  -8.9336  -8.8912
    -8.8235  -8.6804  -8.6442  -8.6317  -8.6019  -8.5562  -8.4995  -8.4765
    -8.4085  -8.3774  -8.2817  -8.2325  -8.1578  -8.1263  -8.0085  -7.9727
    -7.9400  -7.8809  -7.8676  -7.7742  -7.7464  -7.7019  -7.6786  -7.5412
    -7.4659  -7.4493  -7.3489  -7.2893  -7.2656  -7.1713  -7.0946  -7.0478
    -7.0418  -6.9342  -6.8304  -6.7393  -6.5993  -6.5879  -6.5033  -6.4661
    -6.3983  -6.3083  -6.1429  -6.1338  -6.1022  -6.0288  -5.9141  -5.8220
    -5.7661  -5.6436  -5.5726  -5.4895  -5.4363  -5.3772  -5.1402  -5.1270
    -5.0303  -4.9931  -4.7970  -4.7710  -4.6065  -4.4587  -4.4280  -4.3544
    -4.0769  -4.0469  -3.9801  -3.7192  -3.5554  -3.4177  -3.1556  -2.8337
    -2.2751  -1.6205  -0.8695  -0.5689  -0.3621  -0.2625  -0.0266   0.0510
     0.1158   0.1504   0.3035   0.4952   0.7563   0.8870   1.0087   1.1280
     1.1792   1.2340   1.4080   1.4286   1.4804   1.5362   1.7242   1.7242
     1.7965   1.9132   2.0238   2.1046   2.1620   2.1839   2.2799   2.3711
     2.3843   2.5896   2.6417   2.6595   2.7428   2.8121   2.8402   2.8509
     2.8816   2.9578   2.9632   3.0210   3.0671   3.0782   3.1862   3.2039
     3.2755   3.2929   3.3809   3.4632   3.4659   3.5264   3.5675   3.5732
     3.6081   3.6211   3.6652   3.7653   3.7763   3.9452   3.9493   4.0014
     4.0202   4.0584   4.0679   4.1323   4.1859   4.1957   4.2703   4.2814
     4.3507   4.3576   4.4370   4.4541   4.4660   4.4875   4.5373   4.6116
     4.6180   4.6690   4.6936   4.7234   4.7610   4.7783   4.8112   4.8306
     4.8755   4.8970   4.9411   5.0038   5.0261   5.0580   5.0752   5.1203
     5.2039   5.3021   5.3071   5.3147   5.4398   5.4531   5.4550   5.4846
     5.5185   5.5546   5.5721   5.6048   5.6249   5.6669   5.6987   5.7043
     5.7180   5.7268   5.7491   5.7807   5.8237   5.8530   5.9050   5.9271
     5.9456   5.9572   6.0023   6.0237   6.0265   6.0642   6.0850   6.1000
     6.1501   6.2025   6.2445   6.2991   6.3192   6.3550   6.3894   6.4174
     6.4398   6.4891   6.4990   6.5296   6.5615   6.5661   6.5905   6.6120
     6.6468   6.6550   6.7067   6.7125   6.7183   6.7522   6.7708   6.7747
     6.7863   6.8132   6.8339   6.8613   6.8748   6.8853   6.9174   6.9405
     6.9649   6.9850   6.9961   7.0064   7.0163   7.0495   7.0656   7.0888
     7.1420   7.1543   7.1644   7.2309   7.2365   7.2411   7.2668   7.2886
     7.3184   7.3310   7.3383   7.3933   7.3948   7.4169   7.4360   7.4375
     7.4437   7.4712   7.5233   7.5684   7.6046   7.6364   7.6993   7.7287
     7.7966   7.8232   7.8409   7.8733   7.8804   7.9110   7.9465   7.9781
     7.9832   8.0232   8.0321   8.0418   8.0876   8.1006   8.1097   8.1110
     8.1676   8.1840   8.1970   8.2094   8.2296   8.2618   8.2865   8.2910
     8.3270   8.3594   8.3679   8.3751   8.4154   8.4312   8.4423   8.4596
     8.4874   8.4953   8.5590   8.5693   8.6118   8.6775   8.6934   8.7208
     8.7668   8.7679   8.8092   8.8278   8.8374   8.8644   8.8853   8.8935
     8.9037   8.9407   8.9557   8.9744   9.0251   9.0383   9.0407   9.0433
     9.0984   9.1146   9.1222   9.1455   9.1868   9.2242   9.2333   9.2529
     9.3006   9.3118   9.3520   9.3612   9.3683   9.4075   9.4165   9.4568
     9.4816   9.4918   9.4985   9.5346   9.5607   9.5917   9.5927   9.6093
     9.6167   9.6200   9.6461   9.6492   9.6693   9.6803   9.7072   9.7253
     9.7554   9.7728   9.7849   9.8244   9.8375   9.8593   9.8831   9.9181
     9.9189   9.9237   9.9512  10.0049  10.0369  10.0588  10.1119  10.1920
    10.2268  10.2308  10.2692  10.2827  10.2979  10.3260  10.3375  10.3431
    10.3578  10.3786  10.4106  10.4256  10.4920  10.5176  10.5446  10.5505
    10.5633  10.5854  10.5942  10.6053  10.6374  10.6525  10.6538  10.7118
    10.7367  10.7698  10.7864  10.8193  10.8220  10.8424  10.8774  10.8898
    10.9145  10.9355  10.9571  10.9712  10.9775  11.0102  11.0218  11.0499
    11.0509  11.0745  11.0776  11.1148

          k = 0.0000 0.0000 0.0153 (103453 PWs)   bands (ev):

   -21.1367 -20.9503 -20.6082 -20.5709 -20.4307 -20.0781 -20.0242 -19.8251
   -19.6106 -19.5166 -19.2925 -19.2438 -18.8713 -18.7607 -18.6763 -18.4515
   -18.4157 -18.2085 -17.9853 -17.8531 -17.7280 -17.5040 -17.3445 -17.2131
   -17.0889 -17.0217 -16.8210 -16.6898 -16.5662 -16.2792 -16.2463 -16.2243
   -16.0776 -15.9152 -15.7549 -15.6534 -15.2819 -15.0447 -14.7042 -14.5201
   -14.4435 -14.3485 -14.1775 -14.1314 -13.9910 -13.8916 -13.8597 -13.5332
   -13.4442 -13.1954 -13.1616 -12.9825 -12.8807 -12.6951 -12.5833 -12.4158
   -12.2771 -11.9832 -11.8723 -11.6571 -11.5977 -11.5301 -11.4518 -11.3216
   -11.1018 -11.0284 -10.8303 -10.7926 -10.6382 -10.5882 -10.4194 -10.3325
   -10.1469 -10.0914 -10.0086  -9.9055  -9.7620  -9.6532  -9.5310  -9.5052
    -9.3472  -9.2211  -9.2011  -9.0994  -9.0036  -8.9858  -8.9476  -8.8973
    -8.8261  -8.6704  -8.6577  -8.6150  -8.5976  -8.5351  -8.5122  -8.4801
    -8.4003  -8.3893  -8.2968  -8.2264  -8.1528  -8.1239  -7.9937  -7.9567
    -7.9156  -7.9065  -7.8602  -7.7839  -7.7213  -7.6994  -7.6661  -7.5248
    -7.4804  -7.4593  -7.3354  -7.3172  -7.2839  -7.1851  -7.0681  -7.0505
    -7.0193  -6.9358  -6.8234  -6.7572  -6.6048  -6.5961  -6.4922  -6.4744
    -6.4085  -6.2901  -6.1522  -6.1360  -6.1067  -6.0699  -5.8989  -5.8220
    -5.7590  -5.6244  -5.5619  -5.5129  -5.4205  -5.4014  -5.1380  -5.1344
    -5.0373  -4.9520  -4.8044  -4.7745  -4.6108  -4.4538  -4.3959  -4.3530
    -4.0992  -4.0577  -3.9864  -3.6935  -3.5657  -3.4082  -3.1581  -2.8473
    -2.3012  -1.6039  -0.8509  -0.5588  -0.3793  -0.2417  -0.0083   0.0478
     0.1281   0.1350   0.3110   0.4841   0.7353   0.8544   1.0154   1.1198
     1.1841   1.2106   1.4126   1.4156   1.4835   1.5411   1.7122   1.7364
     1.7816   1.9355   2.0154   2.1095   2.1798   2.2035   2.3036   2.3603
     2.3758   2.5822   2.6240   2.7075   2.7587   2.8061   2.8426   2.8624
     2.8698   2.9591   2.9666   3.0225   3.0330   3.0785   3.1726   3.2081
     3.2703   3.3041   3.4001   3.4472   3.4715   3.5219   3.5563   3.5653
     3.6139   3.6144   3.6806   3.7880   3.7915   3.9499   3.9696   4.0044
     4.0441   4.0563   4.0835   4.1218   4.1593   4.1926   4.2548   4.2864
     4.3155   4.3424   4.3984   4.4458   4.4677   4.5028   4.5226   4.5819
     4.6204   4.6777   4.6821   4.7202   4.7501   4.7986   4.8058   4.8166
     4.8740   4.8901   4.9648   5.0046   5.0395   5.0622   5.0816   5.1463
     5.2323   5.2626   5.3174   5.3249   5.4279   5.4572   5.4637   5.4794
     5.5151   5.5736   5.5756   5.6274   5.6475   5.6736   5.6901   5.6941
     5.7038   5.7203   5.7419   5.7956   5.8081   5.8429   5.8961   5.9274
     5.9558   5.9675   5.9844   6.0248   6.0265   6.0463   6.0922   6.1022
     6.1521   6.1873   6.2262   6.2888   6.3385   6.3458   6.3818   6.3955
     6.4551   6.4947   6.5092   6.5209   6.5473   6.5701   6.6089   6.6168
     6.6544   6.6613   6.7184   6.7432   6.7450   6.7480   6.7598   6.7647
     6.7873   6.8250   6.8395   6.8625   6.8740   6.8830   6.9163   6.9326
     6.9544   6.9848   6.9880   6.9985   7.0229   7.0421   7.0681   7.1004
     7.1367   7.1531   7.1584   7.2276   7.2540   7.2548   7.2661   7.2832
     7.3064   7.3317   7.3388   7.3603   7.3989   7.4033   7.4329   7.4417
     7.4522   7.4713   7.5320   7.5756   7.6183   7.6478   7.6922   7.6953
     7.7810   7.8284   7.8326   7.8684   7.8972   7.9285   7.9575   7.9878
     7.9893   8.0022   8.0446   8.0514   8.0579   8.0920   8.1141   8.1463
     8.1535   8.1968   8.2076   8.2144   8.2446   8.2481   8.2883   8.3225
     8.3250   8.3535   8.3550   8.3975   8.4067   8.4291   8.4452   8.4838
     8.4966   8.4994   8.5278   8.5727   8.5955   8.6581   8.6842   8.7243
     8.7435   8.7493   8.8037   8.8300   8.8486   8.8616   8.8714   8.9020
     8.9113   8.9391   8.9497   8.9753   9.0285   9.0369   9.0440   9.0493
[...]
    -5.1121  -5.0790  -4.7230  -4.5928  -4.5467  -4.4627  -4.3604  -4.3311
    -4.2335  -4.0456  -3.9739  -3.7902  -3.5171  -3.2418  -3.1876  -2.9973
    -2.4567  -1.5162  -0.6785  -0.5341  -0.4053  -0.2292   0.0249   0.0662
     0.1737   0.2982   0.4165   0.4347   0.5167   0.6301   0.6883   1.0852
     1.2456   1.3049   1.3687   1.4764   1.5292   1.6038   1.6191   1.6646
     1.7229   1.9685   2.1038   2.1506   2.1679   2.2367   2.3317   2.4351
     2.5467   2.5872   2.6240   2.6575   2.7307   2.7734   2.8095   2.8394
     2.9143   2.9431   2.9855   3.0692   3.1159   3.1410   3.1919   3.2353
     3.2764   3.2795   3.3213   3.3847   3.3868   3.4606   3.5755   3.6165
     3.7317   3.7440   3.7895   3.7981   3.8482   3.8500   3.9421   4.0236
     4.0710   4.0958   4.1072   4.1076   4.1573   4.1764   4.2240   4.2371
     4.2714   4.3205   4.3496   4.3592   4.4027   4.4291   4.4417   4.4736
     4.4916   4.5190   4.5762   4.6036   4.7885   4.8554   4.8849   4.9127
     4.9383   4.9652   4.9752   5.0200   5.0768   5.1514   5.1566   5.2629
     5.2669   5.2747   5.3002   5.3709   5.4086   5.4171   5.4320   5.4605
     5.5035   5.5523   5.6017   5.6135   5.6207   5.6291   5.6709   5.6902
     5.6906   5.7841   5.8186   5.8327   5.8432   5.8672   5.9074   5.9216
     5.9442   5.9797   5.9863   5.9967   6.0093   6.0657   6.0843   6.1159
     6.1178   6.1753   6.1793   6.2201   6.2712   6.2827   6.3349   6.4108
     6.4508   6.4519   6.5024   6.5033   6.5603   6.5949   6.6167   6.6299
     6.6318   6.6554   6.7233   6.7329   6.7498   6.7634   6.7916   6.8084
     6.8172   6.8458   6.8526   6.8598   6.8938   6.9061   6.9068   6.9174
     6.9445   6.9923   6.9977   7.0486   7.0603   7.0779   7.1184   7.1331
     7.1472   7.1573   7.1779   7.1889   7.2046   7.2090   7.2391   7.3211
     7.3257   7.3656   7.3814   7.4092   7.4208   7.4407   7.4421   7.4578
     7.4761   7.5276   7.5503   7.5730   7.6335   7.6675   7.6844   7.7052
     7.7504   7.7919   7.8095   7.8231   7.8328   7.8646   7.9009   7.9035
     7.9315   7.9698   7.9744   7.9842   8.0657   8.0959   8.1108   8.1262
     8.1503   8.1962   8.1993   8.2074   8.2302   8.2541   8.2847   8.3384
     8.3472   8.3697   8.3898   8.4302   8.4700   8.4795   8.5145   8.5510
     8.5599   8.5669   8.6160   8.6324   8.6681   8.6796   8.7472   8.7478
     8.7633   8.7967   8.8058   8.8140   8.8582   8.8669   8.8711   8.8918
     8.9211   8.9327   8.9475   8.9647   8.9890   8.9922   8.9982   9.0551
     9.0733   9.0754   9.1173   9.1202   9.1507   9.1668   9.1814   9.1988
     9.2156   9.2277   9.2457   9.3086   9.3285   9.3397   9.3560   9.4004
     9.4341   9.4687   9.5054   9.5359   9.5557   9.5586   9.6001   9.6217
     9.6461   9.6587   9.6655   9.6916   9.7035   9.7129   9.7283   9.7712
     9.7716   9.7947   9.8080   9.8335   9.8557   9.8776   9.9066   9.9305
     9.9349   9.9910  10.0046  10.0128  10.0508  10.0622  10.0781  10.0958
    10.1061  10.1732  10.1867  10.2105  10.2309  10.3006  10.3064  10.3328
    10.3631  10.4120  10.4241  10.4582  10.4609  10.5123  10.5584  10.5795
    10.5871  10.6128  10.6513  10.6686  10.6795  10.6798  10.6966  10.7306
    10.7531  10.7559  10.7650  10.8044  10.8066  10.8138  10.8260  10.8815
    10.8897  10.8956  10.9187  10.9426  10.9530  10.9604  10.9739  10.9948
    11.0222  11.0314  11.0804  11.1186

          k = 0.0000 0.0000 0.0270 (103398 PWs)   bands (ev):

   -21.0969 -21.0309 -20.5561 -20.5264 -20.3721 -20.2796 -19.9130 -19.7866
   -19.7183 -19.6611 -19.1024 -19.0186 -18.9166 -18.7981 -18.7195 -18.5125
   -18.4354 -18.3215 -17.9864 -17.9061 -17.6387 -17.5259 -17.4767 -17.1165
   -16.9148 -16.8446 -16.7480 -16.6863 -16.5258 -16.4368 -16.3937 -16.2338
   -16.1724 -15.9293 -15.6952 -15.6347 -15.4877 -15.1298 -14.6480 -14.5264
   -14.2669 -14.2275 -14.0171 -13.9843 -13.8593 -13.8376 -13.7584 -13.6695
   -13.5064 -13.4164 -13.3489 -13.3177 -12.8021 -12.7513 -12.6430 -12.4104
   -12.3160 -11.9466 -11.7423 -11.6495 -11.4390 -11.3222 -11.2662 -11.1571
   -11.1065 -11.0462 -10.9834 -10.8860 -10.6904 -10.6232 -10.5906 -10.3800
   -10.3204 -10.1075  -9.9377  -9.8352  -9.6605  -9.5777  -9.4726  -9.4305
    -9.3833  -9.3054  -9.2469  -9.1451  -9.0907  -9.0409  -8.9889  -8.8556
    -8.8128  -8.7957  -8.7743  -8.6273  -8.5480  -8.5386  -8.5006  -8.4451
    -8.3574  -8.2960  -8.2940  -8.2144  -8.1912  -8.1074  -8.0210  -7.9076
    -7.8283  -7.7947  -7.7748  -7.7467  -7.6514  -7.6453  -7.6166  -7.5664
    -7.5197  -7.5093  -7.3964  -7.3509  -7.3142  -7.2480  -7.1319  -7.0167
    -6.8953  -6.8631  -6.7736  -6.7658  -6.7258  -6.6380  -6.5178  -6.4883
    -6.4638  -6.3084  -6.2225  -6.1431  -6.0893  -6.0585  -5.9504  -5.8057
    -5.7854  -5.6898  -5.6175  -5.3956  -5.3464  -5.2705  -5.1827  -5.1474
    -5.1187  -5.1007  -4.7215  -4.5626  -4.5349  -4.4678  -4.3883  -4.3225
    -4.2488  -4.0269  -3.9614  -3.8185  -3.5091  -3.2277  -3.1889  -3.0109
    -2.4629  -1.5131  -0.6638  -0.5477  -0.3848  -0.2513   0.0240   0.0900
     0.1684   0.3042   0.4265   0.4443   0.5117   0.6168   0.6495   1.0869
     1.2543   1.2944   1.3756   1.4893   1.5334   1.6118   1.6141   1.6537
     1.7067   1.9858   2.0830   2.1655   2.1802   2.2330   2.3075   2.4545
     2.5576   2.5827   2.6541   2.6581   2.7040   2.7662   2.8181   2.8293
     2.9021   2.9471   2.9867   3.0656   3.1373   3.1427   3.1883   3.2309
     3.2543   3.2872   3.3297   3.3916   3.4130   3.4522   3.5710   3.6418
     3.7079   3.7293   3.7896   3.7969   3.8485   3.8496   3.9305   4.0331
     4.0819   4.0835   4.1170   4.1216   4.1525   4.1762   4.2197   4.2488
     4.2720   4.3241   4.3414   4.3559   4.3924   4.4050   4.4314   4.4601
     4.5141   4.5395   4.5756   4.5938   4.7407   4.8601   4.8892   4.9167
     4.9530   4.9763   4.9816   5.0333   5.0974   5.1239   5.1703   5.2426
     5.2589   5.2829   5.3141   5.3848   5.3993   5.4211   5.4300   5.4366
     5.5096   5.5624   5.5948   5.6017   5.6198   5.6387   5.6740   5.6770
     5.7040   5.7657   5.8345   5.8488   5.8521   5.8581   5.9055   5.9175
     5.9436   5.9771   5.9891   5.9998   6.0173   6.0661   6.0917   6.1004
     6.1043   6.1747   6.2164   6.2231   6.2493   6.2658   6.3299   6.4125
     6.4258   6.4460   6.5200   6.5353   6.5451   6.5849   6.6240   6.6268
     6.6460   6.6534   6.7076   6.7288   6.7483   6.7670   6.8068   6.8106
     6.8153   6.8249   6.8476   6.8530   6.9041   6.9081   6.9191   6.9336
     6.9467   6.9833   6.9835   7.0372   7.0720   7.0774   7.1167   7.1306
     7.1490   7.1523   7.1729   7.1780   7.2061   7.2369   7.2553   7.3257
     7.3419   7.3592   7.3848   7.4104   7.4116   7.4478   7.4566   7.4658
     7.4811   7.5181   7.5303   7.5773   7.6389   7.6677   7.6796   7.7010
     7.7337   7.7863   7.8106   7.8346   7.8400   7.8702   7.9010   7.9034
     7.9353   7.9539   7.9839   7.9869   8.0394   8.0631   8.1208   8.1347
     8.1353   8.1904   8.1965   8.2001   8.2096   8.2714   8.2915   8.3461
     8.3529   8.3689   8.3789   8.4299   8.4707   8.4896   8.5102   8.5398
     8.5714   8.5842   8.6304   8.6445   8.6642   8.7072   8.7427   8.7574
     8.7849   8.7924   8.8188   8.8289   8.8655   8.8680   8.8815   8.8974
     8.9186   8.9225   8.9294   8.9708   8.9828   8.9847   9.0045   9.0350
     9.0352   9.0705   9.1220   9.1225   9.1385   9.1680   9.1927   9.1934
     9.2148   9.2187   9.2431   9.2843   9.3111   9.3335   9.3414   9.4099
     9.4440   9.4643   9.4853   9.5442   9.5538   9.5699   9.6171   9.6329
     9.6544   9.6693   9.6716   9.6956   9.7048   9.7134   9.7248   9.7812
     9.7825   9.8009   9.8229   9.8342   9.8585   9.8587   9.8834   9.9421
     9.9425   9.9592   9.9989  10.0006  10.0157  10.0551  10.0759  10.0877
    10.1192  10.1867  10.1971  10.2374  10.2682  10.2763  10.3125  10.3385
    10.3515  10.4297  10.4382  10.4391  10.4676  10.5115  10.5303  10.5894
    10.5919  10.6148  10.6442  10.6573  10.6640  10.6873  10.6942  10.7301
    10.7337  10.7495  10.7515  10.8005  10.8077  10.8198  10.8336  10.8834
    10.8955  10.8967  10.9112  10.9507  10.9579  10.9612  10.9773  10.9856
    11.0329  11.0358  11.0700  11.1045

          k = 0.0000 0.0000 0.0282 (103420 PWs)   bands (ev):

   -21.0948 -21.0340 -20.5505 -20.5325 -20.3543 -20.2985 -19.9077 -19.7808
   -19.7296 -19.6624 -19.0942 -19.0176 -18.8949 -18.8279 -18.7216 -18.5094
   -18.4097 -18.3502 -17.9766 -17.9181 -17.6113 -17.5489 -17.4817 -17.1162
   -16.8964 -16.8158 -16.7559 -16.7249 -16.5141 -16.4491 -16.3540 -16.2725
   -16.1730 -15.9263 -15.6900 -15.6235 -15.5059 -15.1305 -14.6457 -14.5292
   -14.2617 -14.2307 -14.0097 -13.9446 -13.8587 -13.8459 -13.7981 -13.6257
   -13.5422 -13.4063 -13.3516 -13.3348 -12.7938 -12.7535 -12.6515 -12.4071
   -12.3171 -11.9471 -11.7214 -11.6734 -11.4261 -11.3216 -11.2653 -11.1442
   -11.1139 -11.0384 -10.9903 -10.8483 -10.7411 -10.6312 -10.5895 -10.3780
   -10.3111 -10.1206  -9.9268  -9.8441  -9.6518  -9.5380  -9.4753  -9.4509
    -9.4072  -9.2978  -9.2555  -9.1410  -9.0959  -9.0331  -8.9770  -8.8599
    -8.8245  -8.8027  -8.7688  -8.6320  -8.5461  -8.5325  -8.5076  -8.4474
    -8.3418  -8.3097  -8.2723  -8.2160  -8.2114  -8.0997  -8.0292  -7.8792
    -7.8341  -7.8048  -7.7682  -7.7374  -7.6511  -7.6441  -7.6269  -7.5798
    -7.5221  -7.5037  -7.3727  -7.3543  -7.3217  -7.2543  -7.1339  -7.0184
    -6.8995  -6.8473  -6.7870  -6.7638  -6.7326  -6.6014  -6.5250  -6.5125
    -6.4671  -6.3155  -6.2219  -6.1391  -6.0578  -6.0554  -5.9849  -5.8027
    -5.7896  -5.6732  -5.6363  -5.3821  -5.3536  -5.2418  -5.1814  -5.1660
    -5.1232  -5.1111  -4.7207  -4.5399  -4.5261  -4.4671  -4.4161  -4.3129
    -4.2615  -4.0173  -3.9452  -3.8424  -3.5043  -3.2186  -3.1891  -3.0203
    -2.4666  -1.5112  -0.6530  -0.5578  -0.3676  -0.2697   0.0235   0.1122
     0.1572   0.3078   0.4282   0.4552   0.5178   0.6037   0.6216   1.0880
     1.2629   1.2846   1.3793   1.4991   1.5363   1.6090   1.6221   1.6434
     1.6952   2.0023   2.0647   2.1724   2.1923   2.2357   2.2851   2.4726
     2.5420   2.6064   2.6538   2.6759   2.6821   2.7620   2.8157   2.8311
     2.8905   2.9496   2.9881   3.0629   3.1402   3.1577   3.1896   3.2272
     3.2322   3.2930   3.3306   3.3969   3.4459   3.4460   3.5621   3.6669
     3.6791   3.7131   3.7870   3.8074   3.8404   3.8560   3.9243   4.0397
     4.0687   4.0964   4.1208   4.1295   4.1510   4.1842   4.2031   4.2690
     4.2724   4.3213   4.3319   4.3615   4.3830   4.3864   4.4272   4.4507
     4.5132   4.5649   4.5829   4.6003   4.6923   4.8629   4.8937   4.9121
     4.9693   4.9814   4.9930   5.0407   5.1010   5.1144   5.1840   5.2221
     5.2429   5.2947   5.3395   5.3685   5.4030   5.4115   5.4202   5.4485
     5.5204   5.5620   5.5751   5.5878   5.6271   5.6511   5.6662   5.6853
     5.7192   5.7563   5.8070   5.8557   5.8681   5.8718   5.9103   5.9142
     5.9436   5.9615   5.9886   6.0117   6.0145   6.0669   6.0834   6.1023
     6.1168   6.1742   6.1948   6.2316   6.2557   6.2755   6.3285   6.3680
     6.4246   6.4576   6.5279   6.5386   6.5656   6.5717   6.6199   6.6236
     6.6531   6.6733   6.6933   6.7333   6.7457   6.7689   6.7727   6.8015
     6.8155   6.8465   6.8479   6.8546   6.9094   6.9112   6.9139   6.9333
     6.9626   6.9803   6.9862   7.0195   7.0803   7.0857   7.1118   7.1253
     7.1274   7.1475   7.1720   7.1877   7.2068   7.2647   7.2693   7.3257
     7.3379   7.3673   7.3821   7.3938   7.4107   7.4423   7.4638   7.4783
     7.4979   7.5096   7.5342   7.5902   7.6227   7.6567   7.6839   7.7017
     7.7155   7.7636   7.8114   7.8446   7.8617   7.8899   7.9005   7.9010
     7.9342   7.9510   7.9836   7.9964   8.0131   8.0501   8.1052   8.1356
     8.1418   8.1749   8.1942   8.1975   8.1999   8.2940   8.2947   8.3464
     8.3466   8.3697   8.3793   8.4358   8.4601   8.4991   8.5151   8.5222
     8.5888   8.5922   8.6201   8.6532   8.6902   8.7270   8.7377   8.7646
     8.7725   8.7873   8.8296   8.8384   8.8755   8.8912   8.8933   8.9046
     8.9103   8.9204   8.9262   8.9530   8.9744   8.9762   8.9926   9.0197
     9.0290   9.0693   9.1067   9.1305   9.1332   9.1736   9.1886   9.2070
     9.2132   9.2210   9.2430   9.2646   9.2838   9.3183   9.3613   9.4130
     9.4470   9.4619   9.4630   9.5505   9.5530   9.5853   9.6230   9.6405
     9.6534   9.6722   9.6962   9.6965   9.7053   9.7157   9.7248   9.7662
     9.7944   9.7985   9.8375   9.8380   9.8482   9.8669   9.8843   9.9207
     9.9479   9.9547   9.9812   9.9921  10.0041  10.0449  10.0687  10.0768
    10.1383  10.1892  10.2092  10.2472  10.2766  10.3108  10.3117  10.3447
    10.3486  10.4077  10.4338  10.4415  10.4559  10.5094  10.5435  10.5993
    10.6025  10.6119  10.6241  10.6426  10.6483  10.6809  10.7013  10.7295
    10.7379  10.7455  10.7475  10.7894  10.7962  10.8370  10.8499  10.8828
    10.8960  10.8964  10.9094  10.9408  10.9492  10.9664  10.9777  11.0103
    11.0241  11.0472  11.0622  11.0995

          k = 0.0000 0.0000-0.0293 (103456 PWs)   bands (ev):

   -21.0940 -21.0350 -20.5475 -20.5357 -20.3445 -20.3086 -19.9060 -19.7781
   -19.7342 -19.6628 -19.0912 -19.0180 -18.8779 -18.8473 -18.7222 -18.5087
   -18.3878 -18.3729 -17.9721 -17.9232 -17.5932 -17.5659 -17.4830 -17.1162
   -16.8900 -16.7964 -16.7549 -16.7513 -16.5088 -16.4546 -16.3197 -16.3065
   -16.1731 -15.9253 -15.6885 -15.6184 -15.5132 -15.1307 -14.6450 -14.5301
   -14.2597 -14.2320 -14.0095 -13.9118 -13.8759 -13.8485 -13.8115 -13.5869
   -13.5783 -13.4022 -13.3474 -13.3461 -12.7907 -12.7545 -12.6545 -12.4060
   -12.3175 -11.9473 -11.7044 -11.6914 -11.4210 -11.3233 -11.2630 -11.1447
   -11.1101 -11.0405 -10.9904 -10.8165 -10.7771 -10.6335 -10.5891 -10.3775
   -10.3075 -10.1254  -9.9225  -9.8478  -9.6488  -9.5017  -9.4975  -9.4607
    -9.4141  -9.2939  -9.2597  -9.1394  -9.0978  -9.0301  -8.9726  -8.8600
    -8.8319  -8.8035  -8.7666  -8.6337  -8.5454  -8.5295  -8.5109  -8.4482
    -8.3264  -8.3251  -8.2563  -8.2324  -8.2105  -8.0966  -8.0325  -7.8579
    -7.8481  -7.8083  -7.7659  -7.7328  -7.6551  -7.6408  -7.6295  -7.5853
    -7.5228  -7.5016  -7.3668  -7.3456  -7.3322  -7.2566  -7.1345  -7.0189
    -6.9010  -6.8399  -6.7937  -6.7630  -6.7351  -6.5649  -6.5619  -6.5106
    -6.4676  -6.3180  -6.2217  -6.1377  -6.0576  -6.0251  -6.0153  -5.8011
    -5.7916  -5.6587  -5.6515  -5.3746  -5.3590  -5.2259  -5.1808  -5.1796
    -5.1249  -5.1136  -4.7204  -4.5300  -4.5244  -4.4612  -4.4321  -4.3082
    -4.2671  -4.0145  -3.9365  -3.8533  -3.5027  -3.2156  -3.1890  -3.0237
    -2.4678  -1.5106  -0.6488  -0.5618  -0.3601  -0.2777   0.0233   0.1256
     0.1476   0.3091   0.4280   0.4592   0.5246   0.5932   0.6140   1.0883
     1.2689   1.2783   1.3805   1.5028   1.5373   1.6076   1.6288   1.6362
     1.6909   2.0109   2.0555   2.1747   2.1963   2.2415   2.2728   2.4816
     2.5330   2.6256   2.6418   2.6750   2.6841   2.7607   2.8122   2.8346
     2.8853   2.9505   2.9887   3.0619   3.1387   3.1682   3.1908   3.2211
     3.2257   3.2950   3.3302   3.3990   3.4436   3.4626   3.5554   3.6682
     3.6906   3.6915   3.7858   3.8166   3.8325   3.8589   3.9225   4.0424
     4.0635   4.1056   4.1144   4.1342   4.1526   4.1895   4.1949   4.2667
     4.2876   4.3086   4.3348   4.3651   4.3778   4.3786   4.4268   4.4469
     4.5124   4.5689   4.5805   4.6378   4.6504   4.8637   4.8964   4.9091
     4.9722   4.9884   4.9972   5.0430   5.0910   5.1214   5.1949   5.2087
     5.2358   5.3011   5.3580   5.3596   5.3840   5.4177   5.4193   5.4538
     5.5316   5.5486   5.5736   5.5816   5.6314   5.6537   5.6614   5.6944
     5.7196   5.7741   5.7763   5.8597   5.8678   5.8892   5.8992   5.9227
     5.9435   5.9549   5.9886   6.0030   6.0228   6.0709   6.0718   6.1041
     6.1420   6.1657   6.1740   6.2432   6.2435   6.3120   6.3284   6.3305
     6.4223   6.4660   6.5200   6.5539   6.5574   6.5787   6.6186   6.6225
     6.6531   6.6705   6.7207   6.7308   6.7354   6.7443   6.7759   6.7983
     6.8157   6.8460   6.8549   6.8628   6.9001   6.9100   6.9193   6.9309
     6.9653   6.9905   6.9950   7.0006   7.0823   7.1002   7.1055   7.1127
     7.1221   7.1464   7.1718   7.1924   7.2070   7.2675   7.2934   7.3190
     7.3259   7.3701   7.3815   7.3981   7.4163   7.4267   7.4634   7.4850
     7.4895   7.5147   7.5652   7.5903   7.5973   7.6661   7.6719   7.7009
     7.7157   7.7526   7.8110   7.8478   7.8793   7.8877   7.9010   7.9035
     7.9309   7.9613   7.9835   7.9889   7.9987   8.0642   8.0818   8.1425
     8.1444   8.1667   8.1927   8.1939   8.1999   8.2943   8.3200   8.3209
     8.3468   8.3775   8.3798   8.4463   8.4497   8.4892   8.5187   8.5297
     8.5842   8.5959   8.6215   8.6562   8.7048   8.7338   8.7411   8.7540
     8.7682   8.7846   8.8277   8.8598   8.8777   8.8832   8.8933   8.9003
     8.9318   8.9374   8.9404   8.9466   8.9496   8.9572   8.9726   9.0182
     9.0408   9.0744   9.0908   9.1329   9.1345   9.1809   9.1842   9.2023
     9.2144   9.2371   9.2425   9.2579   9.2648   9.3129   9.3746   9.4098
     9.4433   9.4578   9.4611   9.5522   9.5528   9.5939   9.6225   9.6410
     9.6557   9.6733   9.6966   9.7038   9.7071   9.7177   9.7304   9.7558
     9.7856   9.8169   9.8181   9.8401   9.8562   9.8784   9.8943   9.9053
     9.9337   9.9615   9.9724   9.9864  10.0191  10.0251  10.0649  10.0776
    10.1457  10.1929  10.2131  10.2347  10.2929  10.3103  10.3345  10.3410
    10.3721  10.3877  10.4016  10.4408  10.4518  10.5391  10.5542  10.5685
    10.6060  10.6208  10.6277  10.6330  10.6400  10.6812  10.6903  10.7411
    10.7444  10.7448  10.7461  10.7755  10.7946  10.8458  10.8579  10.8775
    10.8962  10.9020  10.9044  10.9358  10.9436  10.9691  10.9844  11.0145
    11.0279  11.0374  11.0705  11.0999

     the Fermi energy is    -1.9179 ev

     Writing output data file AGNR_10_Defect_I.save/

     init_run     :     16.25s CPU     16.74s WALL (       1 calls)
     electrons    :   9798.37s CPU   9873.53s WALL (       1 calls)

     Called by init_run:
     wfcinit      :      0.00s CPU      0.00s WALL (       1 calls)
     potinit      :      0.99s CPU      1.08s WALL (       1 calls)
     hinit0       :     12.51s CPU     12.63s WALL (       1 calls)

     Called by electrons:
     c_bands      :   9798.36s CPU   9873.50s WALL (       1 calls)
     v_of_rho     :      0.77s CPU      0.81s WALL (       1 calls)
     newd         :      0.70s CPU      0.93s WALL (       1 calls)

     Called by c_bands:
     init_us_2    :      1.09s CPU      1.30s WALL (      26 calls)
     cegterg      :   9629.53s CPU   9693.72s WALL (     131 calls)

     Called by sum_band:

     Called by *egterg:
     h_psi        :   2638.36s CPU   2665.65s WALL (    2479 calls)
     s_psi        :    377.51s CPU    378.32s WALL (    2479 calls)
     g_psi        :     13.38s CPU     13.42s WALL (    2322 calls)
     cdiaghg      :   3988.23s CPU   3993.12s WALL (    2348 calls)

     Called by h_psi:
     h_psi:pot    :   2620.87s CPU   2641.01s WALL (    2479 calls)
     h_psi:calbec :    354.06s CPU    357.26s WALL (    2479 calls)
     vloc_psi     :   1887.79s CPU   1903.91s WALL (    2479 calls)
     add_vuspsi   :    378.99s CPU    379.81s WALL (    2479 calls)

     General routines
     calbec       :    354.04s CPU    357.25s WALL (    2479 calls)
     fft          :      0.94s CPU      1.02s WALL (      14 calls)
     ffts         :      0.00s CPU      0.01s WALL (       1 calls)
     fftw         :   1486.89s CPU   1499.59s WALL (  649514 calls)
     interpolate  :      0.05s CPU      0.05s WALL (       1 calls)
     davcio       :      0.00s CPU      8.18s WALL (      52 calls)

     Parallel routines
     fft_scatt_xy :    249.04s CPU    250.67s WALL (  649529 calls)
     fft_scatt_yz :    239.94s CPU    242.32s WALL (  649529 calls)

     PWSCF        :     2h43m CPU       43h 2m WALL

      49h

   This run was terminated on:   1: 3: 5  21Dec2021            

=------------------------------------------------------------------------------=
   JOB DONE.
=------------------------------------------------------------------------------=
