
     Program PWSCF v.6.3 starts on 20Dec2021 at 20: 8:13 

     This program is part of the open-source Quantum ESPRESSO suite
     for quantum simulation of materials; please cite
         "P. Giannozzi et al., J. Phys.:Condens. Matter 21 395502 (2009);
         "P. Giannozzi et al., J. Phys.:Condens. Matter 29 465901 (2017);
          URL http://www.quantum-espresso.org", 
     in publications or presentations arising from this work. More details at
     http://www.quantum-espresso.org/quote

     Parallel version (MPI), running on    16 processors
     R & G space division:  proc/nbgrp/npool/nimage =      16
     Waiting for input...
     Reading input from standard input
     Message from routine read_cards :
     DEPRECATED: no units specified in CELL_PARAMETERS card

     Current dimensions of program PWSCF are:
     Max number of different atomic species (ntypx) = 10
     Max number of k-points (npk) =  40000
     Max angular momentum in pseudopotentials (lmaxx) =  3

     Atomic positions and unit cell read from directory:
     /home/zfwang/scratch/GNRDATASET/AGNR/AGNR_10_Defect_J/AGNR_10_Defect_J.save/


     Subspace diagonalization in iterative solution of the eigenvalue problem:
     a serial algorithm will be used


     Parallelization info
     --------------------
     sticks:   dense  smooth     PW     G-vecs:    dense   smooth      PW
     Min        1795     598    154               268889    51736    6769
     Max        1797     599    155               268893    51739    6771
     Sum       28723    9573   2475              4302255   827793  108323



     bravais-lattice index     =            0
     lattice parameter (alat)  =       1.8897  a.u.
     unit-cell volume          =   24226.2045 (a.u.)^3
     number of atoms/cell      =           92
     number of atomic types    =            2
     number of electrons       =       320.00
     number of Kohn-Sham states=          500
     kinetic-energy cutoff     =      40.0000  Ry
     charge density cutoff     =     480.0000  Ry
     Exchange-correlation      = PBE ( 1  4  3  4 0 0)

     celldm(1)=  18.897261  celldm(2)=   2.106780  celldm(3)=   1.704000
     celldm(4)=   0.000000  celldm(5)=   0.000000  celldm(6)=   0.000000

     crystal axes: (cart. coord. in units of alat)
               a(1) = (  10.000000   0.000000   0.000000 )  
               a(2) = (   0.000000  21.067800   0.000000 )  
               a(3) = (   0.000000   0.000000  17.040000 )  

     reciprocal axes: (cart. coord. in units 2 pi/alat)
               b(1) = (  0.100000  0.000000  0.000000 )  
               b(2) = (  0.000000  0.047466  0.000000 )  
               b(3) = (  0.000000  0.000000  0.058685 )  


     PseudoPot. # 1 for C  read from file:
     /home/zfwang/hp_home/MySoftware/qe-6.3/pseudo/C.pbe-n-rrkjus_psl.0.1.UPF
     MD5 check sum: fff530ed632a789b3b184014e67dd7f1
     Pseudo is Ultrasoft + core correction, Zval =  4.0
     Generated using "atomic" code by A. Dal Corso v.5.0.2 svn rev. 9415
     Using radial grid of 1073 points,  4 beta functions with: 
                l(1) =   0
                l(2) =   0
                l(3) =   1
                l(4) =   1
     Q(r) pseudized with 0 coefficients 


     PseudoPot. # 2 for H  read from file:
     /home/zfwang/hp_home/MySoftware/qe-6.3/pseudo/H.pbe-rrkjus_psl.0.1.UPF
     MD5 check sum: e164a6907b691c6980f16942be34de84
     Pseudo is Ultrasoft, Zval =  1.0
     Generated using "atomic" code by A. Dal Corso v.5.0.2 svn rev. 9415
     Using radial grid of  929 points,  2 beta functions with: 
                l(1) =   0
                l(2) =   0
     Q(r) pseudized with 0 coefficients 


     atomic species   valence    mass     pseudopotential
        C              4.00    12.01070     C ( 1.00)
        H              1.00     1.00794     H ( 1.00)

     No symmetry found



   Cartesian axes

     site n.     atom                  positions (alat units)
         1           C   tau(   1) = (   4.9999999   6.0565035   0.6833309  )
         2           C   tau(   2) = (   5.0000001   6.0599888   4.9445094  )
         3           C   tau(   3) = (   5.0000004   6.0626592   9.2031013  )
         4           C   tau(   4) = (   5.0000001   6.0582814  13.4620591  )
         5           C   tau(   5) = (   4.9999999   7.2624695   1.4142049  )
         6           C   tau(   6) = (   5.0000000   7.2673316   5.6740293  )
         7           C   tau(   7) = (   5.0000000   7.2694344   9.9333171  )
         8           C   tau(   8) = (   5.0000002   7.2635320  14.1936933  )
         9           C   tau(   9) = (   5.0000001   6.0582802   3.5779416  )
        10           C   tau(  10) = (   5.0000003   6.0626583   7.8368996  )
        11           C   tau(  11) = (   5.0000001   6.0599901  12.0954917  )
        12           C   tau(  12) = (   5.0000000   6.0565047  16.3566703  )
        13           C   tau(  13) = (   4.9999998   8.4919076   0.7109226  )
        14           C   tau(  14) = (   4.9999998   8.4960166   4.9709245  )
        15           C   tau(  15) = (   4.9999997   8.4994428   9.2313301  )
        16           C   tau(  16) = (   5.0000001   8.4937374  13.4912798  )
        17           C   tau(  17) = (   4.9999997   9.7306227   1.4217007  )
        18           C   tau(  18) = (   4.9999996   9.7364263   5.6815022  )
        19           C   tau(  19) = (   4.9999996   9.7388228   9.9428759  )
        20           C   tau(  20) = (   5.0000001   9.7309866  14.2034518  )
        21           C   tau(  21) = (   4.9999999   7.2635311   2.8463078  )
        22           C   tau(  22) = (   5.0000000   7.2694336   7.1066842  )
        23           C   tau(  23) = (   5.0000001   7.2673325  11.3659719  )
        24           C   tau(  24) = (   5.0000001   7.2624706  15.6257960  )
        25           C   tau(  25) = (   4.9999999   8.4937368   3.5487212  )
        26           C   tau(  26) = (   4.9999997   8.4994424   7.8086718  )
        27           C   tau(  27) = (   5.0000001   8.4960174  12.0690772  )
        28           C   tau(  28) = (   5.0000000   8.4919080  16.3290781  )
        29           C   tau(  29) = (   4.9999997  10.9612151   0.7114007  )
        30           C   tau(  30) = (   4.9999996  10.9660948   4.9708209  )
        31           C   tau(  31) = (   4.9999996  10.9718052   9.2352314  )
        32           C   tau(  32) = (   5.0000000  10.9627196  13.4951110  )
        33           C   tau(  33) = (   4.9999998  12.1923989   1.4176433  )
        34           C   tau(  34) = (   4.9999997  12.1971079   5.6766093  )
        35           C   tau(  35) = (   4.9999997  12.1975911   9.9425217  )
        36           C   tau(  36) = (   5.0000000  12.1890146  14.2037568  )
        37           C   tau(  37) = (   4.9999997   9.7309864   2.8365495  )
        38           C   tau(  38) = (   4.9999996   9.7388225   7.0971261  )
        39           C   tau(  39) = (   4.9999999   9.7364268  11.3584998  )
        40           C   tau(  40) = (   5.0000000   9.7306235  15.6183004  )
        41           C   tau(  41) = (   4.9999996  10.9627191   3.5448908  )
        42           C   tau(  42) = (   4.9999996  10.9718052   7.8047707  )
        43           C   tau(  43) = (   4.9999999  10.9660953  12.0691813  )
        44           C   tau(  44) = (   4.9999998  10.9612155  16.3286007  )
        45           C   tau(  45) = (   5.0000001  13.4274705   0.7057904  )
        46           C   tau(  46) = (   4.9999999  13.4312270   4.9616828  )
        47           C   tau(  47) = (   4.9999999  13.4401984   9.2315251  )
        48           C   tau(  48) = (   5.0000001  13.4266191  13.4949161  )
        49           C   tau(  49) = (   5.0000002  14.6657943   1.4107974  )
        50           C   tau(  50) = (   5.0000001  14.6734621   5.6619840  )
        51           C   tau(  51) = (   5.0000000  14.6694149   9.9346005  )
        52           C   tau(  52) = (   5.0000001  14.6529138  14.2093910  )
        53           C   tau(  53) = (   4.9999997  12.1890146   2.8362450  )
        54           C   tau(  54) = (   4.9999998  12.1975913   7.0974801  )
        55           C   tau(  55) = (   4.9999998  12.1971075  11.3633925  )
        56           C   tau(  56) = (   4.9999999  12.1923993  15.6223586  )
        57           C   tau(  57) = (   4.9999997  13.4266195   3.5450854  )
        58           C   tau(  58) = (   5.0000001  13.4401990   7.8084765  )
        59           C   tau(  59) = (   5.0000000  13.4312262  12.0783190  )
        60           C   tau(  60) = (   5.0000001  13.4274710  16.3342113  )
        61           C   tau(  61) = (   5.0000004  15.9052929   0.7130988  )
        62           C   tau(  62) = (   5.0000004  15.8626553   4.9403928  )
        63           C   tau(  63) = (   5.0000003  15.8695429   9.2056222  )
        64           C   tau(  64) = (   5.0000000  15.8826329  13.4933849  )
        65           C   tau(  65) = (   5.0000004  17.1169994   1.4630895  )
        66           C   tau(  66) = (   4.9999997  17.1078403  14.2139213  )
        67           C   tau(  67) = (   5.0000000  14.6529146   2.8306112  )
        68           C   tau(  68) = (   5.0000002  14.6694161   7.1054010  )
        69           C   tau(  69) = (   5.0000000  14.6734612  11.3780177  )
        70           C   tau(  70) = (   5.0000002  14.6657944  15.6292042  )
        71           C   tau(  71) = (   5.0000004  15.8826341   3.5466169  )
        72           C   tau(  72) = (   5.0000004  15.8695441   7.8343791  )
        73           C   tau(  73) = (   5.0000002  15.8626537  12.0996096  )
        74           C   tau(  74) = (   5.0000003  15.9052934  16.3269030  )
        75           C   tau(  75) = (   5.0000006  17.1078411   2.8260815  )
        76           C   tau(  76) = (   4.9999999  17.1170001  15.5769122  )
        77           H   tau(  77) = (   4.9999999   5.1004896   1.1999850  )
        78           H   tau(  78) = (   5.0000002   5.1041450   5.4615917  )
        79           H   tau(  79) = (   5.0000009   5.1065555   9.7198164  )
        80           H   tau(  80) = (   5.0000000   5.1019639  13.9782182  )
        81           H   tau(  81) = (   5.0000002   5.1019627   3.0617816  )
        82           H   tau(  82) = (   5.0000006   5.1065536   7.3201850  )
        83           H   tau(  83) = (   5.0000001   5.1041457  11.5784102  )
        84           H   tau(  84) = (   4.9999997   5.1004918  15.8400152  )
        85           H   tau(  85) = (   5.0000005  16.8233356   5.4511340  )
        86           H   tau(  86) = (   5.0000004  16.8268482   9.7204385  )
        87           H   tau(  87) = (   5.0000003  18.0741943   0.9467433  )
        88           H   tau(  88) = (   4.9999995  18.0442746  13.6544607  )
        89           H   tau(  89) = (   5.0000003  16.8268508   7.3195638  )
        90           H   tau(  90) = (   5.0000002  16.8233346  11.5888692  )
        91           H   tau(  91) = (   5.0000007  18.0442755   3.3855420  )
        92           H   tau(  92) = (   5.0000000  18.0741960  16.0932581  )

     number of k points=    26  Marzari-Vanderbilt smearing, width (Ry)=  0.0100
                       cart. coord. in units 2pi/alat
        k(    1) = (   0.0000000   0.0000000   0.0000000), wk =   0.0400000
        k(    2) = (   0.0000000   0.0000000   0.0011737), wk =   0.0800000
        k(    3) = (   0.0000000   0.0000000   0.0023474), wk =   0.0800000
        k(    4) = (   0.0000000   0.0000000   0.0035211), wk =   0.0800000
        k(    5) = (   0.0000000   0.0000000   0.0046948), wk =   0.0800000
        k(    6) = (   0.0000000   0.0000000   0.0058685), wk =   0.0800000
        k(    7) = (   0.0000000   0.0000000   0.0070423), wk =   0.0800000
        k(    8) = (   0.0000000   0.0000000   0.0082160), wk =   0.0800000
        k(    9) = (   0.0000000   0.0000000   0.0093897), wk =   0.0800000
        k(   10) = (   0.0000000   0.0000000   0.0105634), wk =   0.0800000
        k(   11) = (   0.0000000   0.0000000   0.0117371), wk =   0.0800000
        k(   12) = (   0.0000000   0.0000000   0.0129108), wk =   0.0800000
        k(   13) = (   0.0000000   0.0000000   0.0140845), wk =   0.0800000
        k(   14) = (   0.0000000   0.0000000   0.0152582), wk =   0.0800000
        k(   15) = (   0.0000000   0.0000000   0.0164319), wk =   0.0800000
        k(   16) = (   0.0000000   0.0000000   0.0176056), wk =   0.0800000
        k(   17) = (   0.0000000   0.0000000   0.0187793), wk =   0.0800000
        k(   18) = (   0.0000000   0.0000000   0.0199531), wk =   0.0800000
        k(   19) = (   0.0000000   0.0000000   0.0211268), wk =   0.0800000
        k(   20) = (   0.0000000   0.0000000   0.0223005), wk =   0.0800000
        k(   21) = (   0.0000000   0.0000000   0.0234742), wk =   0.0800000
        k(   22) = (   0.0000000   0.0000000   0.0246479), wk =   0.0800000
        k(   23) = (   0.0000000   0.0000000   0.0258216), wk =   0.0800000
        k(   24) = (   0.0000000   0.0000000   0.0269953), wk =   0.0800000
        k(   25) = (   0.0000000   0.0000000   0.0281690), wk =   0.0800000
        k(   26) = (   0.0000000   0.0000000  -0.0293427), wk =   0.0400000

     Dense  grid:  4302255 G-vectors     FFT dimensions: ( 135, 288, 225)

     Smooth grid:   827793 G-vectors     FFT dimensions: (  80, 162, 135)

     Estimated max dynamical RAM per process >     977.17 MB

     Estimated total dynamical RAM >      15.27 GB

     The potential is recalculated from file :
     /home/zfwang/scratch/GNRDATASET/AGNR/AGNR_10_Defect_J/AGNR_10_Defect_J.save/charge-density.dat


     negative rho (up, down):  1.494E-04 0.000E+00
     Starting wfcs are  320 randomized atomic wfcs +  180 random wfcs

     Band Structure Calculation
     Davidson diagonalization with overlap
     c_bands:  1 eigenvalues not converged
     c_bands:  1 eigenvalues not converged
     c_bands:  1 eigenvalues not converged
     c_bands:  1 eigenvalues not converged
     c_bands:  1 eigenvalues not converged

     ethr =  3.13E-09,  avg # of iterations = 93.9

     total cpu time spent up to now is     9150.0 secs

     End of band structure calculation

          k = 0.0000 0.0000 0.0000 (103407 PWs)   bands (ev):

   -21.1451 -20.7778 -20.7768 -20.6367 -20.2778 -20.2634 -19.8619 -19.6919
   -19.6760 -19.5101 -19.4430 -19.2462 -19.0897 -18.8170 -18.5624 -18.4860
   -18.2734 -18.1501 -17.8855 -17.8823 -17.6254 -17.5420 -17.4468 -17.3275
   -17.3057 -16.9393 -16.9322 -16.6522 -16.6271 -16.3599 -16.2125 -16.2091
   -15.9321 -15.8643 -15.8630 -15.4204 -15.2785 -14.8963 -14.7273 -14.5778
   -14.5028 -14.4040 -14.3045 -14.1783 -14.1377 -14.0074 -13.7846 -13.5721
   -13.1584 -12.9289 -12.8757 -12.8437 -12.7787 -12.3918 -12.3848 -12.3530
   -12.3163 -12.0956 -12.0172 -12.0135 -11.8357 -11.4327 -11.3782 -11.3742
   -10.9960 -10.7938 -10.6908 -10.6834 -10.5566 -10.4750 -10.3842 -10.3683
   -10.0842 -10.0707  -9.8349  -9.6982  -9.6882  -9.6101  -9.4874  -9.3790
    -9.2755  -9.2467  -9.2382  -9.2196  -8.9319  -8.8892  -8.8359  -8.7823
    -8.7801  -8.6373  -8.5854  -8.5135  -8.5126  -8.4627  -8.3964  -8.3577
    -8.3567  -8.3099  -8.2576  -8.2083  -8.2014  -8.1994  -8.1480  -8.0810
    -8.0663  -7.8493  -7.7969  -7.7683  -7.7551  -7.7419  -7.6594  -7.4943
    -7.4925  -7.3364  -7.2770  -7.2448  -7.2294  -7.1912  -7.0773  -7.0085
    -6.9863  -6.9702  -6.8633  -6.7470  -6.7394  -6.5926  -6.4411  -6.3998
    -6.2884  -6.1518  -6.1150  -6.0859  -5.9908  -5.9632  -5.9172  -5.8782
    -5.8025  -5.7639  -5.4972  -5.4944  -5.2640  -5.1720  -5.1418  -5.1288
    -5.0981  -4.9269  -4.9098  -4.7030  -4.5643  -4.3324  -4.2408  -4.1171
    -4.0147  -3.9108  -3.8976  -3.6471  -3.6031  -3.2635  -2.6491  -2.2822
    -1.3370  -0.9570  -0.5096  -0.2335  -0.1981  -0.1322   0.0752   0.0957
     0.1680   0.5241   0.5266   0.7451   0.8180   1.1471   1.1694   1.3026
     1.4317   1.4645   1.4785   1.5100   1.6366   1.6462   1.7714   1.9094
     1.9214   1.9313   1.9320   2.0101   2.0173   2.0847   2.3405   2.5229
     2.5330   2.5792   2.6195   2.6952   2.7634   2.8354   2.8364   2.9790
     2.9805   3.0745   3.0908   3.1503   3.1669   3.1743   3.2357   3.2641
     3.2824   3.3613   3.4085   3.4287   3.4545   3.4874   3.5275   3.5365
     3.6726   3.6833   3.7552   3.7696   3.8223   3.9228   3.9586   4.0454
     4.0582   4.0770   4.1685   4.1908   4.2480   4.3331   4.3788   4.4508
     4.4522   4.4692   4.5043   4.5471   4.5912   4.5921   4.6662   4.6857
     4.7269   4.7564   4.7587   4.7796   4.8046   4.8184   4.8829   4.9069
     4.9570   4.9622   5.0651   5.0835   5.0988   5.1203   5.1790   5.1863
     5.2024   5.2283   5.2499   5.3243   5.3254   5.3336   5.3448   5.3609
     5.4390   5.4518   5.4868   5.5100   5.6749   5.7047   5.7277   5.7690
     5.8932   5.9175   5.9342   5.9763   5.9837   5.9939   5.9986   6.0045
     6.0053   6.0143   6.0546   6.0578   6.1317   6.1871   6.2005   6.2338
     6.2425   6.2609   6.2730   6.2786   6.2988   6.3725   6.3920   6.4063
     6.4340   6.4474   6.5120   6.5180   6.5298   6.5320   6.5429   6.5786
     6.5930   6.6297   6.6991   6.7079   6.7087   6.7412   6.7530   6.7812
     6.8179   6.8325   6.8589   6.8730   6.8735   6.9111   6.9672   6.9826
     7.0051   7.0426   7.0673   7.0839   7.1297   7.1356   7.1540   7.1996
     7.2099   7.2468   7.2690   7.2779   7.3038   7.3096   7.3315   7.3482
     7.3486   7.3587   7.3800   7.4795   7.4893   7.5046   7.5222   7.5245
     7.5611   7.5816   7.6112   7.6214   7.6556   7.6783   7.6958   7.7035
     7.7370   7.7385   7.7643   7.8028   7.8149   7.8194   7.8223   7.9192
     7.9374   7.9779   7.9915   7.9983   8.0073   8.0194   8.0447   8.0919
     8.1242   8.1643   8.1811   8.2555   8.2696   8.3534   8.3573   8.3873
     8.4039   8.4043   8.4303   8.4535   8.5256   8.5411   8.5958   8.5990
     8.6067   8.6085   8.6258   8.6768   8.6820   8.6984   8.7172   8.7389
     8.7728   8.7740   8.7899   8.7968   8.7974   8.8342   8.8957   8.9448
     8.9502   8.9995   9.0282   9.0349   9.0509   9.0583   9.0887   9.1789
     9.1871   9.2050   9.2236   9.2409   9.2419   9.2428   9.2812   9.2995
     9.3034   9.3145   9.3336   9.3699   9.3837   9.4222   9.4223   9.4369
     9.4406   9.4773   9.4883   9.5101   9.5271   9.5293   9.5368   9.5742
     9.5906   9.5965   9.6154   9.6543   9.6731   9.7345   9.7428   9.7619
     9.7937   9.8707   9.8999   9.9348   9.9412   9.9450   9.9489   9.9759
     9.9800  10.0191  10.0344  10.0350  10.0496  10.0502  10.0685  10.0693
    10.0847  10.0931  10.1665  10.1894  10.1962  10.2615  10.3023  10.3185
    10.3290  10.3387  10.5287  10.5324  10.5457  10.6068  10.6179  10.6897
    10.7016  10.7253  10.7329  10.7421  10.7709  10.7786  10.7803  10.7869
    10.8036  10.8148  10.8184  10.8269  10.8380  10.8835  10.8975  10.9002
    10.9089  10.9451  10.9541  10.9742  11.0338  11.0485  11.0497  11.0556
    11.0744  11.1352  11.1410  11.1597

          k = 0.0000 0.0000 0.0012 (103433 PWs)   bands (ev):

   -21.1449 -20.7915 -20.7629 -20.6365 -20.2861 -20.2547 -19.8618 -19.7128
   -19.6553 -19.5119 -19.4407 -19.2505 -19.0851 -18.8170 -18.5659 -18.4836
   -18.2739 -18.1480 -17.9252 -17.8423 -17.6270 -17.5469 -17.4427 -17.3470
   -17.2839 -16.9397 -16.9330 -16.6691 -16.6085 -16.3615 -16.2126 -16.2073
   -15.9376 -15.8747 -15.8505 -15.4235 -15.2779 -14.8933 -14.7318 -14.5775
   -14.5000 -14.4005 -14.3062 -14.1762 -14.1372 -14.0078 -13.7846 -13.5726
   -13.1578 -12.9305 -12.8859 -12.8330 -12.7780 -12.4476 -12.3754 -12.3281
   -12.3012 -12.0949 -12.0193 -12.0065 -11.8343 -11.4327 -11.3953 -11.3574
   -10.9951 -10.7976 -10.7170 -10.6546 -10.5591 -10.4757 -10.3830 -10.3664
   -10.1045 -10.0518  -9.8345  -9.6967  -9.6916  -9.6062  -9.4889  -9.3801
    -9.3158  -9.2379  -9.2194  -9.2032  -8.9364  -8.8849  -8.8360  -8.7981
    -8.7641  -8.6370  -8.5912  -8.5198  -8.5047  -8.4774  -8.3837  -8.3717
    -8.3548  -8.2945  -8.2597  -8.2209  -8.2016  -8.1865  -8.1490  -8.0792
    -8.0657  -7.8483  -7.7980  -7.7710  -7.7550  -7.7362  -7.6591  -7.5256
    -7.4617  -7.3390  -7.2733  -7.2460  -7.2301  -7.1933  -7.0749  -7.0124
    -6.9822  -6.9788  -6.8544  -6.7688  -6.7174  -6.5925  -6.4522  -6.3894
    -6.2910  -6.1508  -6.1380  -6.0637  -5.9922  -5.9629  -5.9182  -5.8746
    -5.8122  -5.7537  -5.5392  -5.4524  -5.2643  -5.1840  -5.1305  -5.1293
    -5.0984  -4.9583  -4.8781  -4.7023  -4.5644  -4.3341  -4.2469  -4.1129
    -4.0109  -3.9117  -3.8975  -3.6585  -3.5919  -3.2646  -2.6495  -2.2844
    -1.3348  -0.9567  -0.5084  -0.2386  -0.1933  -0.1306   0.0703   0.1012
     0.1680   0.4876   0.5621   0.7423   0.8212   1.1473   1.1642   1.3078
     1.4219   1.4319   1.5102   1.5211   1.6216   1.6616   1.7706   1.8671
     1.8988   1.9422   1.9879   1.9940   2.0335   2.0853   2.3361   2.5194
     2.5362   2.5795   2.6233   2.6957   2.7554   2.8354   2.8439   2.9722
     2.9816   3.0646   3.1020   3.1523   3.1664   3.1736   3.2251   3.2759
     3.2832   3.3622   3.4034   3.4202   3.4626   3.4925   3.4979   3.5710
     3.6582   3.6975   3.7554   3.7651   3.8263   3.9235   3.9588   4.0223
     4.0473   4.1008   4.1642   4.2060   4.2481   4.3299   4.3796   4.4327
     4.4625   4.4713   4.5012   4.5549   4.5618   4.6160   4.6663   4.6857
     4.7226   4.7426   4.7746   4.7807   4.8036   4.8264   4.8739   4.9123
     4.9389   4.9807   5.0618   5.0691   5.0947   5.1358   5.1764   5.1778
     5.1980   5.2274   5.2476   5.3186   5.3263   5.3283   5.3652   5.3787
     5.4394   5.4523   5.4872   5.5139   5.6742   5.7052   5.7284   5.7666
     5.8901   5.9095   5.9367   5.9562   5.9570   5.9767   5.9972   6.0017
     6.0363   6.0476   6.0569   6.0664   6.1339   6.1661   6.1909   6.2355
     6.2545   6.2588   6.2671   6.2902   6.3117   6.3657   6.3722   6.4286
     6.4302   6.4537   6.4900   6.4931   6.5326   6.5484   6.5595   6.5860
     6.6022   6.6301   6.6918   6.7033   6.7107   6.7324   6.7599   6.7779
     6.8256   6.8336   6.8581   6.8731   6.8805   6.9101   6.9560   6.9875
     7.0077   7.0411   7.0616   7.0814   7.1272   7.1412   7.1520   7.1831
     7.2080   7.2622   7.2695   7.2785   7.2973   7.3175   7.3336   7.3377
     7.3488   7.3665   7.3871   7.4765   7.4829   7.5038   7.5217   7.5224
     7.5564   7.5603   7.6245   7.6274   7.6435   7.6870   7.7043   7.7145
     7.7226   7.7419   7.7808   7.7887   7.7949   7.8321   7.8433   7.9208
     7.9280   7.9769   7.9796   8.0008   8.0104   8.0407   8.0425   8.0926
     8.1272   8.1508   8.1965   8.2518   8.2753   8.3264   8.3533   8.3838
     8.3987   8.4202   8.4423   8.4563   8.5032   8.5608   8.5862   8.5921
     8.6058   8.6130   8.6391   8.6765   8.6825   8.6920   8.7121   8.7267
     8.7384   8.7822   8.7906   8.8032   8.8321   8.8427   8.9001   8.9451
     8.9503   8.9882   9.0284   9.0352   9.0457   9.0628   9.1050   9.1761
     9.1838   9.1879   9.2222   9.2275   9.2414   9.2457   9.2784   9.2966
     9.3148   9.3219   9.3335   9.3519   9.3819   9.4046   9.4150   9.4549
     9.4581   9.4780   9.4884   9.5146   9.5256   9.5388   9.5410   9.5713
     9.5929   9.6040   9.6151   9.6551   9.6708   9.7275   9.7506   9.7516
     9.7906   9.8707   9.9026   9.9250   9.9347   9.9469   9.9601   9.9747
     9.9766  10.0218  10.0296  10.0344  10.0416  10.0631  10.0668  10.0675
    10.0815  10.1019  10.1762  10.1848  10.2003  10.2720  10.2906  10.3116
    10.3285  10.3480  10.5269  10.5299  10.5454  10.6047  10.6199  10.6798
    10.6899  10.7239  10.7393  10.7445  10.7661  10.7678  10.7801  10.7879
    10.8069  10.8179  10.8197  10.8313  10.8538  10.8787  10.8882  10.9091
    10.9117  10.9379  10.9540  10.9797  11.0245  11.0357  11.0494  11.0713
    11.0879  11.1232  11.1373  11.1562

          k = 0.0000 0.0000 0.0023 (103431 PWs)   bands (ev):

   -21.1445 -20.8054 -20.7483 -20.6359 -20.2988 -20.2412 -19.8615 -19.7399
   -19.6290 -19.5162 -19.4345 -19.2620 -19.0724 -18.8169 -18.5752 -18.4775
   -18.2751 -18.1421 -17.9661 -17.8006 -17.6323 -17.5586 -17.4341 -17.3703
   -17.2523 -16.9405 -16.9357 -16.6921 -16.5805 -16.3659 -16.2124 -16.2028
   -15.9514 -15.8865 -15.8346 -15.4328 -15.2762 -14.8843 -14.7445 -14.5765
   -14.4918 -14.3904 -14.3112 -14.1705 -14.1355 -14.0088 -13.7847 -13.5738
   -13.1561 -12.9358 -12.9030 -12.8144 -12.7755 -12.5080 -12.4091 -12.2961
   -12.2579 -12.0927 -12.0196 -11.9915 -11.8304 -11.4332 -11.4139 -11.3391
   -10.9924 -10.8112 -10.7383 -10.6246 -10.5659 -10.4764 -10.3814 -10.3595
   -10.1308 -10.0301  -9.8330  -9.7003  -9.6926  -9.5959  -9.4934  -9.3918
    -9.3572  -9.2307  -9.2189  -9.1505  -8.9466  -8.8757  -8.8357  -8.8147
    -8.7469  -8.6362  -8.6073  -8.5255  -8.5067  -8.4931  -8.4058  -8.3550
    -8.3451  -8.2702  -8.2640  -8.2367  -8.2021  -8.1697  -8.1518  -8.0744
    -8.0641  -7.8453  -7.8011  -7.7745  -7.7546  -7.7233  -7.6581  -7.5578
    -7.4316  -7.3448  -7.2640  -7.2498  -7.2325  -7.1981  -7.0694  -7.0192
    -6.9991  -6.9740  -6.8330  -6.7935  -6.6919  -6.5924  -6.4735  -6.3704
    -6.2984  -6.1716  -6.1482  -6.0327  -5.9955  -5.9617  -5.9211  -5.8645
    -5.8298  -5.7345  -5.5825  -5.4092  -5.2653  -5.2047  -5.1305  -5.1118
    -5.0993  -4.9961  -4.8391  -4.7001  -4.5647  -4.3397  -4.2615  -4.1038
    -3.9997  -3.9144  -3.8971  -3.6800  -3.5710  -3.2677  -2.6507  -2.2912
    -1.3281  -0.9560  -0.5049  -0.2496  -0.1830  -0.1259   0.0611   0.1119
     0.1678   0.4494   0.5968   0.7358   0.8292   1.1479   1.1505   1.3211
     1.3738   1.4325   1.5108   1.5691   1.6031   1.6813   1.7640   1.8146
     1.8819   1.9597   1.9753   2.0494   2.0522   2.0876   2.3239   2.5100
     2.5451   2.5803   2.6333   2.6966   2.7379   2.8355   2.8604   2.9548
     2.9847   3.0491   3.1203   3.1468   3.1647   3.1816   3.2086   3.2844
     3.2963   3.3625   3.3908   3.4122   3.4463   3.4985   3.5050   3.6106
     3.6397   3.7149   3.7544   3.7564   3.8351   3.9254   3.9592   3.9899
     4.0207   4.1359   4.1609   4.2353   4.2485   4.3214   4.3815   4.4105
     4.4575   4.4762   4.5039   4.5311   4.5707   4.6281   4.6658   4.6822
     4.7232   4.7285   4.7822   4.7945   4.8005   4.8458   4.8584   4.9166
     4.9192   5.0017   5.0454   5.0526   5.0875   5.1402   5.1676   5.1799
     5.1883   5.2208   5.2408   5.3082   5.3323   5.3429   5.3915   5.4170
     5.4410   5.4560   5.4888   5.5235   5.6724   5.7065   5.7305   5.7596
     5.8737   5.8945   5.9094   5.9206   5.9586   5.9762   5.9864   6.0042
     6.0508   6.0683   6.0858   6.0927   6.1334   6.1438   6.1691   6.2293
     6.2473   6.2554   6.2911   6.3118   6.3318   6.3439   6.3700   6.4157
     6.4393   6.4559   6.4768   6.4775   6.5267   6.5529   6.5923   6.6014
     6.6243   6.6319   6.6770   6.6887   6.7103   6.7263   6.7631   6.7822
     6.8266   6.8433   6.8560   6.8812   6.8907   6.9065   6.9411   6.9906
     7.0147   7.0373   7.0464   7.0735   7.1168   7.1470   7.1476   7.1695
     7.2091   7.2622   7.2640   7.2832   7.3069   7.3129   7.3294   7.3452
     7.3578   7.3731   7.4045   7.4666   7.4689   7.5007   7.5013   7.5178
     7.5375   7.5586   7.6007   7.6413   7.6779   7.6849   7.6957   7.7140
     7.7387   7.7528   7.7751   7.7864   7.8031   7.8488   7.8575   7.9082
     7.9257   7.9759   7.9803   8.0064   8.0134   8.0309   8.0790   8.0959
     8.1325   8.1357   8.2182   8.2462   8.2842   8.2860   8.3433   8.3643
     8.3945   8.4292   8.4638   8.4749   8.4764   8.5668   8.5781   8.5859
     8.6018   8.6221   8.6545   8.6607   8.6785   8.6975   8.6993   8.7037
     8.7172   8.7871   8.7979   8.8082   8.8487   8.8860   8.9186   8.9460
     8.9505   8.9654   9.0290   9.0360   9.0413   9.0712   9.1342   9.1541
     9.1701   9.1736   9.1953   9.2205   9.2362   9.2531   9.2655   9.2851
     9.3117   9.3290   9.3294   9.3665   9.3762   9.3824   9.4110   9.4718
     9.4801   9.4821   9.4923   9.5211   9.5224   9.5446   9.5624   9.5661
     9.5965   9.6066   9.6366   9.6611   9.6655   9.7180   9.7238   9.7620
     9.7880   9.8704   9.8834   9.9202   9.9342   9.9533   9.9618   9.9706
     9.9881  10.0055  10.0159  10.0187  10.0503  10.0603  10.0701  10.0884
    10.0903  10.1189  10.1629  10.1997  10.2255  10.2671  10.2890  10.2922
    10.3302  10.3618  10.5226  10.5227  10.5449  10.6011  10.6211  10.6497
    10.6904  10.7191  10.7285  10.7399  10.7548  10.7570  10.7826  10.7876
    10.8146  10.8186  10.8314  10.8467  10.8545  10.8783  10.9018  10.9094
    10.9210  10.9308  10.9534  10.9848  11.0100  11.0129  11.0662  11.0806
    11.0979  11.1125  11.1348  11.1539

          k = 0.0000 0.0000 0.0035 (103427 PWs)   bands (ev):

   -21.1438 -20.8191 -20.7336 -20.6348 -20.3118 -20.2269 -19.8610 -19.7672
   -19.6040 -19.5208 -19.4258 -19.2780 -19.0543 -18.8168 -18.5882 -18.4699
   -18.2765 -18.1328 -18.0067 -17.7587 -17.6425 -17.5721 -17.4309 -17.3835
   -17.2188 -16.9418 -16.9407 -16.7125 -16.5511 -16.3727 -16.2118 -16.1959
   -15.9696 -15.9016 -15.8173 -15.4475 -15.2738 -14.8699 -14.7638 -14.5748
   -14.4785 -14.3756 -14.3184 -14.1619 -14.1327 -14.0103 -13.7850 -13.5759
   -13.1533 -12.9460 -12.9187 -12.7957 -12.7704 -12.5684 -12.4486 -12.2854
   -12.1990 -12.0892 -12.0181 -11.9696 -11.8238 -11.4396 -11.4266 -11.3212
   -10.9881 -10.8362 -10.7486 -10.6034 -10.5734 -10.4731 -10.3820 -10.3473
   -10.1572 -10.0120  -9.8291  -9.7116  -9.6869  -9.5819  -9.5007  -9.4341
    -9.3663  -9.2197  -9.2180  -9.0990  -8.9580  -8.8668  -8.8338  -8.8310
    -8.7297  -8.6347  -8.6312  -8.5429  -8.5201  -8.4870  -8.4372  -8.3486
    -8.3137  -8.2765  -8.2524  -8.2417  -8.2021  -8.1554  -8.1524  -8.0673
    -8.0612  -7.8402  -7.8052  -7.7758  -7.7541  -7.7076  -7.6563  -7.5900
    -7.4066  -7.3475  -7.2565  -7.2515  -7.2372  -7.2028  -7.0658  -7.0242
    -7.0228  -6.9646  -6.8177  -6.8060  -6.6663  -6.5923  -6.4975  -6.3503
    -6.3098  -6.2063  -6.1453  -6.0042  -5.9989  -5.9580  -5.9261  -5.8494
    -5.8477  -5.7132  -5.6258  -5.3661  -5.2675  -5.2269  -5.1325  -5.1009
    -5.0929  -5.0329  -4.8006  -4.6960  -4.5654  -4.3505  -4.2779  -4.0947
    -3.9819  -3.9186  -3.8962  -3.7038  -3.5482  -3.2729  -2.6526  -2.3022
    -1.3173  -0.9548  -0.4991  -0.2624  -0.1709  -0.1185   0.0516   0.1242
     0.1676   0.4111   0.6265   0.7307   0.8395   1.1318   1.1489   1.3207
     1.3452   1.4334   1.5117   1.5848   1.6153   1.7015   1.7291   1.7926
     1.8645   1.9557   1.9795   2.0683   2.0935   2.1112   2.3059   2.4973
     2.5572   2.5814   2.6473   2.6954   2.7205   2.8353   2.8793   2.9317
     2.9903   3.0324   3.1298   3.1411   3.1598   3.1949   3.2003   3.2841
     3.3185   3.3579   3.3748   3.4108   3.4159   3.5209   3.5213   3.6213
     3.6510   3.7289   3.7413   3.7608   3.8445   3.9262   3.9593   3.9612
     3.9881   4.1601   4.1721   4.2489   4.2685   4.3098   4.3837   4.3862
     4.4415   4.4750   4.5087   4.5127   4.5882   4.6246   4.6625   4.6728
     4.7128   4.7433   4.7835   4.7964   4.8156   4.8415   4.8695   4.9015
     4.9148   5.0188   5.0220   5.0393   5.0756   5.1254   5.1522   5.1764
     5.2076   5.2106   5.2301   5.3061   5.3427   5.3675   5.4154   5.4410
     5.4663   5.4671   5.4921   5.5354   5.6695   5.7086   5.7323   5.7493
     5.8310   5.8782   5.8836   5.9004   5.9657   5.9687   5.9808   6.0121
     6.0485   6.0875   6.0943   6.1116   6.1264   6.1345   6.1834   6.2164
     6.2290   6.2533   6.3088   6.3264   6.3493   6.3538   6.3659   6.4008
     6.4225   6.4423   6.4745   6.4952   6.5302   6.5548   6.6147   6.6243
     6.6355   6.6367   6.6580   6.6782   6.7071   6.7301   6.7681   6.7912
     6.8214   6.8452   6.8558   6.8872   6.8992   6.9011   6.9440   6.9904
     7.0224   7.0260   7.0304   7.0626   7.0931   7.1422   7.1515   7.1739
     7.2125   7.2402   7.2568   7.2883   7.3021   7.3221   7.3279   7.3527
     7.3788   7.3814   7.4288   7.4466   7.4530   7.4656   7.4939   7.5152
     7.5254   7.5571   7.5933   7.6468   7.6645   7.6928   7.7185   7.7268
     7.7292   7.7488   7.7861   7.8106   7.8189   7.8448   7.8689   7.9064
     7.9328   7.9780   7.9945   8.0085   8.0179   8.0233   8.0951   8.1178
     8.1229   8.1441   8.2326   8.2405   8.2466   8.2957   8.3253   8.3525
     8.3831   8.4293   8.4485   8.4752   8.5141   8.5480   8.5630   8.5820
     8.6024   8.6302   8.6339   8.6624   8.6743   8.6829   8.6848   8.7179
     8.7265   8.7873   8.7944   8.8166   8.8605   8.9230   8.9421   8.9480
     8.9527   8.9621   9.0300   9.0358   9.0374   9.0831   9.1177   9.1357
     9.1578   9.1605   9.1856   9.2102   9.2179   9.2374   9.2625   9.2749
     9.3100   9.3149   9.3462   9.3672   9.3790   9.3838   9.4174   9.4718
     9.4903   9.4969   9.5048   9.5141   9.5318   9.5449   9.5624   9.5885
     9.5985   9.6066   9.6485   9.6599   9.6857   9.7078   9.7089   9.7732
     9.7844   9.8473   9.8692   9.9301   9.9329   9.9489   9.9622   9.9639
     9.9867   9.9936  10.0010  10.0079  10.0278  10.0762  10.0993  10.1065
    10.1130  10.1384  10.1421  10.2274  10.2446  10.2558  10.2652  10.2869
    10.3421  10.3727  10.5111  10.5184  10.5454  10.5968  10.6118  10.6295
    10.6899  10.7094  10.7116  10.7272  10.7424  10.7482  10.7830  10.7845
    10.8135  10.8226  10.8354  10.8462  10.8673  10.8926  10.9081  10.9233
    10.9299  10.9391  10.9531  10.9802  10.9913  11.0077  11.0603  11.0836
    11.0927  11.1162  11.1378  11.1528

          k = 0.0000 0.0000 0.0047 (103427 PWs)   bands (ev):

   -21.1428 -20.8325 -20.7189 -20.6332 -20.3246 -20.2122 -19.8604 -19.7945
   -19.5838 -19.5214 -19.4160 -19.2962 -19.0328 -18.8167 -18.6032 -18.4626
   -18.2773 -18.1209 -18.0469 -17.7168 -17.6585 -17.5840 -17.4425 -17.3790
   -17.1841 -16.9501 -16.9422 -16.7289 -16.5215 -16.3815 -16.2107 -16.1871
   -15.9900 -15.9207 -15.7995 -15.4667 -15.2711 -14.8510 -14.7875 -14.5725
   -14.4607 -14.3581 -14.3265 -14.1513 -14.1286 -14.0123 -13.7854 -13.5787
   -13.1494 -12.9615 -12.9314 -12.7810 -12.7598 -12.6287 -12.4913 -12.2831
   -12.1384 -12.0844 -12.0155 -11.9416 -11.8148 -11.4574 -11.4277 -11.3040
   -10.9820 -10.8680 -10.7518 -10.6038 -10.5725 -10.4614 -10.3844 -10.3320
   -10.1827  -9.9987  -9.8219  -9.7239  -9.6814  -9.5659  -9.5138  -9.4795
    -9.3648  -9.2168  -9.2059  -9.0521  -8.9670  -8.8610  -8.8470  -8.8282
    -8.7125  -8.6603  -8.6324  -8.5717  -8.5221  -8.4831  -8.4674  -8.3416
    -8.2900  -8.2822  -8.2678  -8.2199  -8.1999  -8.1582  -8.1348  -8.0596
    -8.0562  -7.8332  -7.8088  -7.7751  -7.7532  -7.6906  -7.6535  -7.6219
    -7.3964  -7.3364  -7.2669  -7.2438  -7.2376  -7.2055  -7.0697  -7.0510
    -7.0190  -6.9544  -6.8409  -6.7764  -6.6410  -6.5920  -6.5225  -6.3309
    -6.3241  -6.2409  -6.1433  -6.0007  -5.9853  -5.9485  -5.9318  -5.8635
    -5.8307  -5.6914  -5.6690  -5.3237  -5.2725  -5.2476  -5.1353  -5.1030
    -5.0791  -5.0636  -4.7642  -4.6883  -4.5669  -4.3672  -4.2915  -4.0875
    -3.9613  -3.9227  -3.8939  -3.7282  -3.5252  -3.2800  -2.6554  -2.3172
    -1.3025  -0.9531  -0.4911  -0.2758  -0.1579  -0.1087   0.0422   0.1372
     0.1671   0.3730   0.6447   0.7349   0.8502   1.1103   1.1503   1.2762
     1.3646   1.4346   1.5130   1.5669   1.6551   1.6762   1.7222   1.7954
     1.8472   1.9373   1.9988   2.0781   2.1067   2.1728   2.2843   2.4829
     2.5700   2.5829   2.6636   2.6831   2.7152   2.8343   2.8974   2.9066
     2.9983   3.0153   3.1088   3.1498   3.1612   3.1874   3.2228   3.2809
     3.3404   3.3509   3.3584   3.3744   3.4298   3.5376   3.5470   3.6035
     3.6918   3.7274   3.7351   3.7723   3.8508   3.9144   3.9464   3.9507
     3.9665   4.1604   4.2079   4.2492   4.2971   4.3006   4.3619   4.3857
     4.4229   4.4515   4.5095   4.5209   4.6061   4.6113   4.6535   4.6617
     4.7015   4.7698   4.7851   4.7940   4.8204   4.8372   4.8762   4.9049
     4.9114   4.9909   5.0204   5.0439   5.0481   5.1314   5.1316   5.1627
     5.1907   5.2167   5.2461   5.3090   5.3571   5.3974   5.4341   5.4447
     5.4854   5.4997   5.5171   5.5470   5.6661   5.7111   5.7235   5.7448
     5.7834   5.8467   5.8648   5.8965   5.9504   5.9695   5.9877   6.0183
     6.0460   6.0551   6.1080   6.1152   6.1201   6.1594   6.1887   6.2117
     6.2228   6.2587   6.3018   6.3344   6.3509   6.3708   6.3807   6.3965
     6.4098   6.4452   6.4790   6.4926   6.5455   6.5613   6.6208   6.6228
     6.6333   6.6506   6.6550   6.6788   6.7077   6.7433   6.7788   6.8006
     6.8100   6.8419   6.8556   6.8765   6.8862   6.9271   6.9597   6.9880
     7.0061   7.0136   7.0330   7.0523   7.0766   7.1338   7.1502   7.1844
     7.2112   7.2123   7.2579   7.2841   7.3029   7.3215   7.3271   7.3630
     7.3803   7.4032   7.4198   7.4268   7.4468   7.4572   7.4846   7.5071
     7.5204   7.5564   7.6036   7.6192   7.6713   7.6733   7.7173   7.7392
     7.7573   7.7677   7.7928   7.8026   7.8270   7.8622   7.8919   7.9175
     7.9400   7.9847   7.9977   8.0161   8.0256   8.0297   8.0998   8.1040
     8.1516   8.1621   8.1982   8.2298   8.2581   8.2994   8.3034   8.3536
     8.3711   8.4100   8.4421   8.4845   8.5229   8.5252   8.5483   8.5882
     8.5952   8.6065   8.6435   8.6476   8.6640   8.6732   8.7051   8.7401
     8.7415   8.7835   8.7886   8.8241   8.8637   8.9278   8.9518   8.9564
     8.9599   9.0136   9.0280   9.0313   9.0392   9.0804   9.0824   9.1067
     9.1467   9.1492   9.1585   9.1818   9.2224   9.2478   9.2716   9.2723
     9.2994   9.3038   9.3346   9.3574   9.3904   9.4105   9.4290   9.4749
     9.4910   9.5001   9.5076   9.5165   9.5369   9.5483   9.5630   9.5955
     9.5996   9.6220   9.6507   9.6550   9.6801   9.7025   9.7521   9.7804
     9.7831   9.8158   9.8657   9.9197   9.9290   9.9464   9.9544   9.9641
     9.9690   9.9802   9.9984  10.0065  10.0109  10.1015  10.1213  10.1245
    10.1277  10.1382  10.1647  10.2189  10.2267  10.2667  10.2717  10.2909
    10.3447  10.3895  10.4960  10.5112  10.5514  10.5890  10.5981  10.6144
    10.6793  10.6964  10.7001  10.7127  10.7350  10.7418  10.7708  10.7782
    10.8080  10.8228  10.8406  10.8528  10.8748  10.8973  10.9071  10.9400
    10.9407  10.9541  10.9544  10.9763  10.9837  11.0082  11.0496  11.0716
    11.0932  11.1186  11.1304  11.1365

          k = 0.0000 0.0000 0.0059 (103441 PWs)   bands (ev):

   -21.1415 -20.8456 -20.7042 -20.6310 -20.3371 -20.1972 -19.8597 -19.8214
   -19.5745 -19.5116 -19.4064 -19.3147 -19.0092 -18.8165 -18.6195 -18.4565
   -18.2769 -18.1078 -18.0856 -17.6841 -17.6705 -17.5935 -17.4609 -17.3655
   -17.1486 -16.9632 -16.9424 -16.7403 -16.4924 -16.3917 -16.2093 -16.1767
   -16.0117 -15.9435 -15.7820 -15.4896 -15.2684 -14.8353 -14.8070 -14.5696
   -14.4390 -14.3446 -14.3299 -14.1395 -14.1230 -14.0142 -13.7861 -13.5821
   -13.1446 -12.9800 -12.9427 -12.7720 -12.7425 -12.6886 -12.5362 -12.2869
   -12.0793 -12.0768 -12.0120 -11.9090 -11.8034 -11.4774 -11.4265 -11.2875
   -10.9744 -10.9024 -10.7522 -10.6177 -10.5716 -10.4408 -10.3877 -10.3148
   -10.2068  -9.9902  -9.8120  -9.7350  -9.6793  -9.5507  -9.5460  -9.5010
    -9.3607  -9.2152  -9.1899  -9.0215  -8.9636  -8.8626  -8.8579  -8.8189
    -8.6957  -8.6927  -8.6290  -8.6021  -8.5229  -8.5012  -8.4760  -8.3330
    -8.3059  -8.2829  -8.2582  -8.2055  -8.1922  -8.1567  -8.1168  -8.0542
    -8.0468  -7.8242  -7.8104  -7.7730  -7.7522  -7.6739  -7.6537  -7.6488
    -7.4008  -7.3110  -7.2808  -7.2510  -7.2229  -7.2066  -7.0803  -7.0780
    -7.0099  -6.9437  -6.8628  -6.7456  -6.6167  -6.5916  -6.5476  -6.3405
    -6.3155  -6.2723  -6.1431  -5.9999  -5.9794  -5.9496  -5.9199  -5.8746
    -5.8094  -5.7121  -5.6695  -5.2950  -5.2736  -5.2607  -5.1390  -5.1058
    -5.1050  -5.0536  -4.7338  -4.6736  -4.5696  -4.3884  -4.3015  -4.0821
    -3.9495  -3.9208  -3.8866  -3.7526  -3.5027  -3.2888  -2.6589  -2.3359
    -1.2842  -0.9509  -0.4811  -0.2890  -0.1441  -0.0972   0.0333   0.1509
     0.1663   0.3353   0.6465   0.7541   0.8598   1.0873   1.1521   1.2315
     1.3877   1.4362   1.5145   1.5496   1.6136   1.6931   1.7431   1.8099
     1.8303   1.9192   2.0184   2.0835   2.1256   2.2303   2.2640   2.4677
     2.5800   2.5846   2.6649   2.6813   2.7199   2.8301   2.8834   2.9137
     2.9983   3.0086   3.0849   3.1363   3.1809   3.1851   3.2433   3.2771
     3.3369   3.3370   3.3484   3.3672   3.4492   3.5529   3.5733   3.5873
     3.7139   3.7333   3.7347   3.7893   3.8477   3.8970   3.9131   3.9576
     3.9664   4.1613   4.2408   4.2483   4.2872   4.3159   4.3516   4.3876
     4.4042   4.4202   4.5167   4.5274   4.5965   4.6242   4.6370   4.6489
     4.6932   4.7862   4.7916   4.7949   4.7968   4.8559   4.8672   4.9112
     4.9318   4.9660   5.0020   5.0131   5.0601   5.1095   5.1484   5.1519
     5.1714   5.2025   5.2832   5.3147   5.3740   5.4273   5.4488   5.4518
     5.4981   5.5210   5.5568   5.5703   5.6623   5.6962   5.7138   5.7441
     5.7490   5.8103   5.8521   5.8943   5.9319   5.9734   5.9914   6.0156
     6.0201   6.0447   6.0934   6.1231   6.1341   6.1541   6.1911   6.2017
     6.2366   6.2830   6.2925   6.3208   6.3376   6.3773   6.4003   6.4170
     6.4304   6.4488   6.4837   6.4912   6.5466   6.5709   6.6017   6.6163
     6.6345   6.6610   6.6800   6.6836   6.7087   6.7522   6.7915   6.7996
     6.8118   6.8393   6.8537   6.8662   6.8762   6.9508   6.9608   6.9884
     6.9911   7.0037   7.0337   7.0537   7.0723   7.1171   7.1430   7.1889
     7.1973   7.2031   7.2626   7.2743   7.3077   7.3115   7.3278   7.3493
     7.3717   7.4056   7.4161   7.4192   7.4389   7.4638   7.4868   7.4878
     7.5434   7.5569   7.5892   7.6230   7.6419   7.6737   7.7121   7.7372
     7.7813   7.7970   7.8010   7.8022   7.8314   7.8896   7.9153   7.9402
     7.9468   7.9788   8.0005   8.0282   8.0408   8.0493   8.0921   8.1035
     8.1520   8.1563   8.2053   8.2289   8.2595   8.2682   8.3181   8.3561
     8.3593   8.3912   8.4389   8.4760   8.4966   8.5076   8.5575   8.5721
     8.5832   8.6153   8.6272   8.6510   8.6626   8.6733   8.7274   8.7577
     8.7618   8.7744   8.7903   8.8228   8.8692   8.9168   8.9579   8.9661
     8.9903   9.0136   9.0331   9.0401   9.0443   9.0445   9.0707   9.0920
     9.1129   9.1367   9.1469   9.1704   9.2265   9.2591   9.2776   9.2781
     9.2869   9.2944   9.3267   9.3526   9.3895   9.4404   9.4444   9.4781
     9.4917   9.4925   9.5006   9.5224   9.5307   9.5562   9.5673   9.5813
     9.5988   9.6410   9.6530   9.6657   9.6956   9.7004   9.7548   9.7826
     9.7909   9.8239   9.8575   9.9081   9.9159   9.9258   9.9502   9.9541
     9.9659   9.9718   9.9881   9.9990  10.0303  10.0951  10.1342  10.1434
    10.1463  10.1602  10.1769  10.1893  10.2242  10.2563  10.2981  10.3259
    10.3302  10.4133  10.4790  10.4952  10.5635  10.5791  10.5848  10.6016
    10.6511  10.6785  10.6988  10.7030  10.7330  10.7376  10.7546  10.7658
    10.8051  10.8265  10.8487  10.8535  10.8671  10.8884  10.9060  10.9359
    10.9541  10.9563  10.9648  10.9773  10.9968  11.0111  11.0546  11.0632
    11.0926  11.1076  11.1235  11.1365

          k = 0.0000 0.0000 0.0070 (103457 PWs)   bands (ev):

   -21.1399 -20.8585 -20.6897 -20.6280 -20.3494 -20.1820 -19.8593 -19.8476
   -19.5761 -19.4909 -19.3993 -19.3306 -18.9845 -18.8163 -18.6364 -18.4522
   -18.2750 -18.1277 -18.0891 -17.7069 -17.6312 -17.6016 -17.4794 -17.3501
   -17.1126 -16.9807 -16.9416 -16.7467 -16.4646 -16.4025 -16.2074 -16.1649
   -16.0340 -15.9698 -15.7653 -15.5154 -15.2658 -14.8546 -14.7903 -14.5662
   -14.4144 -14.3495 -14.3144 -14.1269 -14.1161 -14.0155 -13.7871 -13.5860
   -13.1393 -12.9994 -12.9544 -12.7670 -12.7463 -12.7225 -12.5826 -12.2956
   -12.0712 -12.0213 -12.0037 -11.8732 -11.7896 -11.4979 -11.4247 -11.2718
   -10.9653 -10.9373 -10.7523 -10.6344 -10.5768 -10.4212 -10.3865 -10.2965
   -10.2290  -9.9855  -9.8034  -9.7416  -9.6876  -9.5845  -9.5356  -9.5039
    -9.3548  -9.2133  -9.1725  -9.0191  -8.9400  -8.8780  -8.8519  -8.8084
    -8.7259  -8.6798  -8.6336  -8.6241  -8.5350  -8.5174  -8.4744  -8.3261
    -8.3211  -8.2976  -8.2464  -8.2005  -8.1759  -8.1478  -8.0986  -8.0487
    -8.0352  -7.8135  -7.8093  -7.7695  -7.7511  -7.6851  -7.6609  -7.6392
    -7.4104  -7.2971  -7.2806  -7.2586  -7.2087  -7.2070  -7.1036  -7.0942
    -6.9997  -6.9334  -6.8815  -6.7141  -6.5987  -6.5911  -6.5674  -6.3583
    -6.3241  -6.2804  -6.1451  -5.9959  -5.9824  -5.9600  -5.9051  -5.8722
    -5.7862  -5.7551  -5.6476  -5.3148  -5.2686  -5.2345  -5.1434  -5.1355
    -5.1092  -5.0369  -4.7136  -4.6475  -4.5744  -4.4110  -4.3091  -4.0779
    -3.9542  -3.9139  -3.8679  -3.7764  -3.4809  -3.2990  -2.6631  -2.3578
    -1.2627  -0.9483  -0.4695  -0.3018  -0.1293  -0.0845   0.0249   0.1638
     0.1660   0.2986   0.6371   0.7832   0.8673   1.0631   1.1543   1.1900
     1.4114   1.4381   1.5157   1.5334   1.5551   1.7148   1.7641   1.8140
     1.8374   1.9014   2.0379   2.0880   2.1466   2.2282   2.3016   2.4521
     2.5819   2.5867   2.6520   2.6997   2.7284   2.8178   2.8678   2.9277
     2.9814   3.0200   3.0595   3.1234   3.1853   3.1985   3.2483   3.2844
     3.3045   3.3191   3.3485   3.3907   3.4714   3.5580   3.5802   3.5985
     3.7020   3.7308   3.7750   3.8074   3.8291   3.8814   3.8918   3.9686
     3.9700   4.1623   4.2428   4.2593   4.2946   4.2955   4.3705   4.3818
     4.3885   4.3960   4.5181   4.5328   4.5883   4.6140   4.6350   4.6420
     4.6868   4.7582   4.7882   4.7933   4.8103   4.8600   4.8849   4.9138
     4.9501   4.9589   4.9772   4.9846   5.0608   5.0974   5.1348   5.1513
     5.1786   5.1894   5.3212   5.3222   5.3921   5.4433   5.4616   5.4750
     5.5074   5.5461   5.5675   5.6234   5.6544   5.6593   5.7167   5.7196
     5.7542   5.7745   5.8397   5.8939   5.9133   5.9779   5.9855   5.9902
     5.9976   6.0466   6.0914   6.1189   6.1266   6.1456   6.1881   6.2229
     6.2327   6.2785   6.3025   6.3081   6.3371   6.3891   6.4204   6.4392
     6.4557   6.4561   6.4889   6.4963   6.5433   6.5616   6.5889   6.6162
     6.6429   6.6707   6.6855   6.7081   6.7083   6.7511   6.7764   6.8163
     6.8276   6.8400   6.8414   6.8531   6.8869   6.9318   6.9777   6.9817
     6.9913   7.0066   7.0291   7.0664   7.0787   7.0885   7.1327   7.1758
     7.1928   7.2114   7.2585   7.2649   7.2884   7.3028   7.3189   7.3316
     7.3774   7.3874   7.4192   7.4238   7.4477   7.4552   7.4689   7.4988
     7.5577   7.5597   7.5843   7.6106   7.6472   7.6636   7.7062   7.7143
     7.7919   7.8081   7.8300   7.8389   7.8406   7.9046   7.9346   7.9542
     7.9659   7.9738   8.0122   8.0378   8.0535   8.0760   8.0851   8.0961
     8.1381   8.1425   8.2338   8.2340   8.2464   8.2554   8.3370   8.3408
     8.3477   8.3914   8.4160   8.4498   8.4894   8.5068   8.5414   8.5593
     8.5642   8.6114   8.6334   8.6492   8.6785   8.6795   8.7498   8.7618
     8.7684   8.7820   8.7995   8.8141   8.8847   8.9073   8.9564   8.9651
     8.9831   9.0073   9.0110   9.0250   9.0352   9.0442   9.0647   9.0951
     9.1233   9.1242   9.1515   9.1675   9.2274   9.2413   9.2664   9.2670
     9.2980   9.3151   9.3234   9.3554   9.3874   9.4456   9.4592   9.4791
     9.4836   9.4981   9.5035   9.5147   9.5263   9.5593   9.5718   9.5771
     9.5894   9.6461   9.6603   9.6856   9.7018   9.7289   9.7371   9.7782
     9.7957   9.8421   9.8461   9.8910   9.9090   9.9147   9.9466   9.9468
     9.9658   9.9664   9.9727   9.9991  10.0559  10.0830  10.1300  10.1405
    10.1574  10.1628  10.1764  10.2041  10.2355  10.2692  10.3073  10.3294
    10.3616  10.4353  10.4622  10.4727  10.5534  10.5604  10.5859  10.6085
    10.6156  10.6620  10.6944  10.6983  10.7300  10.7340  10.7386  10.7537
    10.8042  10.8318  10.8392  10.8545  10.8642  10.8655  10.9057  10.9162
    10.9502  10.9735  10.9756  10.9841  11.0082  11.0148  11.0693  11.0750
    11.0864  11.1032  11.1223  11.1273

          k = 0.0000 0.0000 0.0082 (103435 PWs)   bands (ev):

   -21.1380 -20.8711 -20.6759 -20.6238 -20.3614 -20.1665 -19.8758 -19.8566
   -19.5829 -19.4650 -19.3993 -19.3391 -18.9591 -18.8159 -18.6535 -18.4499
   -18.2717 -18.1656 -18.0725 -17.7346 -17.6115 -17.5874 -17.4961 -17.3345
   -17.0768 -17.0019 -16.9393 -16.7484 -16.4406 -16.4117 -16.2052 -16.1520
   -16.0565 -15.9988 -15.7499 -15.5430 -15.2634 -14.8866 -14.7591 -14.5625
   -14.3886 -14.3575 -14.2948 -14.1146 -14.1077 -14.0156 -13.7886 -13.5901
   -13.1341 -13.0183 -12.9669 -12.8095 -12.7561 -12.7019 -12.6299 -12.3080
   -12.0633 -12.0069 -11.9529 -11.8358 -11.7732 -11.5186 -11.4223 -11.2572
   -10.9718 -10.9547 -10.7539 -10.6508 -10.5859 -10.4201 -10.3681 -10.2768
   -10.2487  -9.9828  -9.8037  -9.7388  -9.7142  -9.6053  -9.5282  -9.4946
    -9.3476  -9.2111  -9.1543  -9.0284  -8.9216  -8.8931  -8.8357  -8.7994
    -8.7552  -8.6662  -8.6656  -8.6167  -8.5619  -8.5171  -8.4732  -8.3453
    -8.3120  -8.3110  -8.2448  -8.2042  -8.1522  -8.1351  -8.0800  -8.0421
    -8.0223  -7.8065  -7.7996  -7.7648  -7.7500  -7.7159  -7.6535  -7.6233
    -7.4216  -7.3148  -7.2664  -7.2491  -7.2074  -7.1973  -7.1250  -7.1097
    -6.9909  -6.9292  -6.8908  -6.6827  -6.6111  -6.5901  -6.5579  -6.3771
    -6.3559  -6.2661  -6.1492  -5.9952  -5.9890  -5.9661  -5.9073  -5.8490
    -5.7982  -5.7611  -5.6259  -5.3421  -5.2757  -5.1944  -5.1609  -5.1487
    -5.1133  -5.0210  -4.7013  -4.6134  -4.5820  -4.4319  -4.3155  -4.0744
    -3.9652  -3.9115  -3.8418  -3.7967  -3.4607  -3.3099  -2.6681  -2.3826
    -1.2385  -0.9451  -0.4566  -0.3134  -0.1134  -0.0712   0.0173   0.1617
     0.1797   0.2640   0.6228   0.8154   0.8719   1.0374   1.1537   1.1569
     1.4340   1.4402   1.4978   1.5114   1.5237   1.7261   1.7829   1.8006
     1.8760   1.8840   2.0565   2.0935   2.1686   2.2014   2.3622   2.4365
     2.5712   2.5891   2.6502   2.7183   2.7393   2.7956   2.8621   2.9397
     2.9648   3.0292   3.0332   3.1150   3.1866   3.2074   3.2441   3.2684
     3.3009   3.3086   3.3549   3.4150   3.4951   3.5457   3.5880   3.6197
     3.6939   3.7238   3.8032   3.8173   3.8206   3.8600   3.8940   3.9715
     3.9853   4.1632   4.2304   4.2622   4.2681   4.3210   4.3518   4.3640
     4.3986   4.4000   4.5091   4.5381   4.5880   4.5903   4.6220   4.6553
     4.6811   4.7245   4.7850   4.7900   4.8017   4.8798   4.9077   4.9187
     4.9358   4.9549   4.9596   4.9924   5.0415   5.0952   5.1204   5.1400
     5.1796   5.2083   5.3309   5.3595   5.4103   5.4497   5.4728   5.5091
     5.5162   5.5540   5.5900   5.6105   5.6501   5.6830   5.7041   5.7187
     5.7409   5.7593   5.8276   5.8944   5.8949   5.9524   5.9671   5.9837
     5.9875   6.0424   6.0868   6.1034   6.1300   6.1409   6.1946   6.1979
     6.2483   6.2766   6.2957   6.3010   6.3636   6.4065   6.4324   6.4424
     6.4673   6.4897   6.4965   6.4995   6.5392   6.5625   6.5854   6.6174
     6.6385   6.6795   6.6884   6.7172   6.7229   6.7512   6.7669   6.8195
     6.8237   6.8380   6.8457   6.8554   6.8955   6.9196   6.9757   6.9792
     7.0009   7.0111   7.0364   7.0531   7.0701   7.1009   7.1213   7.1694
     7.1840   7.2235   7.2461   7.2504   7.2555   7.2695   7.3185   7.3444
     7.3648   7.3835   7.4144   7.4331   7.4467   7.4482   7.4637   7.5137
     7.5352   7.5591   7.5792   7.6286   7.6544   7.6587   7.6824   7.7168
     7.8074   7.8093   7.8526   7.8582   7.8814   7.9212   7.9419   7.9467
     7.9783   7.9997   8.0183   8.0475   8.0632   8.0684   8.0902   8.1066
     8.1265   8.1509   8.2028   8.2339   8.2583   8.2863   8.3180   8.3361
     8.3456   8.3794   8.4035   8.4390   8.4715   8.5049   8.5212   8.5492
     8.5605   8.5953   8.6180   8.6751   8.6856   8.7031   8.7502   8.7666
     8.7724   8.7999   8.8011   8.8142   8.8938   8.9066   8.9247   8.9539
     8.9583   8.9789   8.9882   9.0377   9.0469   9.0497   9.0606   9.0843
     9.1096   9.1497   9.1547   9.1949   9.2210   9.2261   9.2490   9.2584
     9.3056   9.3215   9.3380   9.3590   9.3974   9.4407   9.4456   9.4713
     9.4761   9.4985   9.5125   9.5282   9.5346   9.5575   9.5705   9.5764
     9.5830   9.6426   9.6754   9.6826   9.7049   9.7466   9.7620   9.7843
     9.7962   9.8202   9.8458   9.8632   9.8961   9.9185   9.9378   9.9459
     9.9584   9.9646   9.9875  10.0015  10.0602  10.0812  10.0893  10.1399
    10.1717  10.1786  10.1825  10.2102  10.2609  10.2816  10.3072  10.3547
    10.3976  10.4440  10.4508  10.4538  10.5228  10.5400  10.5774  10.5890
    10.6317  10.6557  10.6805  10.6943  10.7210  10.7238  10.7309  10.7425
    10.8045  10.8158  10.8323  10.8459  10.8485  10.8777  10.8912  10.9078
    10.9427  10.9769  10.9859  10.9943  11.0218  11.0277  11.0736  11.0766
    11.0961  11.1010  11.1244  11.1314

          k = 0.0000 0.0000 0.0094 (103429 PWs)   bands (ev):

   -21.1359 -20.8834 -20.6634 -20.6178 -20.3731 -20.1508 -19.9018 -19.8556
   -19.5916 -19.4373 -19.4094 -19.3367 -18.9338 -18.8152 -18.6706 -18.4495
   -18.2682 -18.2017 -18.0547 -17.7637 -17.6207 -17.5462 -17.5094 -17.3195
   -17.0439 -17.0241 -16.9348 -16.7463 -16.4353 -16.4046 -16.2028 -16.1386
   -16.0784 -16.0297 -15.7368 -15.5711 -15.2613 -14.9212 -14.7236 -14.5586
   -14.3740 -14.3535 -14.2746 -14.1044 -14.0969 -14.0131 -13.7906 -13.5944
   -13.1301 -13.0359 -12.9802 -12.8676 -12.7499 -12.6830 -12.6756 -12.3231
   -12.0552 -12.0013 -11.8928 -11.7987 -11.7533 -11.5393 -11.4194 -11.2441
   -11.0047 -10.9432 -10.7588 -10.6654 -10.5965 -10.4308 -10.3432 -10.2689
   -10.2513  -9.9802  -9.8147  -9.7635  -9.7185  -9.6117  -9.5236  -9.4778
    -9.3390  -9.2085  -9.1358  -9.0398  -8.9190  -8.9078  -8.8282  -8.7856
    -8.7679  -8.6990  -8.6542  -8.6060  -8.5886  -8.5147  -8.4718  -8.3672
    -8.3260  -8.2993  -8.2486  -8.2106  -8.1313  -8.1202  -8.0613  -8.0337
    -8.0084  -7.7997  -7.7846  -7.7588  -7.7530  -7.7421  -7.6483  -7.6047
    -7.4334  -7.3334  -7.2746  -7.2199  -7.2084  -7.1942  -7.1342  -7.1258
    -6.9847  -6.9381  -6.8831  -6.6522  -6.6375  -6.5880  -6.5354  -6.3963
    -6.3907  -6.2492  -6.1548  -6.0146  -5.9798  -5.9684  -5.9141  -5.8407
    -5.8199  -5.7352  -5.6044  -5.3718  -5.2857  -5.1900  -5.1547  -5.1455
    -5.1179  -5.0062  -4.6921  -4.5983  -4.5714  -4.4485  -4.3214  -4.0714
    -3.9790  -3.9122  -3.8357  -3.7919  -3.4430  -3.3204  -2.6738  -2.4098
    -1.2120  -0.9415  -0.4434  -0.3229  -0.0966  -0.0578   0.0106   0.1556
     0.1937   0.2344   0.6064   0.8434   0.8764   1.0096   1.1254   1.1598
     1.4289   1.4424   1.4683   1.4976   1.5244   1.7313   1.7783   1.8113
     1.8670   1.9208   2.0726   2.1021   2.1728   2.1913   2.4209   2.4227
     2.5521   2.5918   2.6562   2.7355   2.7522   2.7698   2.8617   2.9487
     2.9502   3.0068   3.0314   3.1158   3.1886   3.1952   3.2393   3.2539
     3.2830   3.3268   3.3687   3.4394   3.5192   3.5297   3.5946   3.6312
     3.6928   3.7138   3.7797   3.8166   3.8597   3.8642   3.8980   3.9749
     4.0027   4.1629   4.2138   4.2410   4.2642   4.3198   4.3444   4.3467
     4.4100   4.4160   4.4939   4.5344   4.5713   4.5919   4.6170   4.6475
     4.6757   4.7088   4.7690   4.7828   4.7938   4.9003   4.9043   4.9244
     4.9313   4.9502   4.9632   4.9960   5.0374   5.0831   5.1041   5.1403
     5.1786   5.2396   5.3404   5.3976   5.4276   5.4553   5.4815   5.5151
     5.5440   5.5532   5.5694   5.6241   5.6472   5.6959   5.7036   5.7247
     5.7376   5.7634   5.8159   5.8751   5.8963   5.9216   5.9369   5.9752
     5.9912   6.0229   6.0809   6.1111   6.1274   6.1333   6.1634   6.2158
     6.2237   6.2795   6.2958   6.3241   6.3800   6.4129   6.4244   6.4648
     6.4764   6.4844   6.4946   6.5376   6.5514   6.5806   6.5896   6.6107
     6.6280   6.6720   6.7011   6.7167   6.7346   6.7551   6.7648   6.8140
     6.8241   6.8374   6.8497   6.8639   6.8873   6.9354   6.9675   6.9756
     6.9998   7.0195   7.0224   7.0578   7.0692   7.1102   7.1258   7.1640
     7.1773   7.2008   7.2229   7.2358   7.2469   7.2545   7.3169   7.3420
     7.3568   7.3897   7.4029   7.4265   7.4368   7.4511   7.4760   7.5114
     7.5360   7.5474   7.5608   7.6225   7.6439   7.6806   7.7057   7.7177
     7.8037   7.8277   7.8675   7.8764   7.9214   7.9240   7.9468   7.9539
     7.9989   7.9994   8.0178   8.0383   8.0701   8.0833   8.1030   8.1129
     8.1306   8.1563   8.1976   8.2239   8.2618   8.2986   8.3192   8.3236
     8.3277   8.3803   8.4113   8.4304   8.4539   8.4752   8.5147   8.5433
     8.5625   8.5794   8.6145   8.6889   8.6939   8.7339   8.7360   8.7598
     8.7901   8.7951   8.8071   8.8210   8.8661   8.9050   8.9163   8.9255
     8.9379   8.9636   8.9959   9.0406   9.0425   9.0491   9.0580   9.0968
     9.1019   9.1487   9.1535   9.1975   9.2262   9.2327   9.2417   9.2717
     9.3102   9.3195   9.3316   9.3707   9.4260   9.4268   9.4295   9.4586
     9.4672   9.4948   9.5251   9.5302   9.5472   9.5553   9.5695   9.5812
     9.5898   9.6344   9.6687   9.6903   9.7099   9.7591   9.7847   9.7849
     9.8016   9.8145   9.8365   9.8457   9.8850   9.9082   9.9301   9.9431
     9.9474   9.9680   9.9799  10.0309  10.0328  10.0567  10.0945  10.1562
    10.1649  10.1983  10.2024  10.2275  10.2593  10.2842  10.3480  10.3638
    10.4215  10.4334  10.4536  10.4557  10.4925  10.5163  10.5387  10.5907
    10.6467  10.6571  10.6762  10.6822  10.7063  10.7144  10.7259  10.7276
    10.7939  10.7968  10.8097  10.8444  10.8561  10.8746  10.8878  10.9121
    10.9362  10.9754  10.9864  11.0055  11.0356  11.0491  11.0623  11.0658
    11.1038  11.1156  11.1252  11.1347

          k = 0.0000 0.0000 0.0106 (103431 PWs)   bands (ev):

   -21.1334 -20.8954 -20.6528 -20.6093 -20.3845 -20.1350 -19.9277 -19.8542
   -19.6010 -19.4278 -19.4072 -19.3268 -18.9092 -18.8140 -18.6871 -18.4507
   -18.2714 -18.2292 -18.0367 -17.7930 -17.6319 -17.5262 -17.4982 -17.3054
   -17.0554 -17.0065 -16.9264 -16.7411 -16.4461 -16.3842 -16.2005 -16.1284
   -16.0957 -16.0617 -15.7280 -15.5976 -15.2593 -14.9572 -14.6852 -14.5546
   -14.3796 -14.3299 -14.2529 -14.0977 -14.0839 -14.0069 -13.7933 -13.5986
   -13.1294 -13.0511 -12.9938 -12.9246 -12.7488 -12.7200 -12.6603 -12.3405
   -12.0477 -11.9945 -11.8329 -11.7645 -11.7277 -11.5597 -11.4163 -11.2328
   -11.0355 -10.9309 -10.7685 -10.6772 -10.6069 -10.4458 -10.3225 -10.2844
   -10.2240  -9.9767  -9.8357  -9.8093  -9.6994  -9.6125  -9.5168  -9.4586
    -9.3291  -9.2055  -9.1179  -9.0510  -8.9265  -8.9222  -8.8516  -8.7705
    -8.7556  -8.7227  -8.6456  -8.6140  -8.5918  -8.5111  -8.4694  -8.3904
    -8.3397  -8.2880  -8.2557  -8.2165  -8.1210  -8.1010  -8.0423  -8.0225
    -7.9935  -7.7901  -7.7794  -7.7675  -7.7515  -7.7445  -7.6436  -7.5859
    -7.4452  -7.3525  -7.2827  -7.2172  -7.2109  -7.1811  -7.1414  -7.1256
    -6.9831  -6.9502  -6.8668  -6.6660  -6.6258  -6.5820  -6.5125  -6.4254
    -6.4156  -6.2325  -6.1615  -6.0367  -5.9699  -5.9691  -5.9216  -5.8829
    -5.7898  -5.7081  -5.5831  -5.4032  -5.2996  -5.2057  -5.1615  -5.1232
    -5.1041  -4.9926  -4.6845  -4.6145  -4.5326  -4.4595  -4.3271  -4.0688
    -3.9948  -3.9154  -3.8533  -3.7598  -3.4303  -3.3280  -2.6801  -2.4391
    -1.1835  -0.9375  -0.4315  -0.3289  -0.0798  -0.0446   0.0057   0.1428
     0.2007   0.2204   0.5888   0.8481   0.8969   0.9800   1.1067   1.1632
     1.3745   1.4444   1.4831   1.4878   1.5273   1.7337   1.7635   1.8326
     1.8506   1.9686   2.0838   2.1162   2.1436   2.2146   2.4055   2.4765
     2.5353   2.5948   2.6652   2.7324   2.7621   2.7667   2.8632   2.9328
     2.9598   2.9808   3.0248   3.1269   3.1692   3.1909   3.2171   3.2658
     3.2683   3.3415   3.3899   3.4634   3.5135   3.5420   3.5934   3.6312
     3.6937   3.7024   3.7681   3.8089   3.8826   3.9017   3.9032   3.9788
     4.0214   4.1590   4.1952   4.2173   4.2667   4.2887   4.3292   4.3555
     4.4241   4.4317   4.4789   4.5071   4.5771   4.5817   4.6163   4.6260
     4.6710   4.7118   4.7550   4.7632   4.7961   4.8650   4.9098   4.9345
     4.9478   4.9603   4.9741   4.9798   5.0530   5.0713   5.0933   5.1369
     5.1912   5.2717   5.3506   5.4338   5.4419   5.4628   5.4712   5.5036
     5.5456   5.5644   5.5759   5.6397   5.6493   5.6799   5.6986   5.7282
     5.7652   5.7864   5.8057   5.8578   5.8918   5.8947   5.9089   5.9561
     5.9973   6.0047   6.0824   6.1117   6.1153   6.1261   6.1496   6.1869
     6.2396   6.2843   6.2896   6.3613   6.3845   6.3955   6.4209   6.4655
     6.4869   6.4880   6.5024   6.5732   6.5792   6.5812   6.5946   6.6188
     6.6304   6.6692   6.6907   6.7054   6.7451   6.7614   6.7754   6.8128
     6.8246   6.8372   6.8527   6.8746   6.8915   6.9430   6.9457   6.9694
     7.0013   7.0028   7.0353   7.0651   7.0830   7.1047   7.1403   7.1428
     7.1643   7.1718   7.2203   7.2263   7.2269   7.2670   7.3146   7.3196
     7.3634   7.3892   7.3987   7.4046   7.4227   7.4698   7.4866   7.4968
     7.5147   7.5536   7.5674   7.5839   7.6444   7.7180   7.7255   7.7298
     7.8009   7.8443   7.8748   7.8899   7.9091   7.9524   7.9584   7.9596
     8.0027   8.0133   8.0229   8.0393   8.0750   8.0913   8.0975   8.1293
     8.1356   8.1676   8.2113   8.2304   8.2402   8.2724   8.3138   8.3185
     8.3668   8.3829   8.4091   8.4276   8.4370   8.4497   8.5003   8.5339
     8.5652   8.5693   8.6252   8.6961   8.6995   8.7207   8.7425   8.7644
     8.7722   8.7903   8.8179   8.8434   8.8468   8.8776   8.8897   8.8991
     8.9566   8.9748   9.0049   9.0247   9.0432   9.0437   9.0484   9.0888
     9.1195   9.1408   9.1592   9.1769   9.2187   9.2365   9.2618   9.3066
     9.3126   9.3180   9.3207   9.3838   9.4111   9.4161   9.4457   9.4575
     9.4642   9.4898   9.5224   9.5284   9.5394   9.5540   9.5836   9.5939
     9.6053   9.6236   9.6682   9.6963   9.7186   9.7519   9.7577   9.7928
     9.8086   9.8142   9.8407   9.8600   9.8747   9.8942   9.9276   9.9356
     9.9375   9.9689   9.9740   9.9929  10.0308  10.0549  10.1147  10.1453
    10.1928  10.2222  10.2223  10.2472  10.2535  10.3007  10.3541  10.3753
    10.4043  10.4375  10.4686  10.4688  10.4798  10.4990  10.5007  10.5870
    10.6365  10.6608  10.6635  10.6773  10.7019  10.7062  10.7133  10.7228
    10.7742  10.7759  10.8108  10.8213  10.8655  10.8848  10.8924  10.9183
    10.9352  10.9596  10.9957  11.0071  11.0466  11.0549  11.0564  11.0668
    11.1118  11.1241  11.1261  11.1351

          k = 0.0000 0.0000 0.0117 (103457 PWs)   bands (ev):

   -21.1307 -20.9072 -20.6444 -20.5980 -20.3955 -20.1191 -19.9532 -19.8526
   -19.6109 -19.4471 -19.3787 -19.3134 -18.8867 -18.8113 -18.7026 -18.4534
   -18.2951 -18.2343 -18.0194 -17.8213 -17.6448 -17.5336 -17.4567 -17.2923
   -17.0835 -16.9794 -16.9112 -16.7335 -16.4593 -16.3648 -16.1998 -16.1361
   -16.0985 -16.0878 -15.7275 -15.6180 -15.2576 -14.9942 -14.6444 -14.5508
   -14.3868 -14.3077 -14.2276 -14.0941 -14.0703 -13.9959 -13.7966 -13.6024
   -13.1344 -13.0652 -13.0067 -12.9773 -12.7832 -12.7267 -12.6404 -12.3596
   -12.0414 -11.9857 -11.7754 -11.7346 -11.6947 -11.5793 -11.4131 -11.2246
   -11.0626 -10.9184 -10.7831 -10.6873 -10.6150 -10.4629 -10.3102 -10.2977
   -10.1908  -9.9725  -9.8776  -9.8389  -9.6798  -9.6101  -9.5068  -9.4388
    -9.3180  -9.2022  -9.1022  -9.0598  -8.9413  -8.9362  -8.8799  -8.7888
    -8.7502  -8.7004  -8.6391  -8.6379  -8.5750  -8.5062  -8.4651  -8.4143
    -8.3529  -8.2786  -8.2653  -8.2200  -8.1166  -8.0844  -8.0231  -8.0089
    -7.9775  -7.8093  -7.7778  -7.7483  -7.7429  -7.7428  -7.6387  -7.5679
    -7.4570  -7.3721  -7.2903  -7.2384  -7.2158  -7.1554  -7.1543  -7.1058
    -6.9895  -6.9566  -6.8475  -6.6953  -6.6106  -6.5656  -6.4942  -6.4556
    -6.4343  -6.2163  -6.1687  -6.0601  -5.9713  -5.9588  -5.9293  -5.9231
    -5.7597  -5.6803  -5.5621  -5.4360  -5.3173  -5.2169  -5.1691  -5.1290
    -5.0617  -4.9803  -4.6809  -4.6323  -4.4929  -4.4645  -4.3328  -4.0669
    -4.0118  -3.9225  -3.8710  -3.7234  -3.4258  -3.3295  -2.6872  -2.4701
    -1.1535  -0.9328  -0.4235  -0.3288  -0.0654  -0.0317   0.0038   0.1217
     0.1940   0.2311   0.5706   0.8329   0.9247   0.9535   1.0978   1.1670
     1.3170   1.4448   1.4707   1.5102   1.5310   1.7352   1.7484   1.8337
     1.8560   2.0176   2.0912   2.1143   2.1347   2.2382   2.3904   2.4853
     2.5612   2.5982   2.6752   2.7044   2.7780   2.7822   2.8649   2.9172
     2.9567   2.9691   3.0126   3.1380   3.1445   3.1927   3.1977   3.2502
     3.2833   3.3552   3.4150   3.4855   3.4976   3.5605   3.5821   3.6262
     3.6844   3.6929   3.7776   3.8084   3.9036   3.9069   3.9456   3.9832
     4.0413   4.1469   4.1751   4.2022   4.2575   4.2710   4.3118   4.3555
     4.4239   4.4517   4.4715   4.4762   4.5608   4.5678   4.6093   4.6353
     4.6700   4.7015   4.7426   4.7617   4.7991   4.8298   4.8938   4.9355
     4.9600   4.9669   4.9770   5.0015   5.0563   5.0654   5.0980   5.1370
     5.2107   5.3038   5.3608   5.4240   5.4577   5.4578   5.4819   5.5070
     5.5347   5.5780   5.5990   5.6188   5.6618   5.6784   5.7180   5.7320
     5.7624   5.7991   5.8071   5.8657   5.8672   5.8739   5.8893   5.9397
     5.9935   6.0048   6.0758   6.0955   6.0989   6.1280   6.1505   6.1572
     6.2626   6.2800   6.2932   6.3636   6.3841   6.3996   6.4131   6.4498
     6.5014   6.5071   6.5115   6.5417   6.5966   6.6192   6.6211   6.6384
     6.6475   6.6583   6.6754   6.7019   6.7481   6.7672   6.7902   6.8056
     6.8363   6.8377   6.8564   6.8824   6.9066   6.9145   6.9442   6.9607
     6.9983   7.0057   7.0388   7.0732   7.0867   7.0940   7.1148   7.1435
     7.1490   7.1710   7.2131   7.2146   7.2376   7.2827   7.2979   7.3116
     7.3601   7.3815   7.3849   7.3925   7.4183   7.4783   7.4798   7.4952
     7.4971   7.5479   7.5636   7.5855   7.6495   7.7190   7.7470   7.7607
     7.8064   7.8553   7.8631   7.9061   7.9087   7.9267   7.9613   7.9840
     8.0172   8.0398   8.0409   8.0477   8.0666   8.0891   8.0969   8.1339
     8.1462   8.2003   8.2021   8.2081   8.2513   8.2689   8.3057   8.3322
     8.3784   8.3951   8.4042   8.4136   8.4230   8.4425   8.4923   8.5174
     8.5657   8.5685   8.6394   8.6748   8.6989   8.7017   8.7332   8.7547
     8.7860   8.7920   8.8341   8.8380   8.8520   8.8570   8.8691   8.8796
     8.9729   8.9986   9.0059   9.0090   9.0232   9.0419   9.0472   9.0897
     9.1122   9.1354   9.1562   9.1868   9.2079   9.2461   9.2699   9.2921
     9.3109   9.3168   9.3660   9.3971   9.4011   9.4079   9.4322   9.4544
     9.4783   9.4990   9.4992   9.5242   9.5435   9.5634   9.5890   9.5938
     9.6213   9.6328   9.6790   9.6946   9.7217   9.7282   9.7361   9.7834
     9.8027   9.8141   9.8549   9.8656   9.8667   9.8993   9.9141   9.9293
     9.9316   9.9583   9.9692   9.9968  10.0197  10.0488  10.1239  10.1426
    10.2113  10.2411  10.2488  10.2695  10.2786  10.3083  10.3364  10.3744
    10.3963  10.4111  10.4550  10.4641  10.4973  10.5045  10.5123  10.5745
    10.6208  10.6418  10.6424  10.6797  10.6822  10.6886  10.7230  10.7342
    10.7601  10.7730  10.7957  10.8142  10.8724  10.8899  10.8960  10.9258
    10.9397  10.9417  11.0015  11.0088  11.0438  11.0550  11.0622  11.0673
    11.1197  11.1220  11.1320  11.1419

          k = 0.0000 0.0000 0.0129 (103443 PWs)   bands (ev):

   -21.1277 -20.9186 -20.6380 -20.5844 -20.4062 -20.1033 -19.9782 -19.8509
   -19.6209 -19.4675 -19.3499 -19.2978 -18.8692 -18.8054 -18.7161 -18.4572
   -18.3292 -18.2274 -18.0046 -17.8468 -17.6592 -17.5402 -17.4135 -17.2804
   -17.1132 -16.9597 -16.8866 -16.7239 -16.4731 -16.3483 -16.2044 -16.1532
   -16.1253 -16.0734 -15.7400 -15.6275 -15.2560 -15.0318 -14.6016 -14.5474
   -14.3930 -14.2907 -14.1973 -14.0931 -14.0567 -13.9804 -13.8005 -13.6056
   -13.1457 -13.0866 -13.0289 -13.0064 -12.8316 -12.7193 -12.6209 -12.3800
   -12.0369 -11.9742 -11.7280 -11.7012 -11.6567 -11.5960 -11.4100 -11.2209
   -11.0843 -10.9063 -10.8014 -10.6976 -10.6193 -10.4811 -10.3182 -10.2964
   -10.1537  -9.9744  -9.9220  -9.8595  -9.6643  -9.6029  -9.4939  -9.4195
    -9.3055  -9.1986  -9.0942  -9.0608  -8.9638  -8.9499  -8.9041  -8.8238
    -8.7464  -8.6664  -8.6585  -8.6336  -8.5564  -8.5000  -8.4570  -8.4386
    -8.3657  -8.2799  -8.2696  -8.2192  -8.1161  -8.0719  -8.0039  -7.9946
    -7.9600  -7.8391  -7.7634  -7.7407  -7.7333  -7.7266  -7.6334  -7.5517
    -7.4686  -7.3923  -7.2965  -7.2632  -7.2243  -7.1664  -7.1292  -7.0795
    -7.0025  -6.9573  -6.8271  -6.7250  -6.6063  -6.5405  -6.5068  -6.4548
    -6.4508  -6.2010  -6.1761  -6.0842  -5.9731  -5.9730  -5.9376  -5.9372
    -5.7300  -5.6520  -5.5414  -5.4699  -5.3378  -5.2240  -5.1776  -5.1355
    -5.0193  -4.9693  -4.6905  -4.6403  -4.4704  -4.4478  -4.3384  -4.0666
    -4.0290  -3.9356  -3.8837  -3.6861  -3.4313  -3.3226  -2.6948  -2.5025
    -1.1223  -0.9276  -0.4215  -0.3205  -0.0581  -0.0176   0.0061   0.0981
     0.1898   0.2468   0.5520   0.8074   0.9136   0.9683   1.0969   1.1711
     1.2594   1.4398   1.4642   1.5316   1.5351   1.7335   1.7367   1.8180
     1.8790   2.0631   2.0890   2.0971   2.1553   2.2624   2.3756   2.4621
     2.6017   2.6166   2.6742   2.6869   2.7949   2.7983   2.8645   2.9011
     2.9377   2.9779   2.9980   3.1048   3.1643   3.1801   3.1929   3.2384
     3.2968   3.3702   3.4417   3.4813   3.5016   3.5668   3.5689   3.6193
     3.6749   3.6864   3.8010   3.8154   3.9116   3.9253   3.9880   3.9888
     4.0619   4.1255   4.1537   4.1972   4.2297   4.2741   4.2944   4.3481
     4.4113   4.4393   4.4480   4.5038   4.5209   4.5539   4.6203   4.6348
     4.6767   4.6880   4.7236   4.7822   4.7953   4.8024   4.8749   4.9069
     4.9627   4.9866   4.9913   5.0273   5.0530   5.0712   5.0981   5.1560
     5.2324   5.3355   5.3645   5.3824   5.4623   5.4669   5.5004   5.5139
     5.5415   5.5866   5.5919   5.6145   5.6671   5.6952   5.7385   5.7464
     5.7524   5.7895   5.7980   5.8364   5.8537   5.8614   5.9144   5.9374
     5.9872   6.0108   6.0488   6.0793   6.0983   6.1141   6.1317   6.1680
     6.2712   6.2860   6.3017   6.3335   6.3672   6.4084   6.4322   6.4376
     6.5020   6.5196   6.5215   6.5260   6.6067   6.6299   6.6335   6.6473
     6.6633   6.6779   6.6955   6.7019   6.7522   6.7623   6.8035   6.8122
     6.8288   6.8368   6.8609   6.8862   6.8988   6.9234   6.9487   6.9533
     7.0002   7.0061   7.0302   7.0428   7.0697   7.0942   7.1220   7.1291
     7.1436   7.1921   7.2033   7.2071   7.2610   7.2765   7.2948   7.3129
     7.3518   7.3576   7.3695   7.3884   7.4279   7.4428   7.4697   7.5003
     7.5164   7.5178   7.5723   7.6062   7.6580   7.7217   7.7522   7.7728
     7.8217   7.8529   7.8575   7.9012   7.9141   7.9290   7.9564   7.9895
     8.0252   8.0426   8.0670   8.0724   8.0814   8.0850   8.0983   8.1429
     8.1482   8.1701   8.1999   8.2361   8.2513   8.2878   8.3210   8.3426
     8.3680   8.3701   8.4020   8.4024   8.4387   8.4490   8.4927   8.5015
     8.5663   8.5724   8.6154   8.6507   8.6828   8.6985   8.7321   8.7543
     8.7878   8.8127   8.8185   8.8187   8.8409   8.8606   8.8692   8.8963
     8.9647   8.9959   9.0002   9.0047   9.0335   9.0342   9.0510   9.0967
     9.1013   9.1286   9.1412   9.2007   9.2140   9.2452   9.2691   9.2767
     9.3145   9.3214   9.3784   9.3911   9.4121   9.4206   9.4344   9.4457
     9.4700   9.4804   9.5132   9.5326   9.5473   9.5789   9.5947   9.5970
     9.6279   9.6455   9.6883   9.6893   9.6976   9.7143   9.7190   9.7709
     9.8038   9.8088   9.8449   9.8553   9.8685   9.8832   9.9238   9.9254
     9.9296   9.9514   9.9899  10.0135  10.0145  10.0440  10.1063  10.1550
    10.2310  10.2568  10.2632  10.2846  10.2942  10.3189  10.3454  10.3655
    10.3728  10.3996  10.4294  10.4371  10.5092  10.5411  10.5460  10.5555
    10.6105  10.6120  10.6193  10.6506  10.6575  10.7073  10.7246  10.7508
    10.7508  10.7713  10.7930  10.8183  10.8754  10.8828  10.8848  10.9293
    10.9410  10.9484  10.9980  11.0216  11.0436  11.0472  11.0591  11.0740
    11.1050  11.1254  11.1305  11.1464

          k = 0.0000 0.0000 0.0141 (103441 PWs)   bands (ev):

   -21.1244 -20.9298 -20.6328 -20.5690 -20.4165 -20.0881 -20.0022 -19.8491
   -19.6310 -19.4882 -19.3221 -19.2800 -18.8597 -18.7950 -18.7257 -18.4621
   -18.3647 -18.2175 -17.9957 -17.8658 -17.6746 -17.5452 -17.3701 -17.2697
   -17.1437 -16.9460 -16.8547 -16.7126 -16.4870 -16.3356 -16.2208 -16.1681
   -16.1477 -16.0513 -15.7648 -15.6265 -15.2546 -15.0700 -14.5572 -14.5447
   -14.3977 -14.2786 -14.1626 -14.0939 -14.0436 -13.9616 -13.8049 -13.6081
   -13.1626 -13.1252 -13.0565 -13.0064 -12.8814 -12.7106 -12.6022 -12.4013
   -12.0340 -11.9603 -11.6986 -11.6649 -11.6165 -11.5991 -11.4075 -11.2234
   -11.0983 -10.8962 -10.8211 -10.7091 -10.6195 -10.4994 -10.3335 -10.2923
   -10.1144 -10.0096  -9.9327  -9.8789  -9.6554  -9.5893  -9.4787  -9.4011
    -9.2918  -9.1947  -9.0972  -9.0505  -8.9930  -8.9632  -8.9227  -8.8618
    -8.7452  -8.6795  -8.6328  -8.6288  -8.5367  -8.4943  -8.4623  -8.4428
    -8.3781  -8.2926  -8.2677  -8.2136  -8.1186  -8.0625  -7.9848  -7.9818
    -7.9409  -7.8683  -7.7475  -7.7383  -7.7224  -7.7029  -7.6273  -7.5382
    -7.4800  -7.4134  -7.3002  -7.2889  -7.2367  -7.1743  -7.1065  -7.0489
    -7.0174  -6.9561  -6.8076  -6.7537  -6.6068  -6.5392  -6.5176  -6.4602
    -6.4343  -6.1865  -6.1835  -6.1086  -6.0128  -5.9753  -5.9450  -5.9258
    -5.7007  -5.6236  -5.5210  -5.5042  -5.3594  -5.2285  -5.1867  -5.1426
    -4.9772  -4.9595  -4.7151  -4.6352  -4.4678  -4.4084  -4.3436  -4.0716
    -4.0426  -3.9544  -3.8908  -3.6490  -3.4442  -3.3097  -2.7032  -2.5361
    -1.0905  -0.9216  -0.4252  -0.3047  -0.0612  -0.0023   0.0105   0.0806
     0.1887   0.2634   0.5332   0.7745   0.8864   1.0000   1.1026   1.1757
     1.2022   1.4288   1.4645   1.5396   1.5512   1.7190   1.7392   1.8025
     1.9026   2.0516   2.1025   2.1215   2.1771   2.2869   2.3612   2.4348
     2.6050   2.6441   2.6675   2.7065   2.8103   2.8146   2.8580   2.8842
     2.9287   2.9795   2.9896   3.0712   3.1635   3.1789   3.1923   3.2351
     3.3084   3.3875   3.4655   3.4685   3.4954   3.5646   3.5662   3.6051
     3.6813   3.6817   3.8282   3.8297   3.9163   3.9466   3.9932   4.0316
     4.0830   4.1001   4.1314   4.1973   4.2035   4.2766   4.2776   4.3362
     4.3757   4.4242   4.4424   4.4803   4.5296   4.5481   4.6118   4.6261
     4.6807   4.6936   4.7141   4.7626   4.8058   4.8069   4.8543   4.8778
     4.9510   5.0061   5.0143   5.0402   5.0559   5.0845   5.1008   5.1864
     5.2546   5.3208   5.3660   5.3868   5.4543   5.4735   5.4967   5.5397
     5.5584   5.5587   5.6028   5.6246   5.6730   5.7077   5.7351   5.7559
     5.7686   5.7706   5.7995   5.8055   5.8385   5.8392   5.9412   5.9656
     5.9823   6.0091   6.0261   6.0632   6.0796   6.1015   6.1341   6.1782
     6.2606   6.3017   6.3092   6.3110   6.3477   6.4017   6.4113   6.4730
     6.4791   6.5211   6.5245   6.5427   6.6151   6.6184   6.6435   6.6496
     6.6845   6.7057   6.7114   6.7400   6.7541   6.7622   6.7951   6.8111
     6.8265   6.8348   6.8652   6.8863   6.9072   6.9323   6.9454   6.9660
     6.9903   7.0039   7.0061   7.0237   7.0500   7.1029   7.1063   7.1305
     7.1439   7.1929   7.2058   7.2277   7.2552   7.2727   7.3004   7.3222
     7.3332   7.3427   7.3613   7.3876   7.4036   7.4399   7.4634   7.4872
     7.5044   7.5402   7.5827   7.6239   7.6681   7.7265   7.7423   7.7754
     7.8091   7.8537   7.8740   7.8781   7.9227   7.9464   7.9542   7.9909
     8.0185   8.0473   8.0588   8.0886   8.0939   8.1079   8.1259   8.1336
     8.1561   8.1675   8.2023   8.2310   8.2813   8.2966   8.3356   8.3478
     8.3574   8.3617   8.3889   8.3919   8.4377   8.4864   8.4882   8.4943
     8.5563   8.5723   8.5764   8.6433   8.6626   8.6963   8.7242   8.7702
     8.7786   8.7882   8.8075   8.8367   8.8404   8.8466   8.8939   8.9226
     8.9426   8.9779   8.9932   9.0001   9.0290   9.0551   9.0602   9.0932
     9.1047   9.1188   9.1351   9.1972   9.2155   9.2414   9.2601   9.2822
     9.3109   9.3402   9.3707   9.3760   9.4170   9.4180   9.4231   9.4621
     9.4680   9.4925   9.5124   9.5462   9.5616   9.5936   9.6006   9.6103
     9.6355   9.6394   9.6678   9.6732   9.6844   9.6935   9.7215   9.7653
     9.7841   9.8208   9.8339   9.8347   9.8662   9.8730   9.9191   9.9212
     9.9505   9.9527  10.0050  10.0203  10.0355  10.0471  10.0929  10.1688
    10.2345  10.2603  10.2666  10.2896  10.3103  10.3125  10.3399  10.3503
    10.3969  10.3991  10.4147  10.4231  10.4988  10.5416  10.5724  10.5783
    10.5887  10.6030  10.6033  10.6187  10.6344  10.7266  10.7290  10.7439
    10.7518  10.7661  10.8154  10.8247  10.8631  10.8719  10.8741  10.9336
    10.9377  10.9652  11.0036  11.0154  11.0420  11.0448  11.0583  11.0791
    11.0904  11.1069  11.1395  11.1556

          k = 0.0000 0.0000 0.0153 (103453 PWs)   bands (ev):

   -21.1209 -20.9406 -20.6282 -20.5526 -20.4264 -20.0753 -20.0233 -19.8473
   -19.6411 -19.5085 -19.2964 -19.2593 -18.8583 -18.7842 -18.7274 -18.4686
   -18.3994 -18.2065 -17.9976 -17.8733 -17.6906 -17.5489 -17.3267 -17.2600
   -17.1747 -16.9348 -16.8191 -16.6998 -16.5008 -16.3279 -16.2477 -16.1881
   -16.1538 -16.0262 -15.7971 -15.6197 -15.2534 -15.1085 -14.5428 -14.5116
   -14.4006 -14.2701 -14.1270 -14.0935 -14.0310 -13.9408 -13.8094 -13.6096
   -13.1914 -13.1658 -13.0779 -12.9983 -12.9313 -12.7014 -12.5845 -12.4233
   -12.0323 -11.9442 -11.6767 -11.6600 -11.5753 -11.5642 -11.4060 -11.2323
   -11.1040 -10.8914 -10.8393 -10.7212 -10.6163 -10.5173 -10.3499 -10.2910
   -10.0762 -10.0624  -9.9238  -9.8957  -9.6518  -9.5710  -9.4618  -9.3842
    -9.2769  -9.1904  -9.1042  -9.0367  -9.0256  -8.9762  -8.9386  -8.8997
    -8.7505  -8.6930  -8.6241  -8.6080  -8.5162  -8.4972  -8.4770  -8.4210
    -8.3901  -8.3062  -8.2685  -8.2042  -8.1237  -8.0551  -7.9712  -7.9664
    -7.9212  -7.8962  -7.7358  -7.7309  -7.7107  -7.6772  -7.6201  -7.5281
    -7.4912  -7.4356  -7.3145  -7.3000  -7.2517  -7.1804  -7.0853  -7.0322
    -7.0156  -6.9548  -6.8014  -6.7694  -6.6100  -6.5731  -6.5117  -6.4499
    -6.4119  -6.1906  -6.1739  -6.1324  -6.0541  -5.9785  -5.9526  -5.9116
    -5.6719  -5.5977  -5.5364  -5.5010  -5.3814  -5.2314  -5.1967  -5.1504
    -4.9516  -4.9346  -4.7459  -4.6247  -4.4643  -4.3708  -4.3459  -4.0866
    -4.0476  -3.9767  -3.8948  -3.6137  -3.4604  -3.2935  -2.7123  -2.5703
    -1.0585  -0.9145  -0.4323  -0.2837  -0.0731   0.0019   0.0202   0.0789
     0.1893   0.2805   0.5143   0.7368   0.8597   1.0304   1.1140   1.1456
     1.1807   1.4156   1.4677   1.5446   1.5681   1.7048   1.7432   1.7875
     1.9266   2.0232   2.1080   2.1712   2.1994   2.3116   2.3472   2.4064
     2.6033   2.6192   2.6930   2.7520   2.8214   2.8309   2.8441   2.8689
     2.9311   2.9642   2.9980   3.0375   3.1476   3.1719   3.2030   3.2437
     3.3184   3.4070   3.4486   3.4689   3.4946   3.5509   3.5834   3.5865
     3.6763   3.7020   3.8451   3.8605   3.9211   3.9665   3.9984   4.0715
     4.0751   4.1014   4.1137   4.1799   4.1991   4.2576   4.2808   4.3222
     4.3323   4.4142   4.4387   4.4415   4.5212   4.5747   4.5874   4.6145
     4.6706   4.7046   4.7208   4.7413   4.8089   4.8324   4.8334   4.8511
     4.9390   5.0253   5.0256   5.0405   5.0748   5.0865   5.1280   5.2185
     5.2674   5.2801   5.3947   5.3983   5.4356   5.4791   5.5017   5.5187
     5.5691   5.5780   5.6090   5.6394   5.6820   5.7035   5.7106   5.7533
     5.7638   5.7800   5.7891   5.8041   5.8280   5.8444   5.9451   5.9771
     5.9864   6.0039   6.0280   6.0493   6.0572   6.1047   6.1354   6.1859
     6.2467   6.2702   6.3165   6.3312   6.3338   6.3728   6.4072   6.4616
     6.4843   6.5237   6.5241   6.5636   6.6223   6.6287   6.6402   6.6642
     6.6853   6.7298   6.7483   6.7487   6.7527   6.7655   6.7843   6.8149
     6.8325   6.8415   6.8668   6.8886   6.9226   6.9358   6.9397   6.9452
     6.9733   7.0031   7.0083   7.0297   7.0338   7.0858   7.1010   7.1429
     7.1461   7.1850   7.2059   7.2338   7.2591   7.2705   7.3016   7.3083
     7.3155   7.3586   7.3640   7.3641   7.3940   7.4492   7.4628   7.4640
     7.5040   7.5624   7.5952   7.6360   7.6757   7.7198   7.7332   7.7788
     7.7950   7.8464   7.8527   7.8833   7.9336   7.9435   7.9782   8.0032
     8.0039   8.0190   8.0670   8.0847   8.1016   8.1305   8.1418   8.1625
     8.1688   8.1842   8.2007   8.2375   8.2781   8.3130   8.3292   8.3358
     8.3515   8.3751   8.3824   8.4084   8.4380   8.4589   8.4930   8.5192
     8.5268   8.5735   8.5812   8.6205   8.6484   8.6939   8.7226   8.7431
     8.7765   8.7844   8.8022   8.8234   8.8508   8.8623   8.9191   8.9310
     8.9410   8.9646   8.9839   8.9966   9.0249   9.0596   9.0715   9.0856
     9.1109   9.1160   9.1367   9.1957   9.2029   9.2133   9.2784   9.2941
[...]
    -5.0599  -4.9166  -4.5759  -4.4994  -4.4524  -4.3499  -4.3212  -4.2028
    -4.0516  -3.9772  -3.9041  -3.7550  -3.2706  -3.1281  -2.9317  -2.7596
    -0.9135  -0.6958  -0.5318  -0.3527  -0.0494   0.0349   0.1083   0.2244
     0.3036   0.3482   0.3965   0.4892   0.6396   0.6750   1.1487   1.2428
     1.3026   1.3761   1.5205   1.5504   1.5980   1.6071   1.6711   1.7573
     1.9509   2.1505   2.1553   2.1682   2.2358   2.3281   2.4303   2.5533
     2.5978   2.6042   2.6578   2.7327   2.7784   2.7933   2.8184   2.9054
     2.9458   2.9771   3.0418   3.0622   3.1213   3.1454   3.2709   3.2906
     3.3021   3.3390   3.3876   3.4683   3.4980   3.5668   3.6280   3.7147
     3.7556   3.7993   3.8065   3.8992   3.9148   4.0066   4.0448   4.0564
     4.0644   4.1149   4.1450   4.1686   4.2167   4.2215   4.2629   4.2728
     4.3104   4.3289   4.3469   4.3657   4.4079   4.4325   4.4903   4.5002
     4.5173   4.5451   4.6176   4.7994   4.8584   4.8763   4.9206   4.9550
     4.9766   4.9820   5.0498   5.0677   5.1484   5.1959   5.2513   5.2753
     5.3059   5.3639   5.3810   5.4131   5.4265   5.4748   5.4927   5.5036
     5.5418   5.5612   5.6055   5.6302   5.6331   5.6795   5.6931   5.7164
     5.7819   5.8084   5.8420   5.8682   5.8704   5.9213   5.9259   5.9296
     5.9936   6.0075   6.0250   6.0422   6.0938   6.0968   6.1332   6.1360
     6.1389   6.1927   6.2040   6.2488   6.3143   6.3517   6.4562   6.4793
     6.4858   6.5120   6.5459   6.5926   6.6056   6.6274   6.6625   6.6963
     6.7246   6.7427   6.7438   6.7445   6.7641   6.7986   6.8076   6.8227
     6.8415   6.8527   6.8655   6.8773   6.9127   6.9267   6.9539   6.9811
     6.9906   7.0080   7.0494   7.0537   7.0916   7.1239   7.1300   7.1390
     7.1602   7.1654   7.1942   7.2205   7.2314   7.2491   7.2609   7.3181
     7.3376   7.3611   7.3691   7.3803   7.4354   7.4595   7.4835   7.5261
     7.5454   7.5469   7.5838   7.6365   7.6417   7.6829   7.7188   7.7692
     7.7864   7.8201   7.8420   7.8568   7.8731   7.9007   7.9231   7.9714
     7.9788   8.0097   8.0624   8.0728   8.0778   8.1119   8.1350   8.1363
     8.1858   8.2189   8.2216   8.2687   8.2928   8.3269   8.3314   8.3571
     8.3854   8.4182   8.4242   8.4419   8.4544   8.4935   8.5338   8.5548
     8.5639   8.5896   8.6037   8.6522   8.6584   8.7062   8.7148   8.7438
     8.7761   8.8028   8.8345   8.8719   8.8798   8.8955   8.9271   8.9384
     8.9465   8.9691   8.9694   8.9929   9.0660   9.0665   9.0824   9.0863
     9.0989   9.1253   9.1492   9.1538   9.1740   9.1876   9.1916   9.2125
     9.2237   9.2377   9.2826   9.3198   9.3315   9.3398   9.3520   9.3597
     9.4375   9.4797   9.4866   9.5183   9.5491   9.5646   9.6157   9.6327
     9.6575   9.6600   9.6899   9.7061   9.7188   9.7215   9.7457   9.7529
     9.7618   9.7905   9.7934   9.8742   9.8905   9.8991   9.9081   9.9628
     9.9806   9.9996  10.0352  10.0509  10.0923  10.1128  10.1183  10.1527
    10.1771  10.1848  10.2431  10.2515  10.3052  10.3119  10.3247  10.3531
    10.3740  10.4246  10.4498  10.4809  10.4914  10.5393  10.5663  10.5727
    10.5780  10.5901  10.6118  10.6441  10.6647  10.6783  10.7006  10.7100
    10.7510  10.7580  10.7642  10.7875  10.8338  10.8452  10.8711  10.8824
    10.8976  10.9171  10.9425  10.9549  10.9804  10.9968  11.0272  11.0505
    11.0869  11.0906  11.1191  11.1434

          k = 0.0000 0.0000 0.0270 (103398 PWs)   bands (ev):

   -21.0748 -21.0275 -20.5930 -20.4994 -20.3580 -20.2695 -19.8962 -19.8510
   -19.7455 -19.6393 -19.1276 -19.0179 -18.9212 -18.8248 -18.7365 -18.5101
   -18.4298 -18.3088 -18.0797 -17.8350 -17.6576 -17.5586 -17.4686 -17.2222
   -16.8990 -16.8180 -16.6860 -16.6506 -16.5189 -16.4441 -16.3794 -16.2602
   -16.2101 -16.1171 -15.7002 -15.5577 -15.4730 -15.2477 -14.5561 -14.3819
   -14.2418 -14.1501 -13.9922 -13.9565 -13.9005 -13.7656 -13.6860 -13.6515
   -13.5868 -13.4454 -13.3090 -13.2620 -12.7927 -12.6821 -12.6265 -12.4607
   -12.0210 -11.8174 -11.7220 -11.6229 -11.4301 -11.2503 -11.1868 -11.1432
   -11.0727 -11.0408 -10.8970 -10.6805 -10.6736 -10.6184 -10.5334 -10.4998
   -10.3482 -10.0513  -9.7542  -9.6663  -9.5938  -9.4621  -9.3934  -9.3240
    -9.2853  -9.2340  -9.1332  -9.1196  -9.0821  -9.0622  -9.0145  -8.9832
    -8.8690  -8.7606  -8.6881  -8.5824  -8.5471  -8.4776  -8.4347  -8.3557
    -8.3008  -8.2840  -8.2577  -8.1800  -8.0987  -8.0583  -7.9677  -7.9258
    -7.8179  -7.7707  -7.7342  -7.7199  -7.6441  -7.6303  -7.5984  -7.5509
    -7.4983  -7.4322  -7.4079  -7.3331  -7.2892  -7.1855  -7.1041  -7.0313
    -6.9605  -6.9217  -6.8926  -6.7664  -6.6413  -6.5578  -6.5211  -6.4590
    -6.3885  -6.2465  -6.2245  -6.0848  -6.0842  -6.0685  -5.9832  -5.9349
    -5.7658  -5.5586  -5.4227  -5.3388  -5.3260  -5.3000  -5.2557  -5.2040
    -5.0934  -4.9157  -4.5417  -4.4853  -4.4605  -4.3784  -4.3080  -4.2256
    -4.0472  -3.9435  -3.9042  -3.7896  -3.2519  -3.1030  -2.9684  -2.7640
    -0.9110  -0.6619  -0.5501  -0.3720  -0.0497   0.0721   0.1112   0.2111
     0.2950   0.3397   0.4280   0.5005   0.6072   0.6421   1.1525   1.2516
     1.2919   1.4046   1.5262   1.5329   1.5908   1.6149   1.6610   1.7493
     1.9690   2.1278   2.1739   2.1820   2.2269   2.3040   2.4509   2.5691
     2.5857   2.6439   2.6599   2.7062   2.7707   2.7746   2.8343   2.9089
     2.9324   2.9696   3.0362   3.0653   3.1312   3.1484   3.2614   3.2792
     3.3149   3.3632   3.3937   3.4606   3.5181   3.5583   3.6532   3.7113
     3.7250   3.7888   3.8039   3.8926   3.9085   4.0085   4.0512   4.0653
     4.0809   4.1245   4.1461   4.1606   4.2143   4.2205   4.2586   4.2902
     4.2998   4.3359   4.3363   4.3728   4.3983   4.4044   4.4699   4.5008
     4.5342   4.5624   4.6018   4.7500   4.8677   4.8859   4.9126   4.9559
     4.9888   5.0031   5.0806   5.0823   5.1286   5.2023   5.2464   5.2541
     5.3145   5.3521   5.3843   5.4088   5.4479   5.4593   5.4954   5.5093
     5.5438   5.5719   5.5838   5.6167   5.6632   5.6650   5.6858   5.7352
     5.7824   5.8299   5.8410   5.8572   5.8921   5.8996   5.9169   5.9309
     5.9768   6.0025   6.0347   6.0384   6.0913   6.0977   6.1351   6.1371
     6.1378   6.1854   6.2391   6.2693   6.2716   6.3550   6.4336   6.4402
     6.5016   6.5395   6.5549   6.5914   6.6080   6.6583   6.6621   6.6994
     6.7125   6.7174   6.7377   6.7544   6.7624   6.7951   6.8228   6.8277
     6.8349   6.8414   6.8529   6.8697   6.9103   6.9307   6.9595   6.9923
     6.9962   7.0051   7.0552   7.0554   7.0825   7.1123   7.1230   7.1373
     7.1583   7.1967   7.2000   7.2263   7.2277   7.2399   7.2892   7.3218
     7.3472   7.3475   7.3674   7.4126   7.4231   7.4423   7.4964   7.5093
     7.5398   7.5600   7.5826   7.6019   7.6570   7.6853   7.7259   7.7597
     7.7859   7.8161   7.8462   7.8481   7.8755   7.9075   7.9442   7.9587
     7.9885   8.0002   8.0577   8.0759   8.0759   8.1010   8.1251   8.1424
     8.1579   8.2098   8.2219   8.2598   8.2832   8.3415   8.3426   8.3724
     8.3831   8.3973   8.4203   8.4205   8.4539   8.5143   8.5518   8.5751
     8.5764   8.5874   8.6208   8.6360   8.6762   8.7071   8.7371   8.7680
     8.7702   8.8183   8.8260   8.8536   8.8860   8.8963   8.9283   8.9308
     8.9446   8.9620   8.9637   8.9970   9.0483   9.0558   9.0786   9.0939
     9.1017   9.1370   9.1544   9.1563   9.1617   9.1835   9.1963   9.2137
     9.2229   9.2478   9.2858   9.2976   9.3162   9.3222   9.3252   9.3646
     9.4279   9.4826   9.4849   9.5231   9.5461   9.5664   9.6246   9.6344
     9.6597   9.6672   9.6956   9.7053   9.7149   9.7180   9.7405   9.7531
     9.7693   9.8061   9.8144   9.8657   9.8933   9.8991   9.9216   9.9413
     9.9535   9.9868  10.0105  10.0591  10.0901  10.1108  10.1341  10.1427
    10.1875  10.2320  10.2518  10.2683  10.2814  10.3081  10.3233  10.3598
    10.3929  10.4385  10.4503  10.4563  10.5081  10.5237  10.5574  10.5710
    10.5857  10.5950  10.6147  10.6416  10.6601  10.6754  10.6862  10.7060
    10.7347  10.7589  10.7630  10.7775  10.8180  10.8468  10.8573  10.8813
    10.8895  10.9101  10.9452  10.9539  11.0070  11.0098  11.0142  11.0564
    11.0777  11.0908  11.1210  11.1230

          k = 0.0000 0.0000 0.0282 (103420 PWs)   bands (ev):

   -21.0715 -21.0316 -20.5916 -20.5015 -20.3379 -20.2906 -19.8821 -19.8590
   -19.7505 -19.6421 -19.1193 -19.0196 -18.8977 -18.8455 -18.7466 -18.5077
   -18.4018 -18.3403 -18.0762 -17.8393 -17.6426 -17.5582 -17.4854 -17.2217
   -16.8737 -16.8008 -16.7186 -16.6589 -16.5010 -16.4625 -16.3394 -16.2634
   -16.2492 -16.1161 -15.6753 -15.5637 -15.4907 -15.2476 -14.5570 -14.3805
   -14.2405 -14.1510 -13.9560 -13.9490 -13.8938 -13.8157 -13.6779 -13.6064
   -13.5863 -13.4941 -13.3115 -13.2700 -12.7721 -12.7026 -12.6253 -12.4582
   -12.0199 -11.8225 -11.6974 -11.6462 -11.4251 -11.2385 -11.1675 -11.1521
   -11.0772 -11.0503 -10.8479 -10.7320 -10.6741 -10.6241 -10.5281 -10.5048
   -10.3524 -10.0550  -9.7421  -9.6689  -9.5557  -9.4851  -9.3994  -9.3298
    -9.2852  -9.2396  -9.1287  -9.1100  -9.0877  -9.0553  -9.0275  -8.9808
    -8.8682  -8.7717  -8.6869  -8.5806  -8.5504  -8.4803  -8.4342  -8.3501
    -8.2979  -8.2685  -8.2596  -8.2055  -8.0932  -8.0580  -7.9383  -7.9247
    -7.8327  -7.7598  -7.7462  -7.7218  -7.6434  -7.6310  -7.6049  -7.5462
    -7.5028  -7.4182  -7.4142  -7.3283  -7.2732  -7.2120  -7.0983  -7.0198
    -6.9713  -6.9378  -6.8808  -6.7770  -6.6119  -6.5595  -6.5030  -6.4890
    -6.4069  -6.2468  -6.2168  -6.0854  -6.0709  -6.0494  -5.9840  -5.9709
    -5.7608  -5.5650  -5.4035  -5.3556  -5.3142  -5.2893  -5.2660  -5.1835
    -5.1255  -4.9152  -4.5122  -4.4779  -4.4609  -4.4096  -4.2901  -4.2477
    -4.0452  -3.9115  -3.9027  -3.8230  -3.2405  -3.0748  -3.0037  -2.7667
    -0.9095  -0.6295  -0.5727  -0.3842  -0.0501   0.1075   0.1154   0.1833
     0.2995   0.3250   0.4664   0.5105   0.5673   0.6245   1.1547   1.2604
     1.2819   1.4281   1.5160   1.5304   1.5855   1.6222   1.6524   1.7443
     1.9837   2.1107   2.1801   2.2041   2.2202   2.2814   2.4700   2.5505
     2.6113   2.6563   2.6786   2.6839   2.7519   2.7663   2.8553   2.9070
     2.9113   2.9718   3.0327   3.0673   3.1220   3.1759   3.2325   3.2871
     3.3088   3.3981   3.3999   3.4552   3.5079   3.5823   3.6651   3.6763
     3.7239   3.7782   3.8065   3.8917   3.9031   4.0092   4.0542   4.0687
     4.0914   4.1405   4.1528   4.1558   4.2002   4.2072   4.2679   4.2941
     4.3097   4.3290   4.3440   4.3778   4.3794   4.3910   4.4549   4.4877
     4.5500   4.5844   4.6062   4.7012   4.8762   4.8889   4.9086   4.9513
     5.0057   5.0183   5.0877   5.0922   5.1368   5.1974   5.2154   5.2573
     5.3303   5.3401   5.3908   5.3933   5.4484   5.4752   5.4965   5.5194
     5.5437   5.5626   5.5756   5.6117   5.6412   5.6773   5.7058   5.7615
     5.7688   5.8227   5.8427   5.8517   5.8938   5.9058   5.9247   5.9366
     5.9556   6.0038   6.0045   6.0371   6.1009   6.1268   6.1349   6.1372
     6.1412   6.1696   6.2255   6.2854   6.2892   6.3650   6.3865   6.4184
     6.5114   6.5384   6.5789   6.5974   6.6265   6.6573   6.6748   6.6932
     6.7015   6.7059   6.7387   6.7603   6.7694   6.7888   6.7930   6.8237
     6.8289   6.8527   6.8565   6.8739   6.9079   6.9317   6.9406   7.0031
     7.0116   7.0168   7.0555   7.0626   7.0773   7.1011   7.1082   7.1347
     7.1565   7.1962   7.2134   7.2349   7.2385   7.2441   7.3018   7.3063
     7.3509   7.3591   7.3728   7.3926   7.4315   7.4457   7.4817   7.5247
     7.5356   7.5575   7.5680   7.6130   7.6670   7.6910   7.7162   7.7395
     7.7690   7.8075   7.8582   7.8691   7.8770   7.9147   7.9491   7.9526
     7.9851   8.0074   8.0521   8.0745   8.0819   8.0966   8.1227   8.1343
     8.1473   8.1911   8.2206   8.2443   8.3034   8.3451   8.3501   8.3715
     8.3810   8.3864   8.4070   8.4210   8.4554   8.5357   8.5567   8.5662
     8.5889   8.6072   8.6190   8.6352   8.6807   8.7202   8.7409   8.7659
     8.7882   8.8211   8.8380   8.8436   8.8841   8.9082   8.9119   8.9216
     8.9447   8.9498   8.9559   9.0022   9.0395   9.0514   9.0713   9.1078
     9.1146   9.1190   9.1453   9.1648   9.1778   9.1855   9.2035   9.2189
     9.2339   9.2361   9.2758   9.2819   9.2919   9.2989   9.3315   9.3805
     9.4171   9.4802   9.4848   9.5330   9.5448   9.5638   9.6275   9.6341
     9.6612   9.6614   9.6933   9.7090   9.7167   9.7225   9.7366   9.7624
     9.7753   9.8139   9.8257   9.8686   9.8951   9.8955   9.9185   9.9317
     9.9461   9.9780   9.9932  10.0639  10.0724  10.0892  10.1614  10.1622
    10.1958  10.2275  10.2497  10.2816  10.2854  10.3311  10.3452  10.3513
    10.4096  10.4225  10.4312  10.4553  10.4709  10.5417  10.5611  10.5772
    10.5975  10.5977  10.6102  10.6443  10.6510  10.6682  10.6731  10.7084
    10.7343  10.7559  10.7600  10.7708  10.8211  10.8258  10.8558  10.8803
    10.8936  10.9093  10.9350  10.9576  10.9896  11.0267  11.0350  11.0655
    11.0719  11.0916  11.1001  11.1233

          k = 0.0000 0.0000-0.0293 (103456 PWs)   bands (ev):

   -21.0703 -21.0332 -20.5912 -20.5022 -20.3240 -20.3047 -19.8708 -19.8681
   -19.7522 -19.6430 -19.1163 -19.0209 -18.8756 -18.8666 -18.7496 -18.5071
   -18.3741 -18.3690 -18.0750 -17.8407 -17.6368 -17.5580 -17.4919 -17.2215
   -16.8648 -16.7870 -16.7387 -16.6610 -16.4843 -16.4797 -16.3024 -16.2927
   -16.2573 -16.1157 -15.6648 -15.5680 -15.4966 -15.2475 -14.5572 -14.3801
   -14.2401 -14.1514 -13.9546 -13.9337 -13.8645 -13.8619 -13.6748 -13.5928
   -13.5670 -13.5281 -13.3122 -13.2728 -12.7615 -12.7132 -12.6248 -12.4573
   -12.0195 -11.8243 -11.6779 -11.6653 -11.4233 -11.2334 -11.1681 -11.1459
   -11.0849 -11.0514 -10.8033 -10.7792 -10.6715 -10.6265 -10.5260 -10.5068
   -10.3539 -10.0563  -9.7376  -9.6701  -9.5264  -9.5100  -9.4008  -9.3324
    -9.2848  -9.2413  -9.1269  -9.1065  -9.0898  -9.0431  -9.0430  -8.9787
    -8.8680  -8.7756  -8.6864  -8.5800  -8.5515  -8.4812  -8.4340  -8.3481
    -8.2957  -8.2735  -8.2413  -8.2241  -8.0912  -8.0582  -7.9243  -7.9239
    -7.8425  -7.7555  -7.7495  -7.7229  -7.6431  -7.6313  -7.6072  -7.5445
    -7.5042  -7.4165  -7.4126  -7.3305  -7.2497  -7.2365  -7.0963  -7.0093
    -6.9823  -6.9419  -6.8762  -6.7812  -6.5970  -6.5615  -6.5026  -6.4952
    -6.4149  -6.2469  -6.2140  -6.0863  -6.0713  -6.0233  -5.9973  -5.9842
    -5.7590  -5.5673  -5.3925  -5.3659  -5.3089  -5.2859  -5.2708  -5.1623
    -5.1504  -4.9150  -4.4913  -4.4897  -4.4419  -4.4360  -4.2741  -4.2649
    -4.0447  -3.9057  -3.8876  -3.8438  -3.2367  -3.0519  -3.0289  -2.7676
    -0.9090  -0.6009  -0.5979  -0.3883  -0.0502   0.1122   0.1458   0.1511
     0.3102   0.3115   0.4916   0.5161   0.5397   0.6186   1.1555   1.2668
     1.2751   1.4387   1.5076   1.5319   1.5836   1.6258   1.6483   1.7425
     1.9897   2.1039   2.1826   2.2149   2.2183   2.2697   2.4793   2.5409
     2.6361   2.6392   2.6767   2.6983   2.7363   2.7648   2.8749   2.8853
     2.9121   2.9731   3.0315   3.0679   3.1188   3.2031   3.2049   3.2918
     3.3042   3.3998   3.4178   3.4532   3.4970   3.6160   3.6262   3.6895
     3.7172   3.7758   3.8071   3.8921   3.9010   4.0094   4.0550   4.0692
     4.0942   4.1537   4.1548   4.1582   4.1840   4.2022   4.2731   4.2928
     4.3213   4.3262   4.3473   4.3664   4.3789   4.3881   4.4502   4.4823
     4.5560   4.5795   4.6438   4.6604   4.8823   4.8857   4.9084   4.9492
     5.0138   5.0240   5.0866   5.0898   5.1641   5.1842   5.1942   5.2657
     5.3194   5.3657   5.3672   5.3963   5.4469   5.4889   5.4944   5.5255
     5.5434   5.5521   5.5732   5.6184   5.6260   5.6783   5.7306   5.7458
     5.7935   5.7959   5.8470   5.8473   5.9002   5.9041   5.9368   5.9448
     5.9458   5.9817   6.0045   6.0368   6.1022   6.1348   6.1370   6.1445
     6.1548   6.1618   6.1962   6.2955   6.3200   6.3516   6.3757   6.4031
     6.5135   6.5418   6.5720   6.6316   6.6362   6.6442   6.6598   6.6818
     6.7048   6.7266   6.7397   6.7617   6.7651   6.7770   6.7823   6.8247
     6.8259   6.8526   6.8671   6.8757   6.9069   6.9304   6.9318   7.0033
     7.0177   7.0284   7.0551   7.0675   7.0761   7.0959   7.0987   7.1330
     7.1558   7.1958   7.2088   7.2413   7.2427   7.2671   7.2840   7.3036
     7.3576   7.3607   7.3752   7.4033   7.4103   7.4416   7.4986   7.5314
     7.5342   7.5392   7.5604   7.6388   7.6702   7.6922   7.6975   7.7277
     7.7700   7.8031   7.8684   7.8743   7.8775   7.9249   7.9344   7.9568
     7.9784   8.0187   8.0588   8.0676   8.0740   8.1049   8.1128   8.1368
     8.1490   8.1759   8.2198   8.2423   8.3165   8.3439   8.3462   8.3685
     8.3780   8.3896   8.4019   8.4222   8.4567   8.5471   8.5493   8.5715
     8.5918   8.6077   8.6183   8.6429   8.6716   8.7364   8.7547   8.7606
     8.7687   8.8284   8.8508   8.8594   8.8713   8.8944   8.9014   8.9363
     8.9448   8.9453   8.9525   8.9920   9.0354   9.0602   9.0801   9.0965
     9.1151   9.1154   9.1446   9.1717   9.1886   9.1929   9.2046   9.2142
     9.2216   9.2562   9.2682   9.2705   9.2769   9.2912   9.3362   9.3928
     9.4077   9.4794   9.4838   9.5404   9.5444   9.5599   9.6282   9.6330
     9.6585   9.6620   9.6897   9.7096   9.7161   9.7309   9.7357   9.7681
     9.7775   9.8132   9.8259   9.8848   9.8884   9.8963   9.9041   9.9354
     9.9428   9.9748   9.9915  10.0621  10.0654  10.0810  10.1681  10.1884
    10.2030  10.2051  10.2348  10.2803  10.3166  10.3286  10.3730  10.3798
    10.3844  10.3924  10.4173  10.4583  10.4661  10.5551  10.5634  10.5825
    10.5915  10.6023  10.6041  10.6405  10.6447  10.6671  10.6950  10.7007
    10.7091  10.7607  10.7683  10.7849  10.7955  10.8262  10.8564  10.8800
    10.9023  10.9110  10.9259  10.9584  10.9785  11.0381  11.0534  11.0555
    11.0785  11.0840  11.0922  11.1253

     the Fermi energy is    -2.1971 ev

     Writing output data file AGNR_10_Defect_J.save/

     init_run     :     16.65s CPU     17.20s WALL (       1 calls)
     electrons    :   9063.70s CPU   9131.74s WALL (       1 calls)

     Called by init_run:
     wfcinit      :      0.00s CPU      0.00s WALL (       1 calls)
     potinit      :      0.94s CPU      1.06s WALL (       1 calls)
     hinit0       :     13.01s CPU     13.24s WALL (       1 calls)

     Called by electrons:
     c_bands      :   9063.54s CPU   9131.57s WALL (       1 calls)
     v_of_rho     :      0.70s CPU      0.76s WALL (       1 calls)
     newd         :      0.77s CPU      0.92s WALL (       1 calls)

     Called by c_bands:
     init_us_2    :      0.76s CPU      0.78s WALL (      26 calls)
     cegterg      :   8921.10s CPU   8978.79s WALL (     139 calls)

     Called by sum_band:

     Called by *egterg:
     h_psi        :   2024.04s CPU   2050.34s WALL (    2606 calls)
     s_psi        :    325.46s CPU    325.98s WALL (    2606 calls)
     g_psi        :     13.26s CPU     13.29s WALL (    2441 calls)
     cdiaghg      :   4106.53s CPU   4110.12s WALL (    2467 calls)

     Called by h_psi:
     h_psi:pot    :   2015.38s CPU   2037.24s WALL (    2606 calls)
     h_psi:calbec :    331.22s CPU    333.99s WALL (    2606 calls)
     vloc_psi     :   1359.08s CPU   1377.73s WALL (    2606 calls)
     add_vuspsi   :    325.05s CPU    325.49s WALL (    2606 calls)

     General routines
     calbec       :    331.20s CPU    333.98s WALL (    2606 calls)
     fft          :      0.86s CPU      0.93s WALL (      14 calls)
     ffts         :      0.01s CPU      0.01s WALL (       1 calls)
     fftw         :   1221.01s CPU   1238.54s WALL (  666472 calls)
     interpolate  :      0.05s CPU      0.06s WALL (       1 calls)
     davcio       :      0.01s CPU      9.53s WALL (      52 calls)

     Parallel routines
     fft_scatt_xy :    167.86s CPU    169.08s WALL (  666487 calls)
     fft_scatt_yz :    497.30s CPU    508.93s WALL (  666487 calls)

     PWSCF        :     2h31m CPU       31h 2m WALL

      38h

   This run was terminated on:  22:47: 0  20Dec2021            

=------------------------------------------------------------------------------=
   JOB DONE.
=------------------------------------------------------------------------------=
