
     Program PWSCF v.6.3 starts on 20Apr2021 at 17: 0:31 

     This program is part of the open-source Quantum ESPRESSO suite
     for quantum simulation of materials; please cite
         "P. Giannozzi et al., J. Phys.:Condens. Matter 21 395502 (2009);
         "P. Giannozzi et al., J. Phys.:Condens. Matter 29 465901 (2017);
          URL http://www.quantum-espresso.org", 
     in publications or presentations arising from this work. More details at
     http://www.quantum-espresso.org/quote

     Parallel version (MPI), running on    16 processors
     R & G space division:  proc/nbgrp/npool/nimage =      16
     Waiting for input...
     Reading input from standard input
     Message from routine read_cards :
     DEPRECATED: no units specified in CELL_PARAMETERS card

     Current dimensions of program PWSCF are:
     Max number of different atomic species (ntypx) = 10
     Max number of k-points (npk) =  40000
     Max angular momentum in pseudopotentials (lmaxx) =  3

     Atomic positions and unit cell read from directory:
     /home/zfwang/scratch/GNRDATASET/AGNR/V9_m5/V9_m5.save/


     Subspace diagonalization in iterative solution of the eigenvalue problem:
     a serial algorithm will be used


     Parallelization info
     --------------------
     sticks:   dense  smooth     PW     G-vecs:    dense   smooth      PW
     Min        2497     832    214               355393    68384    8970
     Max        2498     833    215               355396    68387    8973
     Sum       39953   13323   3439              5686317  1094165  143549



     bravais-lattice index     =            0
     lattice parameter (alat)  =       1.8897  a.u.
     unit-cell volume          =   32018.8416 (a.u.)^3
     number of atoms/cell      =          108
     number of atomic types    =            2
     number of electrons       =       360.00
     number of Kohn-Sham states=          500
     kinetic-energy cutoff     =      40.0000  Ry
     charge density cutoff     =     480.0000  Ry
     Exchange-correlation      = PBE ( 1  4  3  4 0 0)

     celldm(1)=  18.897261  celldm(2)=   2.931000  celldm(3)=   1.618800
     celldm(4)=   0.000000  celldm(5)=   0.000000  celldm(6)=   0.000000

     crystal axes: (cart. coord. in units of alat)
               a(1) = (  10.000000   0.000000   0.000000 )  
               a(2) = (   0.000000  29.310000   0.000000 )  
               a(3) = (   0.000000   0.000000  16.188000 )  

     reciprocal axes: (cart. coord. in units 2 pi/alat)
               b(1) = (  0.100000  0.000000  0.000000 )  
               b(2) = (  0.000000  0.034118  0.000000 )  
               b(3) = (  0.000000  0.000000  0.061774 )  


     PseudoPot. # 1 for C  read from file:
     /home/zfwang/hp_home/MySoftware/qe-6.3/pseudo/C.pbe-n-rrkjus_psl.0.1.UPF
     MD5 check sum: fff530ed632a789b3b184014e67dd7f1
     Pseudo is Ultrasoft + core correction, Zval =  4.0
     Generated using "atomic" code by A. Dal Corso v.5.0.2 svn rev. 9415
     Using radial grid of 1073 points,  4 beta functions with: 
                l(1) =   0
                l(2) =   0
                l(3) =   1
                l(4) =   1
     Q(r) pseudized with 0 coefficients 


     PseudoPot. # 2 for H  read from file:
     /home/zfwang/hp_home/MySoftware/qe-6.3/pseudo/H.pbe-rrkjus_psl.0.1.UPF
     MD5 check sum: e164a6907b691c6980f16942be34de84
     Pseudo is Ultrasoft, Zval =  1.0
     Generated using "atomic" code by A. Dal Corso v.5.0.2 svn rev. 9415
     Using radial grid of  929 points,  2 beta functions with: 
                l(1) =   0
                l(2) =   0
     Q(r) pseudized with 0 coefficients 


     atomic species   valence    mass     pseudopotential
        C              4.00    12.01070     C ( 1.00)
        H              1.00     1.00794     H ( 1.00)

     No symmetry found



   Cartesian axes

     site n.     atom                  positions (alat units)
         1           C   tau(   1) = (   4.9999999   5.9225950   2.8674349  )
         2           C   tau(   2) = (   5.0000015   5.8992780  14.7112307  )
         3           C   tau(   3) = (   5.0000007   7.1272233   3.5569352  )
         4           C   tau(   4) = (   5.0000015   7.0872619  15.4554428  )
         5           C   tau(   5) = (   5.0000004   5.8992781   1.4767702  )
         6           C   tau(   6) = (   5.0000019   5.9225949  13.3205657  )
         7           C   tau(   7) = (   5.0000022   8.3506116   2.8695757  )
         8           C   tau(   8) = (   5.0000016   8.3268753  14.7483301  )
         9           C   tau(   9) = (   5.0000025   9.6281173   3.5694856  )
        10           C   tau(  10) = (   4.9999999   9.7348462  11.2120597  )
        11           C   tau(  11) = (   5.0000022   9.5576248  15.4791920  )
        12           C   tau(  12) = (   5.0000016   7.0872609   0.7325579  )
        13           C   tau(  13) = (   5.0000019   7.1272228  12.6310650  )
        14           C   tau(  14) = (   5.0000023   8.3268763   1.4396700  )
        15           C   tau(  15) = (   5.0000015   8.3506120  13.3184256  )
        16           C   tau(  16) = (   5.0000019  10.8294448   2.8234896  )
        17           C   tau(  17) = (   4.9999999  10.9604882  10.5819072  )
        18           C   tau(  18) = (   5.0000018  10.7913872  14.7852672  )
        19           C   tau(  19) = (   4.9999996  12.0944005   3.4798579  )
        20           C   tau(  20) = (   5.0000011  12.1631230  11.3205529  )
        21           C   tau(  21) = (   5.0000019  12.0126060  15.4897234  )
        22           C   tau(  22) = (   5.0000025   9.5576234   0.7088087  )
        23           C   tau(  23) = (   5.0000029   9.7348474   4.9759432  )
        24           C   tau(  24) = (   5.0000010   9.6281165  12.6185130  )
        25           C   tau(  25) = (   5.0000024  10.7913876   1.4027330  )
        26           C   tau(  26) = (   5.0000008  10.9604873   5.6060898  )
        27           C   tau(  27) = (   5.0000011  10.8294453  13.3645136  )
        28           C   tau(  28) = (   4.9999993  13.3259890   2.7566281  )
        29           C   tau(  29) = (   4.9999872  13.5976411   6.7884829  )
        30           C   tau(  30) = (   5.0000013  13.4811780  10.7395687  )
        31           C   tau(  31) = (   5.0000024  13.2626455  14.8103295  )
        32           C   tau(  32) = (   4.9999985  14.6111123   3.3606431  )
        33           C   tau(  33) = (   4.9999923  14.8280129   7.3983332  )
        34           C   tau(  34) = (   5.0000019  14.6988759  11.4546374  )
        35           C   tau(  35) = (   5.0000038  14.4819745  15.4923240  )
        36           C   tau(  36) = (   5.0000021  12.0126104   0.6982779  )
        37           C   tau(  37) = (   4.9999975  12.1631230   4.8674554  )
        38           C   tau(  38) = (   5.0000012  12.0944011  12.7081386  )
        39           C   tau(  39) = (   5.0000009  13.2626314   1.3776763  )
        40           C   tau(  40) = (   4.9999938  13.4811788   5.4484158  )
        41           C   tau(  41) = (   5.0000005  13.5976474   9.3995332  )
        42           C   tau(  42) = (   5.0000019  13.3259851  13.4313714  )
        43           C   tau(  43) = (   4.9999968  15.8288233   2.6455598  )
        44           C   tau(  44) = (   4.9999951  16.0473452   6.7163315  )
        45           C   tau(  45) = (   5.0000029  15.9839992  10.8506150  )
        46           C   tau(  46) = (   5.0000074  15.7123559  14.8824764  )
        47           C   tau(  47) = (   4.9999966  17.1468768   3.2265661  )
        48           C   tau(  48) = (   4.9999980  17.2973813   7.3957331  )
        49           C   tau(  49) = (   5.0000032  17.2155903  11.5738533  )
        50           C   tau(  50) = (   5.0000000  14.4819979   0.6956736  )
        51           C   tau(  51) = (   4.9999965  14.6988740   4.7333656  )
        52           C   tau(  52) = (   4.9999977  14.8280041   8.7896642  )
        53           C   tau(  53) = (   5.0000022  14.6111187  12.8273631  )
        54           C   tau(  54) = (   4.9999949  15.7123379   1.3055452  )
        55           C   tau(  55) = (   4.9999950  15.9839992   5.3373836  )
        56           C   tau(  56) = (   5.0000006  16.0473510   9.4716736  )
        57           C   tau(  57) = (   5.0000041  15.8288187  13.5424171  )
        58           C   tau(  58) = (   4.9999983  18.3495163   2.4879003  )
        59           C   tau(  59) = (   4.9999982  18.5186058   6.6912692  )
        60           C   tau(  60) = (   5.0000027  18.4805479  10.9174793  )
        61           C   tau(  61) = (   4.9999989  19.5751681   3.1180605  )
        62           C   tau(  62) = (   4.9999996  19.7523742   7.3851962  )
        63           C   tau(  63) = (   5.0000020  19.6818741  11.6634872  )
        64           C   tau(  64) = (   4.9999960  17.2155917   4.6141419  )
        65           C   tau(  65) = (   5.0000002  17.2973793   8.7922677  )
        66           C   tau(  66) = (   5.0000032  17.1468774  12.9614448  )
        67           C   tau(  67) = (   4.9999970  18.4805471   5.2705236  )
        68           C   tau(  68) = (   5.0000018  18.5186052   9.4967315  )
        69           C   tau(  69) = (   5.0000013  18.3495165  13.7000957  )
        70           C   tau(  70) = (   4.9999994  20.9831251   6.6543296  )
        71           C   tau(  71) = (   5.0000019  20.9593837  10.9635749  )
        72           C   tau(  72) = (   4.9999999  22.2227439   7.3614450  )
        73           C   tau(  73) = (   5.0000018  22.1827769  11.6509399  )
        74           C   tau(  74) = (   4.9999978  19.6818750   4.5245117  )
        75           C   tau(  75) = (   5.0000009  19.7523750   8.8028051  )
        76           C   tau(  76) = (   5.0000005  19.5751664  13.0699434  )
        77           C   tau(  77) = (   4.9999984  20.9593837   5.2244270  )
        78           C   tau(  78) = (   5.0000013  20.9831246   9.5336715  )
        79           C   tau(  79) = (   4.9999996  23.4107317   6.6172338  )
        80           C   tau(  80) = (   5.0000006  23.3874084  10.9614317  )
        81           C   tau(  81) = (   4.9999981  22.1827774   4.5370613  )
        82           C   tau(  82) = (   5.0000001  22.2227441   8.8265565  )
        83           C   tau(  83) = (   4.9999989  23.3874086   5.2265699  )
        84           C   tau(  84) = (   4.9999994  23.4107311   9.5707676  )
        85           H   tau(  85) = (   4.9999983   4.9840258   3.4223027  )
        86           H   tau(  86) = (   5.0000011   4.9342040  15.2138421  )
        87           H   tau(  87) = (   4.9999997   7.1093889   4.6451173  )
        88           H   tau(  88) = (   4.9999996   4.9342039   0.9741583  )
        89           H   tau(  89) = (   5.0000025   4.9840259  12.7656978  )
        90           H   tau(  90) = (   4.9999994   8.8385109  10.5943557  )
        91           H   tau(  91) = (   5.0000026   7.1093889  11.5428834  )
        92           H   tau(  92) = (   4.9999991  10.9695948   9.4941831  )
        93           H   tau(  93) = (   5.0000056   8.8385108   5.5936448  )
        94           H   tau(  94) = (   5.0000019  10.9695949   6.6938187  )
        95           H   tau(  95) = (   4.9999809  12.6842330   7.3477760  )
        96           H   tau(  96) = (   5.0000015  12.6842296   8.8402220  )
        97           H   tau(  97) = (   5.0000124  16.6257572  15.4417959  )
        98           H   tau(  98) = (   4.9999901  16.6257650   0.7461997  )
        99           H   tau(  99) = (   5.0000003  18.3404171   1.4001798  )
       100           H   tau( 100) = (   5.0000011  20.4715114   2.5003586  )
       101           H   tau( 101) = (   4.9999990  18.3404164  14.7878226  )
       102           H   tau( 102) = (   5.0000032  22.2006212  12.7391234  )
       103           H   tau( 103) = (   4.9999983  20.4715111  13.6876423  )
       104           H   tau( 104) = (   5.0000002  24.3758121   7.1198460  )
       105           H   tau( 105) = (   5.0000004  24.3259768  11.5163000  )
       106           H   tau( 106) = (   4.9999969  22.2006217   3.4488781  )
       107           H   tau( 107) = (   4.9999986  24.3259771   4.6717015  )
       108           H   tau( 108) = (   4.9999977  24.3758120   9.0681556  )

     number of k points=    26  Marzari-Vanderbilt smearing, width (Ry)=  0.0100
                       cart. coord. in units 2pi/alat
        k(    1) = (   0.0000000   0.0000000   0.0000000), wk =   0.0400000
        k(    2) = (   0.0000000   0.0000000   0.0012355), wk =   0.0800000
        k(    3) = (   0.0000000   0.0000000   0.0024710), wk =   0.0800000
        k(    4) = (   0.0000000   0.0000000   0.0037064), wk =   0.0800000
        k(    5) = (   0.0000000   0.0000000   0.0049419), wk =   0.0800000
        k(    6) = (   0.0000000   0.0000000   0.0061774), wk =   0.0800000
        k(    7) = (   0.0000000   0.0000000   0.0074129), wk =   0.0800000
        k(    8) = (   0.0000000   0.0000000   0.0086484), wk =   0.0800000
        k(    9) = (   0.0000000   0.0000000   0.0098839), wk =   0.0800000
        k(   10) = (   0.0000000   0.0000000   0.0111193), wk =   0.0800000
        k(   11) = (   0.0000000   0.0000000   0.0123548), wk =   0.0800000
        k(   12) = (   0.0000000   0.0000000   0.0135903), wk =   0.0800000
        k(   13) = (   0.0000000   0.0000000   0.0148258), wk =   0.0800000
        k(   14) = (   0.0000000   0.0000000   0.0160613), wk =   0.0800000
        k(   15) = (   0.0000000   0.0000000   0.0172968), wk =   0.0800000
        k(   16) = (   0.0000000   0.0000000   0.0185322), wk =   0.0800000
        k(   17) = (   0.0000000   0.0000000   0.0197677), wk =   0.0800000
        k(   18) = (   0.0000000   0.0000000   0.0210032), wk =   0.0800000
        k(   19) = (   0.0000000   0.0000000   0.0222387), wk =   0.0800000
        k(   20) = (   0.0000000   0.0000000   0.0234742), wk =   0.0800000
        k(   21) = (   0.0000000   0.0000000   0.0247097), wk =   0.0800000
        k(   22) = (   0.0000000   0.0000000   0.0259451), wk =   0.0800000
        k(   23) = (   0.0000000   0.0000000   0.0271806), wk =   0.0800000
        k(   24) = (   0.0000000   0.0000000   0.0284161), wk =   0.0800000
        k(   25) = (   0.0000000   0.0000000   0.0296516), wk =   0.0800000
        k(   26) = (   0.0000000   0.0000000  -0.0308871), wk =   0.0400000

     Dense  grid:  5686317 G-vectors     FFT dimensions: ( 135, 400, 216)

     Smooth grid:  1094165 G-vectors     FFT dimensions: (  80, 225, 125)

     Estimated max dynamical RAM per process >       1.21 GB

     Estimated total dynamical RAM >      19.39 GB

     The potential is recalculated from file :
     /home/zfwang/scratch/GNRDATASET/AGNR/V9_m5/V9_m5.save/charge-density.dat


     negative rho (up, down):  2.571E-04 0.000E+00
     Starting wfcs are  360 randomized atomic wfcs +  140 random wfcs

     Band Structure Calculation
     Davidson diagonalization with overlap

     ethr =  2.78E-09,  avg # of iterations = 40.9

     total cpu time spent up to now is    10406.2 secs

     End of band structure calculation

          k = 0.0000 0.0000 0.0000 (136729 PWs)   bands (ev):

   -21.5166 -21.2589 -21.1498 -20.8247 -20.7009 -20.6375 -20.2388 -20.1930
   -20.1218 -19.8738 -19.7944 -19.7281 -19.5831 -19.3265 -19.1302 -18.9486
   -18.9221 -18.6672 -18.5949 -18.3236 -18.3095 -18.1472 -18.0140 -17.8404
   -17.6244 -17.6218 -17.4912 -17.3486 -17.1636 -17.0466 -16.9761 -16.8686
   -16.7249 -16.6798 -16.5458 -16.4697 -16.2895 -16.2450 -15.8468 -15.6742
   -15.6250 -15.2215 -15.0473 -14.9417 -14.6994 -14.6655 -14.6375 -14.3208
   -14.3048 -14.2455 -14.0841 -14.0712 -13.8392 -13.7952 -13.6661 -13.5218
   -13.4243 -13.0448 -12.9885 -12.7557 -12.5855 -12.5790 -12.5784 -12.4797
   -12.4412 -11.9862 -11.9793 -11.9091 -11.8027 -11.7191 -11.4810 -11.2533
   -11.2213 -11.1856 -11.0563 -11.0484 -10.9178 -10.8309 -10.7263 -10.6497
   -10.5726 -10.3425 -10.2647 -10.2519 -10.1342  -9.9501  -9.9147  -9.7895
    -9.7715  -9.5677  -9.5577  -9.5336  -9.4667  -9.3210  -9.3165  -9.2564
    -9.1961  -9.1672  -9.0988  -9.0977  -9.0903  -8.8991  -8.8210  -8.7890
    -8.7215  -8.7162  -8.7055  -8.6614  -8.6043  -8.5629  -8.5389  -8.5038
    -8.4648  -8.4315  -8.3015  -8.2821  -8.2283  -8.1815  -8.1270  -8.1099
    -8.0687  -8.0357  -7.9290  -7.9285  -7.8757  -7.7617  -7.6616  -7.5932
    -7.5546  -7.5482  -7.5467  -7.4898  -7.4317  -7.3936  -7.3319  -7.1370
    -7.1342  -7.1283  -7.0180  -6.9411  -6.8833  -6.8259  -6.7674  -6.6932
    -6.6321  -6.6229  -6.4429  -6.3987  -6.3417  -6.3275  -6.2824  -6.2526
    -5.9916  -5.9107  -5.9104  -5.8890  -5.8315  -5.8047  -5.6057  -5.5029
    -5.4606  -5.2876  -5.2113  -5.1347  -5.1344  -5.0511  -4.8804  -4.7396
    -4.6471  -4.5036  -4.4027  -4.3931  -4.3605  -4.2269  -4.1071  -3.8368
    -3.4456  -3.3771  -2.9860  -2.7155  -1.2367  -1.1407  -0.9797  -0.8859
    -0.5329  -0.4310  -0.2845  -0.1542  -0.1270   0.1043   0.1864   0.2016
     0.3402   0.3631   0.6614   0.8337   0.8338   0.8823   1.0504   1.1293
     1.1334   1.2748   1.2826   1.3167   1.4612   1.5234   1.5527   1.6332
     1.6948   1.7061   1.7085   1.7540   1.7603   1.8912   2.0178   2.0369
     2.0722   2.0771   2.2160   2.2391   2.3254   2.3923   2.4138   2.4409
     2.4829   2.5147   2.6074   2.6128   2.6840   2.6907   2.6990   2.8007
     2.8044   2.9178   2.9345   2.9520   2.9778   2.9965   3.0499   3.0602
     3.0803   3.1560   3.1786   3.2548   3.2609   3.2979   3.3000   3.3228
     3.3360   3.3573   3.3790   3.3827   3.4015   3.4724   3.5036   3.6296
     3.6488   3.6538   3.6886   3.7074   3.7308   3.7999   3.8121   3.8324
     3.8342   3.8509   3.8786   3.8882   3.9382   4.0142   4.0292   4.0896
     4.1241   4.1385   4.1682   4.1702   4.2151   4.2822   4.3150   4.4374
     4.4632   4.4700   4.4727   4.5171   4.5186   4.5628   4.5800   4.5917
     4.6103   4.6138   4.6609   4.6843   4.7078   4.7083   4.7120   4.7725
     4.7884   4.8104   4.8516   4.8538   4.8541   4.8746   4.9318   4.9472
     4.9717   5.0022   5.0237   5.0711   5.1179   5.1349   5.1770   5.1883
     5.2608   5.2643   5.2723   5.2798   5.3035   5.3066   5.3373   5.4093
     5.4331   5.4417   5.4538   5.4675   5.4945   5.5394   5.5456   5.5476
     5.6147   5.6223   5.6820   5.7354   5.7566   5.7650   5.7987   5.8202
     5.8388   5.8690   5.8765   5.8828   5.9395   5.9692   6.0202   6.0479
     6.0636   6.0722   6.0948   6.1002   6.1038   6.1225   6.1405   6.1507
     6.1603   6.1636   6.1825   6.2288   6.2414   6.2423   6.2553   6.2657
     6.3038   6.3130   6.3236   6.3261   6.3293   6.3720   6.3723   6.4761
     6.5067   6.5171   6.5210   6.5354   6.5681   6.5884   6.5958   6.6065
     6.6138   6.6331   6.6474   6.6512   6.7286   6.7601   6.7640   6.7772
     6.7829   6.8156   6.8250   6.8421   6.8836   6.9126   6.9126   6.9564
     6.9747   6.9941   7.0057   7.0171   7.0220   7.0482   7.0811   7.1173
     7.1185   7.1266   7.1350   7.1390   7.1629   7.1890   7.2349   7.2368
     7.2455   7.3027   7.3218   7.3241   7.3355   7.3669   7.3863   7.3892
     7.4145   7.4294   7.4447   7.4928   7.5194   7.5196   7.5542   7.5781
     7.5925   7.6047   7.6125   7.6280   7.6283   7.6323   7.6459   7.6712
     7.6761   7.7249   7.7300   7.7322   7.7538   7.7576   7.7745   7.8006
     7.8248   7.8423   7.8561   7.8609   7.8952   7.9210   7.9457   7.9561
     7.9736   7.9978   7.9982   8.0016   8.0530   8.0559   8.0939   8.1030
     8.1031   8.1047   8.1096   8.1176   8.1534   8.1715   8.1749   8.2592
     8.2705   8.3231   8.3761   8.3962   8.3996   8.4009   8.4018   8.4420
     8.4570   8.4588   8.4756   8.5154   8.5210   8.5493   8.5622   8.5647
     8.5704   8.5901   8.6303   8.6473   8.6578   8.6580   8.6636   8.6928
     8.7067   8.7291   8.7328   8.7652   8.7781   8.8208   8.8413   8.8549
     8.8676   8.8834   8.8931   8.8973

          k = 0.0000 0.0000 0.0012 (136743 PWs)   bands (ev):

   -21.5165 -21.2599 -21.1487 -20.8250 -20.7007 -20.6373 -20.2399 -20.1918
   -20.1226 -19.8751 -19.7929 -19.7273 -19.5833 -19.3267 -19.1299 -18.9501
   -18.9202 -18.6678 -18.5942 -18.3237 -18.3099 -18.1467 -18.0163 -17.8406
   -17.6229 -17.6216 -17.4908 -17.3485 -17.1638 -17.0461 -16.9767 -16.8682
   -16.7255 -16.6789 -16.5458 -16.4697 -16.2897 -16.2450 -15.8472 -15.6743
   -15.6247 -15.2292 -15.0399 -14.9414 -14.6996 -14.6665 -14.6362 -14.3223
   -14.3052 -14.2438 -14.0859 -14.0684 -13.8393 -13.7951 -13.6658 -13.5221
   -13.4251 -13.0448 -12.9894 -12.7569 -12.6036 -12.5772 -12.5605 -12.4843
   -12.4363 -11.9866 -11.9800 -11.9081 -11.8026 -11.7186 -11.4826 -11.2536
   -11.2194 -11.1867 -11.0559 -11.0500 -10.9172 -10.8329 -10.7265 -10.6454
   -10.5728 -10.3430 -10.2654 -10.2524 -10.1330  -9.9500  -9.9153  -9.7891
    -9.7718  -9.5828  -9.5422  -9.5334  -9.4668  -9.3207  -9.3159  -9.2572
    -9.1958  -9.1682  -9.0979  -9.0974  -9.0900  -8.8992  -8.8216  -8.7893
    -8.7225  -8.7148  -8.7056  -8.6624  -8.6041  -8.5626  -8.5384  -8.5054
    -8.4649  -8.4332  -8.3016  -8.2819  -8.2281  -8.1842  -8.1230  -8.1113
    -8.0672  -8.0369  -7.9293  -7.9274  -7.8753  -7.7607  -7.6632  -7.5935
    -7.5540  -7.5486  -7.5459  -7.4883  -7.4317  -7.3938  -7.3322  -7.1428
    -7.1285  -7.1282  -7.0183  -6.9418  -6.8828  -6.8255  -6.7674  -6.6933
    -6.6317  -6.6223  -6.4439  -6.3991  -6.3418  -6.3279  -6.2818  -6.2524
    -5.9917  -5.9121  -5.9098  -5.8873  -5.8389  -5.7972  -5.6074  -5.5031
    -5.4611  -5.2879  -5.2112  -5.1372  -5.1316  -5.0501  -4.8805  -4.7399
    -4.6468  -4.5038  -4.4024  -4.3931  -4.3601  -4.2271  -4.1069  -3.8370
    -3.4454  -3.3767  -2.9864  -2.7169  -1.2359  -1.1407  -0.9794  -0.8856
    -0.5328  -0.4311  -0.2845  -0.1563  -0.1249   0.1040   0.1860   0.2018
     0.3400   0.3637   0.6606   0.8338   0.8338   0.8824   1.0511   1.1290
     1.1335   1.2739   1.2822   1.3129   1.4613   1.5235   1.5528   1.6317
     1.6931   1.6982   1.7225   1.7540   1.7622   1.8914   2.0174   2.0375
     2.0723   2.0770   2.2163   2.2395   2.3254   2.3927   2.4128   2.4412
     2.4843   2.5146   2.6069   2.6119   2.6841   2.6899   2.6990   2.8019
     2.8052   2.9172   2.9287   2.9569   2.9740   2.9915   3.0551   3.0614
     3.0838   3.1557   3.1776   3.2549   3.2569   3.2957   3.3009   3.3232
     3.3312   3.3614   3.3786   3.3871   3.3903   3.4760   3.5168   3.6253
     3.6446   3.6500   3.6982   3.7080   3.7269   3.7900   3.8032   3.8319
     3.8446   3.8572   3.8810   3.8971   3.9382   4.0147   4.0296   4.0853
     4.1243   4.1428   4.1671   4.1693   4.2084   4.2828   4.3227   4.4366
     4.4461   4.4697   4.4878   4.5101   4.5178   4.5566   4.5857   4.5898
     4.6019   4.6074   4.6727   4.6821   4.7015   4.7124   4.7180   4.7766
     4.7882   4.8091   4.8543   4.8561   4.8629   4.8745   4.9113   4.9474
     4.9767   4.9929   5.0495   5.0712   5.1175   5.1304   5.1770   5.1885
     5.2425   5.2648   5.2703   5.2826   5.3062   5.3243   5.3390   5.4090
     5.4260   5.4280   5.4617   5.4651   5.4936   5.5355   5.5536   5.5545
     5.6189   5.6212   5.6817   5.7362   5.7558   5.7671   5.7963   5.8137
     5.8371   5.8690   5.8769   5.8890   5.9428   5.9648   6.0159   6.0473
     6.0605   6.0701   6.0878   6.0957   6.1009   6.1201   6.1244   6.1580
     6.1595   6.1662   6.1787   6.2300   6.2421   6.2488   6.2557   6.2840
     6.2952   6.3208   6.3211   6.3303   6.3347   6.3745   6.3768   6.4732
     6.5067   6.5069   6.5202   6.5472   6.5688   6.5756   6.6041   6.6082
     6.6130   6.6276   6.6532   6.6537   6.7272   6.7584   6.7645   6.7769
     6.7832   6.8179   6.8264   6.8438   6.8820   6.9065   6.9113   6.9556
     6.9690   6.9918   7.0050   7.0194   7.0254   7.0572   7.0701   7.1126
     7.1187   7.1217   7.1360   7.1377   7.1633   7.1988   7.2345   7.2433
     7.2457   7.2986   7.3233   7.3276   7.3327   7.3651   7.3869   7.3938
     7.4148   7.4149   7.4594   7.4894   7.5180   7.5184   7.5558   7.5764
     7.5866   7.6067   7.6082   7.6107   7.6419   7.6419   7.6443   7.6790
     7.6798   7.7011   7.7060   7.7487   7.7531   7.7557   7.7764   7.8212
     7.8260   7.8485   7.8509   7.8621   7.9007   7.9111   7.9536   7.9546
     7.9748   7.9868   8.0010   8.0025   8.0469   8.0564   8.0856   8.1029
     8.1053   8.1059   8.1174   8.1249   8.1610   8.1770   8.1775   8.2613
     8.2712   8.3259   8.3801   8.3978   8.3981   8.4004   8.4004   8.4421
     8.4508   8.4571   8.4748   8.5048   8.5130   8.5417   8.5492   8.5702
     8.5860   8.6041   8.6224   8.6227   8.6630   8.6660   8.6814   8.6986
     8.7013   8.7277   8.7386   8.7667   8.7846   8.8215   8.8353   8.8400
     8.8634   8.8806   8.8820   8.9153

          k = 0.0000 0.0000 0.0025 (136723 PWs)   bands (ev):

   -21.5161 -21.2628 -21.1456 -20.8258 -20.7001 -20.6366 -20.2428 -20.1887
   -20.1252 -19.8788 -19.7890 -19.7251 -19.5839 -19.3271 -19.1290 -18.9540
   -18.9157 -18.6697 -18.5924 -18.3239 -18.3111 -18.1452 -18.0230 -17.8413
   -17.6213 -17.6183 -17.4895 -17.3482 -17.1644 -17.0444 -16.9785 -16.8669
   -16.7270 -16.6763 -16.5460 -16.4697 -16.2902 -16.2450 -15.8483 -15.6744
   -15.6240 -15.2491 -15.0208 -14.9404 -14.7002 -14.6691 -14.6328 -14.3266
   -14.3065 -14.2390 -14.0892 -14.0622 -13.8398 -13.7949 -13.6650 -13.5227
   -13.4273 -13.0447 -12.9920 -12.7602 -12.6237 -12.5736 -12.5388 -12.4944
   -12.4252 -11.9875 -11.9820 -11.9053 -11.8025 -11.7172 -11.4872 -11.2547
   -11.2138 -11.1897 -11.0549 -11.0549 -10.9153 -10.8386 -10.7262 -10.6335
   -10.5734 -10.3444 -10.2673 -10.2539 -10.1294  -9.9499  -9.9167  -9.7877
    -9.7724  -9.6015  -9.5330  -9.5227  -9.4671  -9.3199  -9.3143  -9.2597
    -9.1950  -9.1710  -9.0965  -9.0955  -9.0893  -8.8995  -8.8235  -8.7902
    -8.7243  -8.7119  -8.7058  -8.6651  -8.6033  -8.5619  -8.5367  -8.5103
    -8.4650  -8.4377  -8.3019  -8.2816  -8.2275  -8.1903  -8.1150  -8.1131
    -8.0632  -8.0402  -7.9316  -7.9229  -7.8739  -7.7578  -7.6678  -7.5943
    -7.5522  -7.5495  -7.5439  -7.4839  -7.4314  -7.3946  -7.3328  -7.1500
    -7.1280  -7.1219  -7.0192  -6.9438  -6.8815  -6.8243  -6.7674  -6.6938
    -6.6306  -6.6206  -6.4468  -6.4004  -6.3420  -6.3292  -6.2801  -6.2517
    -5.9918  -5.9155  -5.9081  -5.8829  -5.8524  -5.7834  -5.6123  -5.5039
    -5.4627  -5.2885  -5.2110  -5.1394  -5.1282  -5.0471  -4.8808  -4.7406
    -4.6459  -4.5044  -4.4016  -4.3929  -4.3589  -4.2276  -4.1063  -3.8374
    -3.4448  -3.3754  -2.9874  -2.7210  -1.2334  -1.1405  -0.9784  -0.8848
    -0.5323  -0.4311  -0.2846  -0.1613  -0.1197   0.1029   0.1849   0.2025
     0.3393   0.3657   0.6583   0.8339   0.8343   0.8828   1.0533   1.1281
     1.1338   1.2714   1.2812   1.3020   1.4617   1.5238   1.5533   1.6272
     1.6804   1.7078   1.7384   1.7538   1.7676   1.8923   2.0165   2.0391
     2.0725   2.0769   2.2172   2.2406   2.3255   2.3938   2.4101   2.4419
     2.4882   2.5145   2.6054   2.6095   2.6843   2.6876   2.6988   2.8054
     2.8077   2.9156   2.9179   2.9637   2.9653   2.9799   3.0646   3.0673
     3.0931   3.1544   3.1745   3.2467   3.2554   3.2905   3.3032   3.3191
     3.3242   3.3648   3.3719   3.3774   3.3989   3.4880   3.5447   3.6136
     3.6278   3.6537   3.7081   3.7164   3.7164   3.7722   3.7859   3.8350
     3.8636   3.8637   3.8913   3.9183   3.9382   4.0163   4.0308   4.0756
     4.1250   4.1523   4.1641   4.1662   4.1933   4.2846   4.3416   4.4249
     4.4343   4.4686   4.4939   4.4971   4.5142   4.5476   4.5793   4.5921
     4.5957   4.5966   4.6754   4.6864   4.6955   4.7218   4.7315   4.7872
     4.7894   4.8075   4.8562   4.8672   4.8732   4.8815   4.8851   4.9435
     4.9482   5.0263   5.0713   5.0839   5.1165   5.1187   5.1770   5.1891
     5.2081   5.2666   5.2752   5.2884   5.3052   5.3438   5.3546   5.3992
     5.4083   5.4151   5.4584   5.4761   5.4915   5.5211   5.5596   5.5839
     5.6181   5.6303   5.6806   5.7384   5.7531   5.7732   5.7900   5.7988
     5.8323   5.8697   5.8765   5.9030   5.9511   5.9534   6.0039   6.0367
     6.0560   6.0657   6.0696   6.0835   6.0948   6.1053   6.1127   6.1489
     6.1588   6.1705   6.1870   6.2361   6.2428   6.2571   6.2653   6.2820
     6.3055   6.3323   6.3352   6.3417   6.3462   6.3801   6.3880   6.4661
     6.4886   6.5074   6.5258   6.5567   6.5614   6.5708   6.6084   6.6108
     6.6135   6.6226   6.6586   6.6631   6.7243   6.7539   6.7661   6.7748
     6.7841   6.8237   6.8299   6.8483   6.8770   6.8910   6.9087   6.9536
     6.9582   6.9851   7.0039   7.0250   7.0317   7.0432   7.0766   7.1041
     7.1103   7.1235   7.1273   7.1373   7.1678   7.2197   7.2347   7.2463
     7.2602   7.2872   7.3259   7.3273   7.3373   7.3606   7.3887   7.3957
     7.4031   7.4151   7.4790   7.4815   7.5116   7.5150   7.5595   7.5699
     7.5748   7.5907   7.6001   7.6194   7.6394   7.6481   7.6592   7.6680
     7.6741   7.6905   7.6991   7.7392   7.7538   7.7703   7.7789   7.8148
     7.8364   7.8487   7.8626   7.8834   7.8962   7.9145   7.9506   7.9617
     7.9625   7.9782   8.0056   8.0088   8.0344   8.0585   8.0714   8.1050
     8.1071   8.1108   8.1346   8.1400   8.1741   8.1846   8.1922   8.2612
     8.2820   8.3343   8.3895   8.3905   8.3963   8.4017   8.4023   8.4347
     8.4426   8.4510   8.4674   8.4826   8.5070   8.5221   8.5444   8.5692
     8.5924   8.6031   8.6083   8.6333   8.6717   8.6750   8.6914   8.7085
     8.7114   8.7234   8.7489   8.7761   8.7989   8.8200   8.8204   8.8242
     8.8304   8.8726   8.8970   8.9157

          k = 0.0000 0.0000 0.0037 (136693 PWs)   bands (ev):

   -21.5154 -21.2674 -21.1408 -20.8273 -20.6991 -20.6355 -20.2470 -20.1842
   -20.1294 -19.8840 -19.7834 -19.7212 -19.5848 -19.3279 -19.1275 -18.9587
   -18.9097 -18.6726 -18.5896 -18.3243 -18.3130 -18.1426 -18.0337 -17.8424
   -17.6207 -17.6112 -17.4873 -17.3476 -17.1654 -17.0417 -16.9813 -16.8649
   -16.7294 -16.6722 -16.5463 -16.4698 -16.2912 -16.2449 -15.8501 -15.6746
   -15.6227 -15.2761 -14.9953 -14.9388 -14.7011 -14.6727 -14.6280 -14.3327
   -14.3084 -14.2319 -14.0921 -14.0546 -13.8406 -13.7946 -13.6637 -13.5238
   -13.4310 -13.0447 -12.9963 -12.7656 -12.6428 -12.5680 -12.5169 -12.5061
   -12.4119 -11.9891 -11.9851 -11.9009 -11.8024 -11.7149 -11.4943 -11.2567
   -11.2051 -11.1944 -11.0625 -11.0536 -10.9123 -10.8476 -10.7237 -10.6166
   -10.5745 -10.3467 -10.2705 -10.2561 -10.1237  -9.9504  -9.9187  -9.7853
    -9.7734  -9.6198  -9.5322  -9.5032  -9.4676  -9.3186  -9.3116  -9.2636
    -9.1936  -9.1756  -9.0952  -9.0915  -9.0881  -8.9000  -8.8264  -8.7917
    -8.7262  -8.7084  -8.7062  -8.6693  -8.6020  -8.5606  -8.5342  -8.5191
    -8.4652  -8.4439  -8.3022  -8.2809  -8.2265  -8.1968  -8.1201  -8.1010
    -8.0575  -8.0451  -7.9355  -7.9159  -7.8715  -7.7531  -7.6746  -7.5953
    -7.5511  -7.5493  -7.5411  -7.4767  -7.4310  -7.3958  -7.3339  -7.1574
    -7.1277  -7.1155  -7.0206  -6.9470  -6.8793  -6.8222  -6.7674  -6.6945
    -6.6288  -6.6178  -6.4515  -6.4025  -6.3426  -6.3313  -6.2774  -6.2507
    -5.9919  -5.9196  -5.9054  -5.8772  -5.8671  -5.7682  -5.6202  -5.5051
    -5.4654  -5.2896  -5.2107  -5.1415  -5.1243  -5.0425  -4.8812  -4.7419
    -4.6445  -4.5054  -4.4003  -4.3927  -4.3569  -4.2286  -4.1054  -3.8381
    -3.4437  -3.3733  -2.9890  -2.7277  -1.2295  -1.1402  -0.9768  -0.8835
    -0.5316  -0.4313  -0.2847  -0.1676  -0.1131   0.1011   0.1831   0.2035
     0.3382   0.3689   0.6545   0.8340   0.8351   0.8833   1.0566   1.1266
     1.1343   1.2672   1.2794   1.2853   1.4624   1.5237   1.5539   1.6204
     1.6695   1.7224   1.7533   1.7547   1.7759   1.8938   2.0151   2.0418
     2.0730   2.0767   2.2188   2.2425   2.3255   2.3957   2.4062   2.4431
     2.4941   2.5141   2.6029   2.6060   2.6838   2.6847   2.6983   2.8111
     2.8117   2.9057   2.9129   2.9494   2.9659   2.9736   3.0697   3.0823
     3.1058   3.1512   3.1689   3.2330   3.2563   3.2854   3.3033   3.3066
     3.3259   3.3354   3.3754   3.3862   3.4154   3.5046   3.5767   3.5970
     3.6098   3.6599   3.6953   3.7130   3.7366   3.7532   3.7679   3.8446
     3.8644   3.8849   3.9081   3.9381   3.9447   4.0192   4.0328   4.0647
     4.1261   4.1576   4.1590   4.1632   4.1788   4.2879   4.3655   4.4040
     4.4308   4.4657   4.4738   4.4832   4.5040   4.5552   4.5697   4.5740
     4.5946   4.6024   4.6654   4.6744   4.7199   4.7295   4.7448   4.7824
     4.8093   4.8114   4.8524   4.8588   4.8753   4.8827   4.9106   4.9146
     4.9496   5.0603   5.0714   5.1028   5.1152   5.1189   5.1725   5.1770
     5.1901   5.2624   5.2874   5.2961   5.3047   5.3468   5.3712   5.3768
     5.4073   5.4109   5.4496   5.4891   5.4927   5.5037   5.5625   5.6138
     5.6193   5.6461   5.6788   5.7412   5.7484   5.7810   5.7812   5.7828
     5.8252   5.8712   5.8719   5.9191   5.9391   5.9583   5.9900   6.0127
     6.0451   6.0498   6.0616   6.0664   6.0886   6.0916   6.1010   6.1416
     6.1584   6.1740   6.1951   6.2413   6.2477   6.2594   6.2691   6.2871
     6.3013   6.3532   6.3577   6.3601   6.3742   6.3892   6.3993   6.4586
     6.4740   6.5083   6.5326   6.5371   6.5735   6.5743   6.6032   6.6072
     6.6219   6.6251   6.6656   6.6701   6.7229   6.7475   6.7682   6.7688
     6.7852   6.8308   6.8336   6.8542   6.8688   6.8723   6.9082   6.9458
     6.9510   6.9740   7.0045   7.0086   7.0313   7.0405   7.0920   7.0951
     7.0963   7.1138   7.1307   7.1413   7.1773   7.2374   7.2425   7.2467
     7.2711   7.2822   7.3181   7.3320   7.3506   7.3559   7.3799   7.3914
     7.4087   7.4134   7.4747   7.4976   7.4977   7.5094   7.5529   7.5542
     7.5630   7.5823   7.5966   7.6259   7.6331   7.6382   7.6538   7.6545
     7.6766   7.7075   7.7188   7.7319   7.7587   7.7728   7.7815   7.8108
     7.8150   7.8462   7.8729   7.8901   7.9267   7.9291   7.9370   7.9460
     7.9657   7.9838   8.0129   8.0177   8.0224   8.0627   8.0639   8.1011
     8.1172   8.1195   8.1521   8.1550   8.1861   8.1946   8.2139   8.2573
     8.3074   8.3475   8.3750   8.3895   8.3970   8.4029   8.4082   8.4195
     8.4322   8.4455   8.4499   8.4781   8.5003   8.5058   8.5347   8.5610
     8.5678   8.5895   8.6295   8.6458   8.6815   8.6883   8.6907   8.7230
     8.7239   8.7349   8.7580   8.7873   8.7929   8.7959   8.8066   8.8208
     8.8299   8.8600   8.8761   8.9142

          k = 0.0000 0.0000 0.0049 (136711 PWs)   bands (ev):

   -21.5145 -21.2732 -21.1346 -20.8293 -20.6976 -20.6340 -20.2521 -20.1788
   -20.1352 -19.8903 -19.7770 -19.7155 -19.5861 -19.3290 -19.1254 -18.9638
   -18.9029 -18.6763 -18.5860 -18.3248 -18.3156 -18.1392 -18.0478 -17.8442
   -17.6198 -17.6021 -17.4840 -17.3468 -17.1669 -17.0379 -16.9853 -16.8620
   -16.7323 -16.6671 -16.5467 -16.4699 -16.2925 -16.2449 -15.8526 -15.6751
   -15.6210 -15.3066 -14.9669 -14.9365 -14.7024 -14.6767 -14.6223 -14.3400
   -14.3107 -14.2233 -14.0942 -14.0460 -13.8416 -13.7942 -13.6619 -13.5252
   -13.4362 -13.0446 -13.0024 -12.7726 -12.6605 -12.5608 -12.5178 -12.4952
   -12.3976 -11.9912 -11.9890 -11.8954 -11.8020 -11.7119 -11.5033 -11.2597
   -11.2001 -11.1939 -11.0722 -11.0523 -10.9080 -10.8591 -10.7185 -10.5968
   -10.5761 -10.3496 -10.2748 -10.2589 -10.1162  -9.9524  -9.9203  -9.7821
    -9.7742  -9.6375  -9.5312  -9.4842  -9.4682  -9.3166  -9.3078  -9.2688
    -9.1916  -9.1817  -9.0937  -9.0864  -9.0863  -8.9008  -8.8304  -8.7937
    -8.7281  -8.7068  -8.7047  -8.6746  -8.6001  -8.5589  -8.5326  -8.5309
    -8.4661  -8.4502  -8.3025  -8.2799  -8.2252  -8.2021  -8.1260  -8.0886
    -8.0510  -8.0509  -7.9408  -7.9071  -7.8679  -7.7468  -7.6831  -7.5962
    -7.5532  -7.5457  -7.5379  -7.4671  -7.4304  -7.3975  -7.3354  -7.1649
    -7.1273  -7.1093  -7.0226  -6.9514  -6.8765  -6.8194  -6.7674  -6.6953
    -6.6263  -6.6140  -6.4577  -6.4054  -6.3437  -6.3341  -6.2735  -6.2493
    -5.9921  -5.9238  -5.9016  -5.8819  -5.8707  -5.7527  -5.6310  -5.5068
    -5.4690  -5.2912  -5.2102  -5.1435  -5.1197  -5.0362  -4.8819  -4.7437
    -4.6426  -4.5067  -4.3986  -4.3923  -4.3542  -4.2298  -4.1040  -3.8392
    -3.4422  -3.3703  -2.9914  -2.7371  -1.2241  -1.1398  -0.9745  -0.8816
    -0.5306  -0.4315  -0.2849  -0.1744  -0.1058   0.0987   0.1807   0.2049
     0.3367   0.3732   0.6492   0.8344   0.8362   0.8841   1.0608   1.1245
     1.1350   1.2617   1.2645   1.2770   1.4634   1.5226   1.5548   1.6119
     1.6612   1.7405   1.7526   1.7712   1.7864   1.8961   2.0134   2.0458
     2.0735   2.0763   2.2210   2.2450   2.3253   2.3985   2.4017   2.4447
     2.5013   2.5130   2.5997   2.6023   2.6786   2.6852   2.6975   2.8172
     2.8186   2.8929   2.9095   2.9326   2.9512   2.9813   3.0762   3.0983
     3.1203   3.1449   3.1607   3.2179   3.2579   3.2823   3.2833   3.3106
     3.3109   3.3281   3.3728   3.4023   3.4346   3.5218   3.5774   3.5920
     3.6089   3.6683   3.6747   3.7146   3.7344   3.7525   3.7576   3.8584
     3.8627   3.9068   3.9266   3.9380   3.9728   4.0237   4.0356   4.0554
     4.1276   4.1406   4.1518   4.1711   4.1736   4.2927   4.3838   4.3907
     4.4264   4.4518   4.4554   4.4600   4.4871   4.5572   4.5686   4.5724
     4.5935   4.5945   4.6541   4.6764   4.7323   4.7423   4.7546   4.7673
     4.8157   4.8386   4.8403   4.8618   4.8753   4.8796   4.9011   4.9476
     4.9518   5.0707   5.0854   5.0916   5.1156   5.1376   5.1537   5.1772
     5.1916   5.2574   5.2915   5.3053   5.3116   5.3233   5.3720   5.3761
     5.4062   5.4261   5.4413   5.4839   5.4864   5.5123   5.5640   5.6093
     5.6554   5.6633   5.6759   5.7410   5.7434   5.7629   5.7719   5.7951
     5.8166   5.8550   5.8757   5.9273   5.9339   5.9498   5.9871   5.9890
     6.0174   6.0332   6.0480   6.0602   6.0798   6.0849   6.0905   6.1402
     6.1580   6.1748   6.1984   6.2364   6.2590   6.2627   6.2636   6.2942
     6.3110   6.3724   6.3756   6.3770   6.3925   6.4033   6.4238   6.4542
     6.4687   6.5095   6.5207   6.5395   6.5795   6.5840   6.5955   6.6021
     6.6290   6.6330   6.6723   6.6726   6.7259   6.7404   6.7559   6.7724
     6.7860   6.8345   6.8356   6.8541   6.8564   6.8627   6.9130   6.9319
     6.9487   6.9592   6.9703   7.0075   7.0359   7.0533   7.0770   7.0911
     7.0969   7.1024   7.1231   7.1697   7.1886   7.2425   7.2462   7.2475
     7.2690   7.3028   7.3117   7.3319   7.3554   7.3633   7.3728   7.3951
     7.4032   7.4103   7.4750   7.4770   7.4997   7.5169   7.5196   7.5298
     7.5627   7.5777   7.5946   7.6186   7.6264   7.6306   7.6545   7.6574
     7.6869   7.7292   7.7337   7.7347   7.7659   7.7664   7.7856   7.7894
     7.8095   7.8371   7.8677   7.9013   7.9084   7.9331   7.9470   7.9644
     7.9810   7.9914   8.0105   8.0266   8.0275   8.0688   8.0694   8.0940
     8.1311   8.1340   8.1656   8.1671   8.1980   8.2047   8.2390   8.2547
     8.3417   8.3551   8.3634   8.3757   8.3795   8.4044   8.4067   8.4124
     8.4237   8.4346   8.4549   8.4782   8.4931   8.4982   8.5214   8.5291
     8.5664   8.5809   8.6425   8.6490   8.6730   8.7025   8.7107   8.7309
     8.7403   8.7561   8.7628   8.7629   8.7632   8.7895   8.7946   8.8394
     8.8439   8.8501   8.8575   8.9088

          k = 0.0000 0.0000 0.0062 (136665 PWs)   bands (ev):

   -21.5133 -21.2800 -21.1274 -20.8319 -20.6958 -20.6321 -20.2576 -20.1728
   -20.1423 -19.8970 -19.7706 -19.7081 -19.5878 -19.3304 -19.1228 -18.9688
   -18.8957 -18.6806 -18.5818 -18.3255 -18.3187 -18.1350 -18.0645 -17.8467
   -17.6188 -17.5919 -17.4797 -17.3457 -17.1688 -17.0331 -16.9903 -16.8582
   -16.7356 -16.6610 -16.5473 -16.4701 -16.2941 -16.2449 -15.8557 -15.6758
   -15.6189 -15.3386 -14.9377 -14.9336 -14.7039 -14.6808 -14.6159 -14.3480
   -14.3130 -14.2137 -14.0955 -14.0369 -13.8429 -13.7936 -13.6596 -13.5270
   -13.4429 -13.0444 -13.0104 -12.7808 -12.6767 -12.5531 -12.5285 -12.4739
   -12.3830 -11.9937 -11.9935 -11.8891 -11.8014 -11.7081 -11.5135 -11.2638
   -11.2063 -11.1814 -11.0833 -11.0516 -10.9025 -10.8721 -10.7110 -10.5780
   -10.5754 -10.3528 -10.2800 -10.2619 -10.1072  -9.9571  -9.9210  -9.7778
    -9.7747  -9.6544  -9.5298  -9.4690  -9.4661  -9.3137  -9.3028  -9.2750
    -9.1891  -9.1890  -9.0921  -9.0844  -9.0801  -8.9018  -8.8351  -8.7962
    -8.7300  -8.7076  -8.7022  -8.6795  -8.5978  -8.5568  -8.5509  -8.5271
    -8.4680  -8.4550  -8.3029  -8.2786  -8.2237  -8.2059  -8.1322  -8.0774
    -8.0575  -8.0437  -7.9475  -7.8969  -7.8632  -7.7392  -7.6926  -7.5965
    -7.5559  -7.5414  -7.5345  -7.4557  -7.4299  -7.3996  -7.3374  -7.1725
    -7.1267  -7.1034  -7.0252  -6.9566  -6.8731  -6.8158  -6.7674  -6.6961
    -6.6231  -6.6095  -6.4650  -6.4090  -6.3455  -6.3376  -6.2688  -6.2476
    -5.9925  -5.9279  -5.8968  -5.8966  -5.8637  -5.7371  -5.6443  -5.5090
    -5.4737  -5.2932  -5.2097  -5.1453  -5.1146  -5.0288  -4.8827  -4.7460
    -4.6401  -4.5084  -4.3964  -4.3918  -4.3509  -4.2314  -4.1021  -3.8405
    -3.4402  -3.3666  -2.9944  -2.7488  -1.2175  -1.1393  -0.9714  -0.8793
    -0.5294  -0.4318  -0.2852  -0.1815  -0.0981   0.0958   0.1776   0.2069
     0.3347   0.3787   0.6423   0.8352   0.8376   0.8851   1.0651   1.1219
     1.1359   1.2414   1.2550   1.2741   1.4646   1.5200   1.5559   1.6023
     1.6559   1.7516   1.7605   1.7877   1.7986   1.8992   2.0114   2.0510
     2.0741   2.0759   2.2238   2.2482   2.3248   2.3970   2.4022   2.4468
     2.5096   2.5108   2.5959   2.5991   2.6722   2.6857   2.6961   2.8239
     2.8275   2.8798   2.9055   2.9144   2.9365   2.9885   3.0836   3.1146
     3.1343   3.1356   3.1501   3.2023   3.2553   3.2603   3.2821   3.2978
     3.3160   3.3307   3.3697   3.4187   3.4554   3.5369   3.5561   3.5748
     3.6372   3.6535   3.6782   3.7159   3.7167   3.7445   3.7788   3.8598
     3.8734   3.9291   3.9377   3.9447   3.9985   4.0301   4.0392   4.0518
     4.1201   4.1296   4.1427   4.1664   4.1823   4.2991   4.3646   4.4121
     4.4211   4.4235   4.4286   4.4506   4.4705   4.5445   4.5730   4.5730
     4.5885   4.5954   4.6446   4.6903   4.7307   4.7401   4.7604   4.7610
     4.8250   4.8408   4.8480   4.8646   4.8758   4.8766   4.9208   4.9553
     4.9818   5.0670   5.0684   5.1054   5.1065   5.1317   5.1779   5.1861
     5.1957   5.2518   5.2863   5.2897   5.3159   5.3249   5.3660   5.3862
     5.4048   5.4357   5.4453   5.4631   5.4835   5.5358   5.5644   5.6056
     5.6717   5.6781   5.6882   5.7313   5.7441   5.7481   5.7638   5.8069
     5.8095   5.8275   5.8808   5.9191   5.9310   5.9436   5.9656   5.9881
     5.9956   6.0123   6.0333   6.0586   6.0643   6.0827   6.0886   6.1422
     6.1572   6.1705   6.1971   6.2305   6.2529   6.2672   6.2814   6.2875
     6.3350   6.3822   6.3868   6.3933   6.4062   6.4064   6.4465   6.4605
     6.4813   6.5111   6.5166   6.5466   6.5862   6.5887   6.5938   6.5956
     6.6324   6.6463   6.6701   6.6776   6.7321   6.7335   6.7413   6.7769
     6.7865   6.8261   6.8311   6.8390   6.8552   6.8667   6.9169   6.9178
     6.9305   6.9475   6.9476   7.0131   7.0367   7.0571   7.0687   7.0783
     7.0903   7.1145   7.1172   7.1991   7.2001   7.2265   7.2407   7.2515
     7.2887   7.3099   7.3151   7.3228   7.3644   7.3678   7.3783   7.3886
     7.4011   7.4099   7.4537   7.4807   7.4841   7.4880   7.4988   7.5344
     7.5550   7.5696   7.5931   7.6096   7.6183   7.6357   7.6608   7.6686
     7.6849   7.7424   7.7511   7.7535   7.7606   7.7626   7.7690   7.7899
     7.8068   7.8289   7.8624   7.8928   7.9122   7.9313   7.9489   7.9599
     8.0006   8.0049   8.0297   8.0350   8.0477   8.0785   8.0805   8.0865
     8.1454   8.1561   8.1730   8.1797   8.2082   8.2122   8.2584   8.2644
     8.3315   8.3452   8.3623   8.3778   8.3830   8.3849   8.4022   8.4141
     8.4146   8.4316   8.4734   8.4798   8.4836   8.4978   8.5061   8.5071
     8.5646   8.5781   8.6333   8.6619   8.6703   8.7086   8.7102   8.7228
     8.7325   8.7469   8.7640   8.7684   8.7737   8.7867   8.8012   8.8261
     8.8521   8.8522   8.8836   8.8995

          k = 0.0000 0.0000 0.0074 (136687 PWs)   bands (ev):

   -21.5118 -21.2874 -21.1194 -20.8349 -20.6935 -20.6299 -20.2633 -20.1664
   -20.1506 -19.9039 -19.7646 -19.6988 -19.5899 -19.3322 -19.1197 -18.9736
   -18.8883 -18.6853 -18.5773 -18.3263 -18.3222 -18.1300 -18.0834 -17.8499
   -17.6175 -17.5813 -17.4740 -17.3443 -17.1710 -17.0273 -16.9962 -16.8536
   -16.7391 -16.6543 -16.5479 -16.4703 -16.2960 -16.2449 -15.8593 -15.6769
   -15.6164 -15.3710 -14.9300 -14.9088 -14.7058 -14.6850 -14.6090 -14.3563
   -14.3149 -14.2036 -14.0961 -14.0272 -13.8446 -13.7929 -13.6568 -13.5290
   -13.4511 -13.0442 -13.0202 -12.7902 -12.6912 -12.5502 -12.5329 -12.4532
   -12.3681 -11.9985 -11.9965 -11.8825 -11.8004 -11.7037 -11.5243 -11.2694
   -11.2123 -11.1686 -11.0947 -11.0516 -10.8957 -10.8856 -10.7017 -10.5804
   -10.5535 -10.3558 -10.2861 -10.2648 -10.0971  -9.9646  -9.9207  -9.7744
    -9.7727  -9.6707  -9.5281  -9.4700  -9.4496  -9.3098  -9.2966  -9.2821
    -9.1976  -9.1857  -9.0906  -9.0822  -9.0730  -8.9031  -8.8405  -8.7992
    -8.7320  -8.7087  -8.7033  -8.6814  -8.5949  -8.5736  -8.5543  -8.5230
    -8.4715  -8.4575  -8.3031  -8.2771  -8.2220  -8.2083  -8.1385  -8.0678
    -8.0641  -8.0362  -7.9555  -7.8859  -7.8574  -7.7307  -7.7026  -7.5958
    -7.5589  -7.5367  -7.5310  -7.4428  -7.4294  -7.4020  -7.3397  -7.1802
    -7.1260  -7.0978  -7.0284  -6.9627  -6.8692  -6.8115  -6.7672  -6.6968
    -6.6194  -6.6042  -6.4734  -6.4135  -6.3478  -6.3416  -6.2632  -6.2456
    -5.9929  -5.9319  -5.9111  -5.8910  -5.8562  -5.7216  -5.6598  -5.5115
    -5.4792  -5.2956  -5.2090  -5.1470  -5.1088  -5.0204  -4.8837  -4.7487
    -4.6372  -4.5103  -4.3939  -4.3911  -4.3469  -4.2334  -4.0997  -3.8421
    -3.4378  -3.3621  -2.9980  -2.7628  -1.2100  -1.1387  -0.9675  -0.8766
    -0.5278  -0.4322  -0.2854  -0.1886  -0.0901   0.0924   0.1739   0.2093
     0.3323   0.3851   0.6338   0.8365   0.8393   0.8862   1.0686   1.1187
     1.1369   1.2180   1.2474   1.2708   1.4661   1.5153   1.5571   1.5920
     1.6539   1.7503   1.7813   1.8039   1.8120   1.9032   2.0095   2.0577
     2.0746   2.0754   2.2270   2.2521   2.3239   2.3925   2.4069   2.4494
     2.5070   2.5185   2.5918   2.5973   2.6646   2.6863   2.6942   2.8317
     2.8377   2.8664   2.8954   2.9011   2.9220   2.9952   3.0913   3.1190
     3.1308   3.1379   3.1504   3.1873   3.2233   3.2637   3.2850   3.2946
     3.3215   3.3334   3.3665   3.4339   3.4773   3.5342   3.5483   3.5584
     3.6341   3.6511   3.6942   3.6981   3.7191   3.7494   3.8000   3.8566
     3.8868   3.9372   3.9515   3.9612   4.0146   4.0388   4.0436   4.0621
     4.0998   4.1318   4.1321   4.1625   4.1889   4.3064   4.3461   4.3907
     4.4045   4.4144   4.4149   4.4391   4.4710   4.5366   4.5486   4.5793
     4.5939   4.5985   4.6449   4.7077   4.7091   4.7269   4.7594   4.7744
     4.8272   4.8344   4.8525   4.8669   4.8778   4.9107   4.9375   4.9631
     5.0131   5.0538   5.0540   5.0889   5.1054   5.1586   5.1793   5.1944
     5.2214   5.2462   5.2585   5.2774   5.3276   5.3376   5.3553   5.4017
     5.4042   5.4340   5.4442   5.4591   5.4805   5.5636   5.5642   5.6036
     5.6657   5.6828   5.7015   5.7232   5.7412   5.7520   5.7544   5.7968
     5.7988   5.8256   5.8864   5.9100   5.9136   5.9432   5.9500   5.9581
     5.9914   5.9959   6.0288   6.0506   6.0560   6.0828   6.0914   6.1458
     6.1525   6.1623   6.1914   6.2278   6.2503   6.2727   6.2806   6.3006
     6.3582   6.3748   6.3866   6.4091   6.4211   6.4246   6.4375   6.4768
     6.5020   6.5130   6.5349   6.5549   6.5860   6.5876   6.5943   6.6033
     6.6358   6.6608   6.6637   6.6815   6.7198   6.7273   6.7482   6.7816
     6.7862   6.8075   6.8194   6.8249   6.8634   6.8688   6.8909   6.9018
     6.9030   6.9481   6.9570   7.0207   7.0348   7.0358   7.0602   7.0827
     7.0936   7.1136   7.1334   7.2031   7.2120   7.2217   7.2320   7.2595
     7.3057   7.3097   7.3146   7.3237   7.3568   7.3715   7.3748   7.3910
     7.4106   7.4124   7.4338   7.4598   7.4664   7.4731   7.4872   7.5412
     7.5516   7.5580   7.5905   7.6035   7.6066   7.6458   7.6624   7.6798
     7.6860   7.7344   7.7429   7.7572   7.7605   7.7784   7.7806   7.7909
     7.8050   7.8341   7.8551   7.8846   7.9243   7.9336   7.9465   7.9522
     8.0040   8.0111   8.0457   8.0576   8.0748   8.0901   8.0917   8.0936
     8.1628   8.1795   8.1819   8.1917   8.2151   8.2158   8.2706   8.2835
     8.3111   8.3194   8.3369   8.3715   8.3835   8.3910   8.3910   8.4186
     8.4187   8.4452   8.4684   8.4766   8.4782   8.4976   8.5004   8.5227
     8.5614   8.5793   8.6242   8.6574   8.6677   8.6832   8.6880   8.7134
     8.7465   8.7595   8.7610   8.7623   8.7803   8.8090   8.8117   8.8228
     8.8474   8.8663   8.8887   8.8942

          k = 0.0000 0.0000 0.0086 (136685 PWs)   bands (ev):

   -21.5101 -21.2953 -21.1108 -20.8384 -20.6909 -20.6274 -20.2692 -20.1600
   -20.1597 -19.9108 -19.7590 -19.6880 -19.5922 -19.3343 -19.1160 -18.9781
   -18.8806 -18.6902 -18.5725 -18.3273 -18.3260 -18.1245 -18.1039 -17.8537
   -17.6159 -17.5711 -17.4669 -17.3424 -17.1737 -17.0205 -17.0030 -16.8481
   -16.7429 -16.6470 -16.5487 -16.4705 -16.2983 -16.2451 -15.8633 -15.6787
   -15.6138 -15.4030 -14.9259 -14.8811 -14.7080 -14.6891 -14.6017 -14.3647
   -14.3160 -14.1931 -14.0960 -14.0174 -13.8465 -13.7920 -13.6535 -13.5313
   -13.4608 -13.0443 -13.0316 -12.8003 -12.7037 -12.5578 -12.5254 -12.4332
   -12.3533 -12.0040 -11.9995 -11.8757 -11.7988 -11.6988 -11.5352 -11.2766
   -11.2177 -11.1578 -11.1041 -11.0526 -10.8990 -10.8879 -10.6912 -10.5832
   -10.5323 -10.3581 -10.2928 -10.2675 -10.0860  -9.9748  -9.9198  -9.7728
    -9.7665  -9.6862  -9.5261  -9.4710  -9.4352  -9.3046  -9.2897  -9.2892
    -9.2071  -9.1818  -9.0893  -9.0797  -9.0653  -8.9047  -8.8464  -8.8027
    -8.7339  -8.7103  -8.7095  -8.6788  -8.5996  -8.5916  -8.5514  -8.5187
    -8.4759  -8.4584  -8.3031  -8.2752  -8.2203  -8.2094  -8.1448  -8.0705
    -8.0603  -8.0284  -7.9648  -7.8743  -7.8504  -7.7221  -7.7128  -7.5936
    -7.5623  -7.5315  -7.5273  -7.4292  -7.4288  -7.4047  -7.3424  -7.1880
    -7.1252  -7.0926  -7.0321  -6.9694  -6.8649  -6.8065  -6.7669  -6.6974
    -6.6152  -6.5984  -6.4825  -6.4187  -6.3509  -6.3462  -6.2570  -6.2434
    -5.9934  -5.9356  -5.9253  -5.8844  -5.8483  -5.7063  -5.6772  -5.5144
    -5.4855  -5.2985  -5.2082  -5.1487  -5.1025  -5.0113  -4.8850  -4.7519
    -4.6340  -4.5124  -4.3912  -4.3903  -4.3425  -4.2356  -4.0968  -3.8440
    -3.4348  -3.3569  -3.0023  -2.7789  -1.2018  -1.1379  -0.9628  -0.8734
    -0.5261  -0.4327  -0.2857  -0.1957  -0.0819   0.0887   0.1696   0.2122
     0.3294   0.3925   0.6238   0.8382   0.8413   0.8875   1.0693   1.1149
     1.1380   1.1968   1.2390   1.2672   1.4678   1.5084   1.5584   1.5811
     1.6551   1.7485   1.8019   1.8198   1.8263   1.9083   2.0080   2.0659
     2.0747   2.0750   2.2308   2.2565   2.3223   2.3884   2.4126   2.4524
     2.5016   2.5279   2.5876   2.5974   2.6561   2.6868   2.6916   2.8400
     2.8487   2.8530   2.8763   2.8965   2.9082   3.0014   3.0985   3.0998
     3.1247   3.1467   3.1591   3.1787   3.1907   3.2678   3.2910   3.2975
     3.3271   3.3353   3.3637   3.4463   3.4996   3.5126   3.5432   3.5548
     3.6186   3.6475   3.6812   3.7204   3.7218   3.7653   3.8209   3.8541
     3.8957   3.9364   3.9736   3.9759   4.0223   4.0481   4.0490   4.0827
     4.0867   4.1195   4.1351   4.1589   4.1934   4.3132   4.3278   4.3587
     4.3796   4.3975   4.4052   4.4295   4.4906   4.5237   4.5325   4.5846
     4.5850   4.6058   4.6576   4.6736   4.7224   4.7297   4.7468   4.7843
     4.8186   4.8406   4.8648   4.8695   4.8851   4.9440   4.9452   4.9801
     5.0101   5.0434   5.0619   5.0849   5.1043   5.1802   5.1820   5.1973
     5.2178   5.2431   5.2636   5.2660   5.3400   5.3455   5.3479   5.3915
     5.4247   5.4340   5.4363   5.4667   5.4779   5.5633   5.5940   5.6043
     5.6577   5.6702   5.6897   5.7163   5.7318   5.7348   5.7788   5.7889
     5.7900   5.8430   5.8894   5.8972   5.9037   5.9284   5.9331   5.9391
     5.9730   5.9843   6.0360   6.0442   6.0528   6.0842   6.0961   6.1359
     6.1502   6.1599   6.1815   6.2289   6.2514   6.2750   6.2793   6.3185
     6.3642   6.3795   6.3815   6.4221   6.4271   6.4373   6.4419   6.4858
     6.5152   6.5227   6.5492   6.5664   6.5782   6.5964   6.6028   6.6125
     6.6418   6.6549   6.6749   6.6853   6.7063   6.7227   6.7593   6.7841
     6.7848   6.7915   6.7968   6.8182   6.8549   6.8673   6.8735   6.8796
     6.8873   6.9504   6.9742   7.0135   7.0298   7.0333   7.0446   7.0924
     7.0988   7.1119   7.1600   7.1790   7.2185   7.2260   7.2308   7.2665
     7.2960   7.3116   7.3236   7.3361   7.3377   7.3578   7.3724   7.4063
     7.4092   7.4093   7.4253   7.4513   7.4557   7.4593   7.4929   7.5253
     7.5467   7.5687   7.5826   7.5829   7.6039   7.6561   7.6611   7.6809
     7.6908   7.7084   7.7432   7.7505   7.7578   7.7861   7.8070   7.8098
     7.8113   7.8418   7.8486   7.8827   7.9402   7.9403   7.9425   7.9439
     8.0017   8.0221   8.0495   8.0582   8.1040   8.1058   8.1124   8.1144
     8.1838   8.1845   8.2027   8.2049   8.2198   8.2258   8.2693   8.2878
     8.2977   8.3091   8.3208   8.3635   8.3692   8.3754   8.3755   8.4258
     8.4276   8.4476   8.4676   8.4715   8.4853   8.4987   8.5318   8.5367
     8.5568   8.5798   8.6216   8.6331   8.6513   8.6539   8.6942   8.7167
     8.7468   8.7555   8.7557   8.7778   8.7874   8.7953   8.8316   8.8366
     8.8547   8.8738   8.8840   8.8841

          k = 0.0000 0.0000 0.0099 (136697 PWs)   bands (ev):

   -21.5081 -21.3034 -21.1019 -20.8423 -20.6879 -20.6248 -20.2751 -20.1702
   -20.1529 -19.9177 -19.7538 -19.6760 -19.5949 -19.3369 -19.1118 -18.9824
   -18.8728 -18.6953 -18.5676 -18.3300 -18.3285 -18.1255 -18.1184 -17.8582
   -17.6142 -17.5619 -17.4582 -17.3401 -17.1767 -17.0129 -17.0105 -16.8417
   -16.7469 -16.6392 -16.5496 -16.4707 -16.3008 -16.2453 -15.8677 -15.6814
   -15.6109 -15.4339 -14.9211 -14.8551 -14.7103 -14.6931 -14.5942 -14.3731
   -14.3157 -14.1825 -14.0952 -14.0074 -13.8487 -13.7910 -13.6500 -13.5335
   -13.4721 -13.0483 -13.0407 -12.8109 -12.7142 -12.5681 -12.5139 -12.4140
   -12.3386 -12.0099 -12.0025 -11.8693 -11.7964 -11.6936 -11.5457 -11.2853
   -11.2223 -11.1535 -11.1075 -11.0548 -10.9115 -10.8790 -10.6799 -10.5864
   -10.5127 -10.3591 -10.3001 -10.2694 -10.0743  -9.9871  -9.9191  -9.7697
    -9.7594  -9.7012  -9.5238  -9.4721  -9.4233  -9.2979  -9.2978  -9.2805
    -9.2175  -9.1773  -9.0882  -9.0770  -9.0572  -8.9069  -8.8528  -8.8066
    -8.7360  -8.7185  -8.7129  -8.6739  -8.6275  -8.5879  -8.5483  -8.5144
    -8.4806  -8.4585  -8.3030  -8.2729  -8.2188  -8.2096  -8.1509  -8.0766
    -8.0547  -8.0204  -7.9751  -7.8623  -7.8424  -7.7230  -7.7140  -7.5894
    -7.5660  -7.5258  -7.5235  -7.4292  -7.4142  -7.4075  -7.3455  -7.1958
    -7.1242  -7.0878  -7.0363  -6.9769  -6.8601  -6.8008  -6.7664  -6.6978
    -6.6107  -6.5921  -6.4922  -6.4245  -6.3545  -6.3511  -6.2504  -6.2411
    -5.9940  -5.9392  -5.9390  -5.8769  -5.8401  -5.6961  -5.6914  -5.5175
    -5.4926  -5.3018  -5.2073  -5.1504  -5.0957  -5.0018  -4.8865  -4.7555
    -4.6303  -4.5146  -4.3893  -4.3882  -4.3378  -4.2381  -4.0932  -3.8462
    -3.4312  -3.3509  -3.0072  -2.7969  -1.1931  -1.1371  -0.9572  -0.8698
    -0.5240  -0.4333  -0.2861  -0.2027  -0.0733   0.0848   0.1648   0.2157
     0.3261   0.4006   0.6125   0.8404   0.8436   0.8890   1.0647   1.1107
     1.1391   1.1811   1.2302   1.2635   1.4697   1.4997   1.5597   1.5700
     1.6592   1.7463   1.8214   1.8349   1.8412   1.9143   2.0071   2.0739
     2.0752   2.0757   2.2349   2.2615   2.3201   2.3849   2.4194   2.4558
     2.4944   2.5376   2.5834   2.5994   2.6468   2.6872   2.6884   2.8396
     2.8452   2.8601   2.8608   2.8921   2.8950   3.0070   3.0779   3.1036
     3.1129   3.1496   3.1586   3.1620   3.1884   3.2729   3.3000   3.3049
     3.3320   3.3355   3.3623   3.4525   3.4934   3.5218   3.5295   3.5552
     3.6092   3.6391   3.6655   3.7248   3.7501   3.7837   3.8406   3.8551
     3.8983   3.9354   3.9890   3.9949   4.0315   4.0475   4.0557   4.0796
     4.1062   4.1158   4.1387   4.1554   4.1966   4.3073   4.3166   4.3302
     4.3541   4.3751   4.3946   4.4252   4.4995   4.5126   4.5309   4.5697
     4.5897   4.6163   4.6404   4.6729   4.7181   4.7265   4.7506   4.7924
     4.8215   4.8406   4.8700   4.8741   4.9021   4.9432   4.9767   4.9800
     5.0019   5.0384   5.0808   5.0971   5.1036   5.1866   5.1892   5.1916
     5.2006   5.2478   5.2532   5.2948   5.3378   5.3519   5.3559   5.3732
     5.4359   5.4401   5.4471   5.4691   5.4770   5.5618   5.6058   5.6271
     5.6454   5.6472   5.6719   5.6870   5.7152   5.7274   5.7849   5.7995
     5.8054   5.8614   5.8817   5.8853   5.8997   5.9055   5.9228   5.9292
     5.9584   5.9644   6.0434   6.0491   6.0499   6.0862   6.0968   6.1157
     6.1550   6.1607   6.1685   6.2324   6.2569   6.2699   6.2870   6.3347
     6.3550   6.3751   6.3983   6.4173   6.4316   6.4493   6.4550   6.4992
     6.5177   6.5390   6.5465   6.5672   6.5822   6.6101   6.6105   6.6210
     6.6403   6.6595   6.6829   6.6947   6.7013   6.7204   6.7517   6.7724
     6.7749   6.7824   6.7984   6.8116   6.8327   6.8576   6.8617   6.8717
     6.8864   6.9538   6.9863   6.9905   7.0338   7.0361   7.0397   7.0993
     7.1041   7.1121   7.1544   7.1908   7.2055   7.2260   7.2376   7.2725
     7.2826   7.2848   7.3296   7.3303   7.3479   7.3566   7.3597   7.4038
     7.4089   7.4125   7.4196   7.4391   7.4668   7.4725   7.4977   7.5094
     7.5413   7.5560   7.5694   7.5856   7.5997   7.6572   7.6642   7.6743
     7.6846   7.6916   7.7301   7.7579   7.7769   7.7772   7.8201   7.8242
     7.8322   7.8462   7.8572   7.8929   7.9336   7.9352   7.9516   7.9609
     7.9946   8.0322   8.0395   8.0719   8.1160   8.1203   8.1370   8.1387
     8.1837   8.1957   8.2107   8.2207   8.2406   8.2435   8.2481   8.2803
     8.2841   8.3073   8.3399   8.3474   8.3570   8.3584   8.3636   8.4247
     8.4252   8.4496   8.4547   8.4682   8.5029   8.5186   8.5318   8.5660
     8.5679   8.5755   8.6195   8.6213   8.6305   8.6444   8.6992   8.7162
     8.7356   8.7503   8.7637   8.7732   8.7867   8.8086   8.8168   8.8613
     8.8648   8.8740   8.8846   8.8958

          k = 0.0000 0.0000 0.0111 (136683 PWs)   bands (ev):

   -21.5058 -21.3118 -21.0927 -20.8466 -20.6845 -20.6220 -20.2809 -20.1811
   -20.1459 -19.9245 -19.7489 -19.6631 -19.5979 -19.3398 -19.1072 -18.9863
   -18.8650 -18.7004 -18.5626 -18.3340 -18.3298 -18.1478 -18.1119 -17.8632
   -17.6122 -17.5540 -17.4480 -17.3372 -17.1802 -17.0186 -17.0045 -16.8343
   -16.7510 -16.6311 -16.5506 -16.4710 -16.3035 -16.2458 -15.8724 -15.6855
   -15.6079 -15.4632 -14.9158 -14.8314 -14.7129 -14.6970 -14.5867 -14.3815
   -14.3133 -14.1718 -14.0938 -13.9974 -13.8511 -13.7897 -13.6462 -13.5356
   -13.4848 -13.0622 -13.0414 -12.8219 -12.7228 -12.5786 -12.5011 -12.3959
   -12.3242 -12.0165 -12.0054 -11.8634 -11.7931 -11.6881 -11.5554 -11.2953
   -11.2261 -11.1583 -11.1025 -11.0582 -10.9225 -10.8693 -10.6684 -10.5900
   -10.4959 -10.3580 -10.3078 -10.2702 -10.0620 -10.0012  -9.9189  -9.7649
    -9.7512  -9.7157  -9.5212  -9.4732  -9.4143  -9.3063  -9.2894  -9.2703
    -9.2287  -9.1723  -9.0874  -9.0744  -9.0487  -8.9095  -8.8593  -8.8109
    -8.7388  -8.7281  -8.7175  -8.6680  -8.6554  -8.5837  -8.5449  -8.5101
    -8.4854  -8.4584  -8.3026  -8.2704  -8.2174  -8.2090  -8.1569  -8.0822
    -8.0510  -8.0123  -7.9863  -7.8502  -7.8337  -7.7331  -7.7071  -7.5829
    -7.5700  -7.5197  -7.5195  -7.4298  -7.4102  -7.3992  -7.3490  -7.2036
    -7.1230  -7.0834  -7.0411  -6.9849  -6.8550  -6.7946  -6.7657  -6.6979
    -6.6058  -6.5854  -6.5024  -6.4310  -6.3587  -6.3563  -6.2433  -6.2385
    -5.9948  -5.9527  -5.9421  -5.8687  -5.8316  -5.7163  -5.6771  -5.5208
    -5.5003  -5.3056  -5.2062  -5.1520  -5.0884  -4.9921  -4.8882  -4.7596
    -4.6264  -4.5170  -4.3882  -4.3851  -4.3327  -4.2408  -4.0890  -3.8487
    -3.4270  -3.3444  -3.0126  -2.8166  -1.1844  -1.1362  -0.9507  -0.8659
    -0.5218  -0.4340  -0.2864  -0.2097  -0.0644   0.0808   0.1596   0.2196
     0.3223   0.4095   0.5998   0.8429   0.8462   0.8906   1.0527   1.1060
     1.1401   1.1733   1.2210   1.2598   1.4715   1.4898   1.5586   1.5610
     1.6653   1.7439   1.8395   1.8490   1.8564   1.9215   2.0073   2.0731
     2.0751   2.0869   2.2393   2.2671   2.3172   2.3820   2.4271   2.4596
     2.4860   2.5475   2.5794   2.6033   2.6369   2.6845   2.6873   2.8263
     2.8319   2.8644   2.8713   2.8827   2.8883   3.0116   3.0543   3.0965
     3.1130   3.1274   3.1351   3.1765   3.2030   3.2791   3.3114   3.3154
     3.3332   3.3353   3.3626   3.4478   3.4811   3.5178   3.5429   3.5485
     3.6077   3.6332   3.6520   3.7281   3.7772   3.7988   3.8581   3.8639
     3.8949   3.9348   4.0015   4.0143   4.0337   4.0450   4.0643   4.0929
     4.0938   4.1430   4.1441   4.1521   4.2003   4.2814   4.3089   4.3133
     4.3282   4.3527   4.3869   4.4268   4.4766   4.5289   4.5309   4.5523
     4.5930   4.6113   4.6320   4.6747   4.7143   4.7162   4.7710   4.8002
     4.8303   4.8337   4.8723   4.8799   4.9224   4.9397   4.9480   5.0005
     5.0237   5.0385   5.0812   5.1033   5.1289   5.1727   5.1849   5.1932
     5.2043   5.2402   5.2596   5.3264   5.3332   5.3473   5.3624   5.3686
     5.4416   5.4457   5.4675   5.4709   5.4796   5.5593   5.6106   5.6129
     5.6334   5.6516   5.6534   5.6581   5.6950   5.7263   5.7836   5.8148
     5.8184   5.8650   5.8713   5.8815   5.8826   5.9090   5.9183   5.9251
     5.9434   5.9472   6.0449   6.0449   6.0668   6.0802   6.0878   6.1066
     6.1522   6.1619   6.1635   6.2372   6.2657   6.2668   6.2958   6.3482
     6.3483   6.3696   6.4065   6.4137   6.4374   6.4581   6.4639   6.5150
     6.5202   6.5389   6.5507   6.5548   6.5986   6.6137   6.6145   6.6271
     6.6316   6.6686   6.6871   6.7078   6.7124   6.7192   6.7337   6.7472
     6.7492   6.7814   6.8036   6.8229   6.8318   6.8433   6.8526   6.8584
     6.8993   6.9573   6.9668   6.9895   7.0292   7.0423   7.0495   7.1053
     7.1084   7.1148   7.1295   7.1929   7.2058   7.2256   7.2426   7.2447
     7.2697   7.2837   7.3261   7.3314   7.3317   7.3534   7.3692   7.4039
     7.4076   7.4156   7.4183   7.4463   7.4769   7.4894   7.4939   7.5022
     7.5250   7.5507   7.5527   7.5942   7.6021   7.6507   7.6525   7.6641
     7.6723   7.7072   7.7137   7.7651   7.7708   7.8042   7.8066   7.8344
     7.8556   7.8561   7.8774   7.9152   7.9232   7.9334   7.9579   7.9747
     7.9904   8.0345   8.0391   8.0859   8.1230   8.1388   8.1512   8.1552
     8.1792   8.1810   8.2198   8.2311   8.2411   8.2510   8.2552   8.2821
     8.2860   8.3252   8.3352   8.3377   8.3420   8.3564   8.3650   8.4198
     8.4202   8.4433   8.4621   8.4665   8.4875   8.5056   8.5629   8.5695
     8.5889   8.5936   8.6040   8.6242   8.6359   8.6484   8.6971   8.7100
     8.7258   8.7485   8.7609   8.7700   8.7828   8.8063   8.8415   8.8488
     8.8556   8.8857   8.8906   8.9079

          k = 0.0000 0.0000 0.0124 (136673 PWs)   bands (ev):

   -21.5033 -21.3202 -21.0834 -20.8512 -20.6807 -20.6191 -20.2866 -20.1925
   -20.1389 -19.9312 -19.7441 -19.6495 -19.6012 -19.3432 -19.1022 -18.9898
   -18.8572 -18.7055 -18.5577 -18.3379 -18.3313 -18.1707 -18.1051 -17.8688
   -17.6100 -17.5478 -17.4364 -17.3337 -17.1839 -17.0274 -16.9954 -16.8259
   -16.7554 -16.6227 -16.5518 -16.4714 -16.3064 -16.2465 -15.8772 -15.6913
   -15.6049 -15.4899 -14.9099 -14.8102 -14.7156 -14.7007 -14.5794 -14.3898
   -14.3084 -14.1613 -14.0920 -13.9876 -13.8539 -13.7883 -13.6423 -13.5374
   -13.4990 -13.0788 -13.0407 -12.8332 -12.7296 -12.5889 -12.4875 -12.3788
   -12.3102 -12.0238 -12.0080 -11.8584 -11.7885 -11.6826 -11.5641 -11.3064
   -11.2290 -11.1684 -11.0937 -11.0627 -10.9310 -10.8590 -10.6569 -10.5940
   -10.4831 -10.3546 -10.3159 -10.2690 -10.0495 -10.0168  -9.9193  -9.7586
    -9.7420  -9.7296  -9.5184  -9.4742  -9.4083  -9.3150  -9.2796  -9.2586
    -9.2406  -9.1668  -9.0868  -9.0720  -9.0400  -8.9128  -8.8660  -8.8155
    -8.7453  -8.7346  -8.7274  -8.6793  -8.6616  -8.5791  -8.5414  -8.5059
    -8.4903  -8.4581  -8.3020  -8.2676  -8.2163  -8.2079  -8.1627  -8.0871
    -8.0490  -8.0041  -7.9984  -7.8381  -7.8244  -7.7431  -7.7019  -7.5741
    -7.5741  -7.5152  -7.5129  -7.4311  -7.4125  -7.3840  -7.3527  -7.2113
    -7.1217  -7.0794  -7.0464  -6.9935  -6.8495  -6.7879  -6.7647  -6.6978
    -6.6007  -6.5784  -6.5129  -6.4380  -6.3634  -6.3618  -6.2360  -6.2356
    -5.9958  -5.9658  -5.9450  -5.8599  -5.8228  -5.7373  -5.6635  -5.5239
    -5.5087  -5.3098  -5.2051  -5.1537  -5.0807  -4.9822  -4.8901  -4.7640
    -4.6223  -4.5195  -4.3869  -4.3820  -4.3276  -4.2437  -4.0840  -3.8515
    -3.4222  -3.3372  -3.0186  -2.8378  -1.1757  -1.1352  -0.9434  -0.8617
    -0.5193  -0.4348  -0.2868  -0.2164  -0.0552   0.0769   0.1540   0.2239
     0.3180   0.4190   0.5858   0.8455   0.8490   0.8924   1.0341   1.1009
     1.1410   1.1732   1.2116   1.2563   1.4714   1.4811   1.5470   1.5622
     1.6729   1.7411   1.8557   1.8619   1.8719   1.9296   2.0088   2.0723
     2.0747   2.0994   2.2438   2.2733   2.3137   2.3798   2.4357   2.4638
     2.4767   2.5576   2.5757   2.6087   2.6265   2.6799   2.6870   2.8123
     2.8133   2.8715   2.8750   2.8777   2.8895   3.0144   3.0301   3.0860
     3.0976   3.1173   3.1202   3.1899   3.2176   3.2865   3.3251   3.3281
     3.3289   3.3356   3.3637   3.4339   3.4756   3.5089   3.5352   3.5607
     3.6143   3.6315   3.6428   3.7317   3.7860   3.8227   3.8708   3.8804
     3.8871   3.9358   4.0137   4.0195   4.0302   4.0611   4.0756   4.0805
     4.1131   4.1483   4.1490   4.1653   4.2097   4.2525   4.2925   4.3025
     4.3034   4.3317   4.3828   4.4346   4.4551   4.5317   4.5326   4.5340
     4.5722   4.6217   4.6452   4.6533   4.7114   4.7273   4.7886   4.8086
     4.8215   4.8426   4.8743   4.8842   4.9187   4.9363   4.9423   5.0090
     5.0382   5.0481   5.0802   5.1030   5.1589   5.1692   5.1747   5.2003
     5.2088   5.2295   5.2688   5.3293   5.3333   5.3566   5.3682   5.3799
     5.4387   5.4608   5.4631   5.4846   5.4952   5.5555   5.5772   5.6156
     5.6168   5.6183   5.6354   5.6759   5.6857   5.7266   5.7828   5.8131
     5.8289   5.8497   5.8502   5.8801   5.9018   5.9021   5.9068   5.9325
     5.9376   5.9461   6.0401   6.0461   6.0562   6.0848   6.0872   6.1018
     6.1399   6.1669   6.1671   6.2420   6.2623   6.2805   6.3057   6.3453
     6.3573   6.3663   6.3947   6.4248   6.4397   6.4635   6.4697   6.5159
     6.5212   6.5425   6.5435   6.5595   6.6100   6.6110   6.6127   6.6288
     6.6292   6.6648   6.6903   6.7107   6.7132   6.7143   6.7211   6.7375
     6.7396   6.7842   6.7953   6.8396   6.8411   6.8412   6.8441   6.8546
     6.9159   6.9426   6.9608   6.9871   7.0308   7.0446   7.0579   7.1045
     7.1105   7.1120   7.1208   7.1824   7.1839   7.2032   7.2393   7.2447
     7.2570   7.3040   7.3183   7.3207   7.3369   7.3427   7.3843   7.3858
     7.4074   7.4243   7.4266   7.4635   7.4794   7.4852   7.4910   7.5041
     7.5087   7.5379   7.5729   7.5886   7.6171   7.6270   7.6482   7.6488
     7.6814   7.6989   7.7213   7.7557   7.7740   7.7953   7.8389   7.8497
     7.8513   7.8765   7.8896   7.9100   7.9419   7.9444   7.9617   7.9663
     8.0079   8.0369   8.0394   8.0976   8.1260   8.1463   8.1592   8.1650
     8.1693   8.1746   8.2021   8.2276   8.2352   8.2619   8.2652   8.2985
     8.3135   8.3214   8.3307   8.3389   8.3391   8.3692   8.3722   8.4093
     8.4221   8.4347   8.4651   8.4662   8.4719   8.5057   8.5655   8.5670
     8.5743   8.6134   8.6258   8.6373   8.6515   8.6700   8.6900   8.6983
     8.7177   8.7489   8.7532   8.7641   8.7823   8.8140   8.8186   8.8485
     8.8649   8.9033   8.9097   8.9193

          k = 0.0000 0.0000 0.0136 (136684 PWs)   bands (ev):

   -21.5006 -21.3287 -21.0739 -20.8562 -20.6766 -20.6162 -20.2922 -20.2041
   -20.1318 -19.9379 -19.7395 -19.6354 -19.6047 -19.3471 -19.0968 -18.9930
   -18.8494 -18.7104 -18.5527 -18.3418 -18.3330 -18.1937 -18.0979 -17.8748
   -17.6076 -17.5430 -17.4238 -17.3296 -17.1881 -17.0367 -16.9858 -16.8165
   -16.7600 -16.6141 -16.5532 -16.4718 -16.3095 -16.2475 -15.8821 -15.6995
   -15.6020 -15.5135 -14.9035 -14.7920 -14.7184 -14.7042 -14.5725 -14.3980
   -14.3005 -14.1509 -14.0898 -13.9780 -13.8569 -13.7866 -13.6387 -13.5384
   -13.5146 -13.0968 -13.0396 -12.8447 -12.7347 -12.5989 -12.4732 -12.3628
   -12.2968 -12.0320 -12.0100 -11.8545 -11.7828 -11.6771 -11.5713 -11.3183
   -11.2312 -11.1800 -11.0858 -11.0683 -10.9361 -10.8481 -10.6458 -10.5983
   -10.4744 -10.3495 -10.3242 -10.2649 -10.0368 -10.0334  -9.9204  -9.7531
    -9.7407  -9.7316  -9.5152  -9.4751  -9.4048  -9.3239  -9.2689  -9.2530
    -9.2454  -9.1609  -9.0865  -9.0698  -9.0311  -8.9170  -8.8726  -8.8205
    -8.7565  -8.7474  -8.7371  -8.6938  -8.6551  -8.5742  -8.5377  -8.5018
    -8.4952  -8.4578  -8.3012  -8.2646  -8.2155  -8.2065  -8.1681  -8.0913
    -8.0483  -8.0110  -7.9959  -7.8262  -7.8146  -7.7529  -7.6985  -7.5783
    -7.5634  -7.5108  -7.5052  -7.4332  -7.4143  -7.3686  -7.3568  -7.2189
    -7.1202  -7.0759  -7.0522  -7.0025  -6.8436  -6.7807  -6.7633  -6.6975
    -6.5956  -6.5711  -6.5236  -6.4455  -6.3685  -6.3676  -6.2325  -6.2285
    -5.9970  -5.9785  -5.9476  -5.8504  -5.8138  -5.7591  -5.6509  -5.5267
    -5.5175  -5.3145  -5.2039  -5.1553  -5.0727  -4.9725  -4.8923  -4.7689
    -4.6180  -4.5220  -4.3854  -4.3788  -4.3224  -4.2468  -4.0783  -3.8546
    -3.4167  -3.3296  -3.0251  -2.8602  -1.1674  -1.1341  -0.9351  -0.8573
    -0.5166  -0.4358  -0.2871  -0.2230  -0.0456   0.0731   0.1481   0.2287
     0.3132   0.4292   0.5708   0.8476   0.8520   0.8942   1.0118   1.0953
     1.1417   1.1786   1.2022   1.2532   1.4633   1.4799   1.5354   1.5633
     1.6814   1.7382   1.8700   1.8733   1.8874   1.9387   2.0120   2.0716
     2.0739   2.1129   2.2483   2.2797   2.3098   2.3785   2.4452   2.4671
     2.4684   2.5677   2.5726   2.6152   2.6159   2.6748   2.6862   2.7922
     2.8006   2.8615   2.8751   2.8869   2.8994   3.0060   3.0140   3.0695
     3.0786   3.1056   3.1207   3.2019   3.2308   3.2953   3.3237   3.3318
     3.3408   3.3425   3.3641   3.4184   3.4728   3.5036   3.5174   3.5705
     3.6273   3.6331   3.6424   3.7357   3.7805   3.8544   3.8757   3.8766
     3.8979   3.9401   4.0048   4.0305   4.0416   4.0703   4.0771   4.0898
     4.1337   4.1471   4.1547   4.1734   4.2238   4.2301   4.2777   4.2778
     4.2917   4.3131   4.3800   4.4353   4.4478   4.5154   4.5158   4.5330
     4.5585   4.6252   4.6443   4.6589   4.7094   4.7436   4.7985   4.8053
     4.8181   4.8574   4.8772   4.8849   4.8975   4.9349   4.9602   4.9993
     5.0430   5.0672   5.0781   5.1011   5.1639   5.1832   5.1842   5.2004
     5.2153   5.2288   5.2649   5.3218   5.3398   5.3741   5.3846   5.3908
     5.4322   5.4569   5.4799   5.4848   5.5184   5.5477   5.5497   5.5863
     5.5950   5.6192   5.6238   5.6604   5.7049   5.7286   5.7813   5.7983
     5.8251   5.8372   5.8500   5.8733   5.8903   5.8958   5.9225   5.9274
     5.9339   5.9779   6.0264   6.0341   6.0540   6.0836   6.0958   6.1034
     6.1329   6.1691   6.1732   6.2465   6.2599   6.2955   6.3168   6.3475
     6.3571   6.3696   6.3819   6.4307   6.4384   6.4659   6.4734   6.5006
     6.5140   6.5370   6.5592   6.5638   6.6001   6.6124   6.6128   6.6305
     6.6308   6.6531   6.6799   6.6910   6.6936   6.7063   6.7323   6.7396
     6.7628   6.7829   6.8031   6.8290   6.8336   6.8438   6.8539   6.8823
     6.9177   6.9401   6.9653   6.9826   7.0373   7.0394   7.0640   7.0789
     7.1089   7.1190   7.1267   7.1524   7.1635   7.1815   7.2358   7.2431
     7.2442   7.3086   7.3191   7.3281   7.3456   7.3476   7.3600   7.4022
     7.4094   7.4223   7.4231   7.4650   7.4678   7.4807   7.5001   7.5032
     7.5273   7.5331   7.5844   7.5944   7.6045   7.6229   7.6453   7.6518
     7.6879   7.6905   7.7219   7.7551   7.7613   7.8081   7.8445   7.8637
     7.8718   7.8839   7.8932   7.8947   7.9389   7.9585   7.9698   7.9914
     8.0269   8.0304   8.0409   8.1003   8.1227   8.1307   8.1636   8.1675
     8.1756   8.1809   8.1933   8.2108   8.2248   8.2701   8.2818   8.2895
     8.3249   8.3310   8.3393   8.3479   8.3486   8.3787   8.3890   8.4020
     8.4300   8.4315   8.4591   8.4667   8.4732   8.5040   8.5571   8.5642
     8.5817   8.6058   8.6152   8.6695   8.6810   8.6810   8.6851   8.6982
     8.7121   8.7486   8.7519   8.7557   8.7842   8.7985   8.8346   8.8442
     8.8822   8.9150   8.9256   8.9303

          k = 0.0000 0.0000 0.0148 (136730 PWs)   bands (ev):

   -21.4975 -21.3372 -21.0645 -20.8614 -20.6722 -20.6133 -20.2976 -20.2160
   -20.1246 -19.9445 -19.7349 -19.6211 -19.6085 -19.3514 -19.0911 -18.9959
   -18.8417 -18.7153 -18.5479 -18.3454 -18.3349 -18.2167 -18.0905 -17.8812
   -17.6051 -17.5397 -17.4106 -17.3247 -17.1925 -17.0465 -16.9758 -16.8060
   -16.7648 -16.6054 -16.5547 -16.4723 -16.3126 -16.2488 -15.8869 -15.7104
   -15.5991 -15.5333 -14.8966 -14.7769 -14.7212 -14.7075 -14.5664 -14.4060
   -14.2891 -14.1409 -14.0873 -13.9688 -13.8601 -13.7848 -13.6357 -13.5382
   -13.5316 -13.1159 -13.0382 -12.8562 -12.7383 -12.6086 -12.4584 -12.3479
   -12.2842 -12.0411 -12.0114 -11.8517 -11.7760 -11.6717 -11.5770 -11.3307
   -11.2329 -11.1915 -11.0810 -11.0751 -10.9365 -10.8368 -10.6355 -10.6029
   -10.4693 -10.3442 -10.3326 -10.2569 -10.0510 -10.0240  -9.9221  -9.7607
    -9.7371  -9.7200  -9.5117  -9.4759  -9.4034  -9.3328  -9.2661  -9.2577
    -9.2309  -9.1547  -9.0865  -9.0682  -9.0222  -8.9221  -8.8788  -8.8257
    -8.7751  -8.7693  -8.7382  -8.7006  -8.6484  -8.5690  -8.5340  -8.5002
    -8.4979  -8.4574  -8.3002  -8.2614  -8.2152  -8.2048  -8.1732  -8.0946
    -8.0487  -8.0242  -7.9875  -7.8147  -7.8046  -7.7624  -7.6968  -7.5827
    -7.5517  -7.5061  -7.4963  -7.4361  -7.4155  -7.3612  -7.3533  -7.2263
    -7.1187  -7.0729  -7.0585  -7.0121  -6.8374  -6.7733  -6.7616  -6.6969
    -6.5905  -6.5636  -6.5345  -6.4531  -6.3740  -6.3736  -6.2289  -6.2209
    -5.9985  -5.9907  -5.9499  -5.8404  -5.8045  -5.7811  -5.6399  -5.5288
    -5.5268  -5.3196  -5.2026  -5.1570  -5.0644  -4.9628  -4.8947  -4.7740
    -4.6135  -4.5246  -4.3837  -4.3756  -4.3174  -4.2500  -4.0718  -3.8581
    -3.4105  -3.3214  -3.0322  -2.8837  -1.1597  -1.1330  -0.9260  -0.8528
    -0.5138  -0.4369  -0.2875  -0.2294  -0.0355   0.0696   0.1419   0.2340
     0.3079   0.4399   0.5548   0.8486   0.8553   0.8960   0.9887   1.0894
     1.1420   1.1871   1.1929   1.2507   1.4515   1.4823   1.5236   1.5642
     1.6903   1.7352   1.8825   1.8832   1.9026   1.9486   2.0170   2.0712
     2.0726   2.1269   2.2525   2.2856   2.3064   2.3780   2.4553   2.4576
     2.4731   2.5700   2.5777   2.6051   2.6224   2.6690   2.6846   2.7720
     2.7883   2.8528   2.8702   2.8994   2.9103   2.9833   3.0095   3.0436
     3.0759   3.0914   3.1232   3.2121   3.2408   3.3054   3.3183   3.3242
     3.3580   3.3581   3.3625   3.4047   3.4728   3.4972   3.5027   3.5693
     3.6367   3.6446   3.6539   3.7399   3.7701   3.8646   3.8718   3.8853
     3.9121   3.9467   3.9961   4.0476   4.0485   4.0641   4.0901   4.1052
     4.1430   4.1589   4.1627   4.1740   4.1971   4.2525   4.2552   4.2636
     4.2862   4.2976   4.3776   4.4171   4.4650   4.4860   4.4971   4.5347
     4.5539   4.5960   4.6669   4.6750   4.7083   4.7598   4.7867   4.7924
     4.8285   4.8739   4.8815   4.8818   4.8929   4.9355   4.9753   4.9781
     5.0473   5.0747   5.0858   5.0944   5.1571   5.1920   5.2030   5.2035
     5.2294   5.2382   5.2480   5.3258   5.3537   5.3808   5.3986   5.4096
     5.4227   5.4495   5.4695   5.5014   5.5370   5.5372   5.5411   5.5549
     5.5754   5.6075   5.6312   5.6483   5.7095   5.7325   5.7789   5.7824
     5.8093   5.8395   5.8511   5.8573   5.8867   5.8932   5.9155   5.9363
     5.9438   6.0035   6.0136   6.0260   6.0593   6.0797   6.0890   6.1225
     6.1320   6.1694   6.1795   6.2504   6.2583   6.3082   6.3289   6.3517
     6.3570   6.3688   6.3750   6.4297   6.4331   6.4653   6.4751   6.4824
     6.4982   6.5393   6.5589   6.5689   6.5807   6.6124   6.6193   6.6343
     6.6345   6.6382   6.6500   6.6795   6.6903   6.7047   6.7339   6.7427
     6.7819   6.7854   6.8182   6.8248   6.8258   6.8532   6.8679   6.8926
     6.9029   6.9720   6.9749   6.9772   7.0279   7.0467   7.0525   7.0676
     7.1038   7.1075   7.1276   7.1291   7.1392   7.1842   7.2288   7.2312
     7.2389   7.2978   7.3111   7.3369   7.3481   7.3587   7.3735   7.3945
     7.4026   7.4157   7.4221   7.4518   7.4686   7.4948   7.4963   7.5231
     7.5382   7.5461   7.5841   7.5849   7.6013   7.6166   7.6584   7.6658
     7.6870   7.6953   7.7153   7.7339   7.7800   7.8202   7.8364   7.8676
     7.8731   7.8818   7.9033   7.9098   7.9245   7.9566   7.9979   8.0124
     8.0218   8.0401   8.0440   8.0958   8.0965   8.1420   8.1563   8.1615
     8.1816   8.1929   8.1972   8.2031   8.2183   8.2560   8.2751   8.2998
     8.3250   8.3338   8.3563   8.3592   8.3696   8.3857   8.4082   8.4147
     8.4303   8.4350   8.4625   8.4670   8.4751   8.5032   8.5633   8.5647
     8.5851   8.5916   8.6056   8.6521   8.6717   8.6796   8.6938   8.7137
     8.7446   8.7451   8.7619   8.7674   8.7886   8.7964   8.8427   8.8507
     8.8952   8.9027   8.9409   8.9498

          k = 0.0000 0.0000 0.0161 (136742 PWs)   bands (ev):

   -21.4943 -21.3456 -21.0550 -20.8669 -20.6675 -20.6105 -20.3027 -20.2278
   -20.1175 -19.9511 -19.7302 -19.6124 -19.6067 -19.3561 -19.0851 -18.9984
   -18.8341 -18.7199 -18.5431 -18.3487 -18.3370 -18.2394 -18.0829 -17.8880
   -17.6023 -17.5376 -17.3972 -17.3191 -17.1973 -17.0566 -16.9654 -16.7946
   -16.7699 -16.5966 -16.5565 -16.4730 -16.3158 -16.2507 -15.8917 -15.7244
   -15.5963 -15.5489 -14.8892 -14.7648 -14.7240 -14.7105 -14.5609 -14.4140
   -14.2742 -14.1312 -14.0845 -13.9599 -13.8636 -13.7828 -13.6337 -13.5498
   -13.5366 -13.1358 -13.0365 -12.8677 -12.7404 -12.6179 -12.4432 -12.3342
   -12.2725 -12.0512 -12.0119 -11.8501 -11.7684 -11.6668 -11.5807 -11.3435
   -11.2339 -11.2023 -11.0828 -11.0805 -10.9320 -10.8253 -10.6264 -10.6079
   -10.4666 -10.3411 -10.3399 -10.2443 -10.0691 -10.0115  -9.9243  -9.7738
    -9.7264  -9.7072  -9.5079  -9.4763  -9.4037  -9.3418  -9.2795  -9.2463
    -9.2156  -9.1482  -9.0868  -9.0675  -9.0132  -8.9285  -8.8847  -8.8312
    -8.8052  -8.7829  -8.7388  -8.7043  -8.6417  -8.5635  -8.5302  -8.5052
    -8.4941  -8.4571  -8.2989  -8.2582  -8.2154  -8.2030  -8.1778  -8.0972
    -8.0500  -8.0377  -7.9791  -7.8036  -7.7944  -7.7718  -7.6965  -7.5871
    -7.5401  -7.5013  -7.4858  -7.4395  -7.4163  -7.3658  -7.3381  -7.2333
    -7.1171  -7.0705  -7.0653  -7.0220  -6.8309  -6.7656  -6.7595  -6.6962
    -6.5858  -6.5559  -6.5453  -6.4609  -6.3798  -6.3797  -6.2250  -6.2132
    -6.0026  -6.0005  -5.9519  -5.8300  -5.8032  -5.7949  -5.6308  -5.5364
    -5.5295  -5.3252  -5.2012  -5.1586  -5.0559  -4.9534  -4.8974  -4.7795
    -4.6091  -4.5272  -4.3820  -4.3725  -4.3126  -4.2532  -4.0644  -3.8619
    -3.4034  -3.3129  -3.0397  -2.9079  -1.1526  -1.1318  -0.9163  -0.8481
    -0.5108  -0.4382  -0.2878  -0.2355  -0.0250   0.0665   0.1355   0.2396
     0.3020   0.4511   0.5379   0.8473   0.8587   0.8978   0.9675   1.0831
     1.1419   1.1838   1.1977   1.2490   1.4389   1.4855   1.5116   1.5647
     1.6990   1.7323   1.8917   1.8933   1.9172   1.9593   2.0238   2.0708
     2.0713   2.1409   2.2562   2.2879   2.3067   2.3785   2.4488   2.4661
     2.4780   2.5680   2.5877   2.5945   2.6297   2.6626   2.6823   2.7522
     2.7765   2.8457   2.8640   2.9125   2.9186   2.9647   3.0011   3.0204
     3.0776   3.0777   3.1248   3.2200   3.2447   3.3136   3.3156   3.3169
     3.3584   3.3740   3.3769   3.3936   3.4760   3.4763   3.5064   3.5611
     3.6415   3.6643   3.6733   3.7446   3.7572   3.8519   3.8608   3.9022
     3.9315   3.9511   3.9933   4.0513   4.0641   4.0643   4.0970   4.1195
     4.1460   4.1713   4.1725   4.1733   4.1811   4.2377   4.2494   4.2600
     4.2863   4.3019   4.3755   4.4006   4.4539   4.4791   4.4844   4.5367
     4.5505   4.5668   4.6796   4.7002   4.7075   4.7670   4.7707   4.7751
     4.8390   4.8748   4.8894   4.8895   4.9044   4.9364   4.9540   4.9869
     5.0518   5.0698   5.0808   5.1024   5.1559   5.1830   5.2140   5.2171
[...]
    -6.6203  -6.5988  -6.4850  -6.4780  -6.4402  -6.4398  -6.1553  -6.1425
    -6.0928  -6.0702  -5.9581  -5.9425  -5.7261  -5.7007  -5.6606  -5.6334
    -5.4577  -5.3947  -5.1862  -5.1749  -4.9789  -4.9367  -4.8798  -4.8373
    -4.5719  -4.5522  -4.3628  -4.3561  -4.2870  -4.2787  -3.9734  -3.9155
    -3.2992  -3.2418  -3.1180  -3.1152  -1.1218  -1.1215  -0.8330  -0.8179
    -0.4794  -0.4590  -0.2863  -0.2754   0.0535   0.0789   0.1103   0.2096
     0.3077   0.3798   0.5756   0.6864   0.8927   0.9057   0.9658   1.0151
     1.1252   1.1268   1.2780   1.3175   1.3316   1.3988   1.5237   1.5499
     1.7245   1.7338   1.9505   1.9660   1.9714   2.0246   2.0690   2.0983
     2.1348   2.1920   2.2253   2.2346   2.4181   2.4260   2.4514   2.4673
     2.5351   2.5654   2.5729   2.5778   2.6198   2.6205   2.6518   2.6702
     2.7044   2.7353   2.8500   2.8846   2.8972   2.9502   2.9718   3.0431
     3.0523   3.0799   3.1385   3.1641   3.1792   3.2351   3.2440   3.2732
     3.3670   3.4197   3.4845   3.4945   3.5419   3.5787   3.5965   3.6028
     3.6045   3.6958   3.7041   3.7120   3.7729   3.7892   3.7936   3.8484
     3.9064   3.9455   3.9808   4.0096   4.0476   4.0745   4.1129   4.1191
     4.1352   4.1418   4.2219   4.2288   4.2570   4.2819   4.3204   4.3225
     4.3433   4.3645   4.3847   4.4028   4.4310   4.4632   4.4772   4.5133
     4.5312   4.5780   4.5813   4.6409   4.6823   4.6993   4.7360   4.8053
     4.8234   4.8721   4.8930   4.9029   4.9062   4.9218   4.9570   4.9729
     5.0908   5.0924   5.1103   5.1150   5.1258   5.1778   5.1958   5.2608
     5.2697   5.2866   5.2880   5.3270   5.3447   5.3470   5.3573   5.3934
     5.4014   5.4106   5.4216   5.4267   5.5292   5.5668   5.5715   5.5800
     5.5902   5.6284   5.6347   5.6863   5.6975   5.7370   5.7512   5.7612
     5.8092   5.8126   5.8630   5.8709   5.9015   5.9223   5.9334   5.9625
     5.9906   6.0392   6.0722   6.0810   6.0961   6.1132   6.1293   6.1419
     6.1491   6.1820   6.1938   6.2331   6.2519   6.2692   6.2920   6.2985
     6.3068   6.3504   6.3616   6.3680   6.3836   6.3892   6.3982   6.4494
     6.4695   6.4743   6.5155   6.5287   6.5739   6.5851   6.5883   6.6057
     6.6421   6.6598   6.6602   6.6669   6.6738   6.6804   6.6895   6.7179
     6.7533   6.7607   6.7862   6.7909   6.8047   6.8690   6.8785   6.9050
     6.9088   6.9242   6.9357   6.9417   6.9823   6.9847   7.0400   7.0506
     7.0971   7.1379   7.1475   7.1528   7.1747   7.1785   7.2273   7.2418
     7.2552   7.2704   7.2972   7.3211   7.3641   7.3842   7.3920   7.3956
     7.4288   7.4322   7.4715   7.4825   7.4992   7.5240   7.5284   7.5375
     7.5744   7.6028   7.6086   7.6188   7.6226   7.6570   7.6615   7.6628
     7.7063   7.7221   7.7540   7.7774   7.7791   7.7875   7.7967   7.8223
     7.8291   7.8455   7.8570   7.8834   7.9479   7.9571   7.9802   8.0107
     8.0131   8.0287   8.0613   8.0613   8.1228   8.1709   8.1935   8.1986
     8.2183   8.2322   8.2334   8.2619   8.2717   8.3058   8.3256   8.3471
     8.3652   8.3685   8.3871   8.3887   8.4091   8.4215   8.4253   8.4413
     8.4609   8.4923   8.5064   8.5110   8.5676   8.5702   8.5981   8.6041
     8.6182   8.6193   8.6292   8.6645   8.6707   8.6776   8.7306   8.7504
     8.7614   8.7642   8.7650   8.7701   8.8063   8.8294   8.8459   8.8489
     8.8580   8.8840   8.8927   8.9107

          k = 0.0000 0.0000 0.0284 (136710 PWs)   bands (ev):

   -21.4476 -21.4223 -20.9652 -20.9335 -20.6158 -20.6028 -20.3296 -20.3187
   -20.0459 -20.0180 -19.6808 -19.6600 -19.4735 -19.4306 -19.0294 -19.0169
   -18.7716 -18.7562 -18.4844 -18.4393 -18.3580 -18.3510 -18.0008 -17.9670
   -17.5680 -17.5536 -17.2908 -17.2599 -17.2199 -17.1711 -16.8666 -16.8340
   -16.6485 -16.6030 -16.5149 -16.4931 -16.3230 -16.3011 -15.9123 -15.8886
   -15.5818 -15.5813 -14.7971 -14.7595 -14.7446 -14.7441 -14.5138 -14.4878
   -14.0704 -14.0704 -14.0033 -13.9253 -13.8825 -13.8269 -13.6955 -13.6758
   -13.4207 -13.3450 -12.9973 -12.9685 -12.7164 -12.6939 -12.2754 -12.2497
   -12.2294 -12.1986 -11.9484 -11.9033 -11.6847 -11.6603 -11.5175 -11.4698
   -11.2264 -11.2085 -11.1900 -11.1735 -10.7802 -10.7423 -10.6574 -10.6366
   -10.4310 -10.4129 -10.3012 -10.2485 -10.0440  -9.9820  -9.9188  -9.8931
    -9.5903  -9.5689  -9.4548  -9.4280  -9.4263  -9.4225  -9.3920  -9.2928
    -9.1163  -9.1016  -9.0902  -9.0388  -9.0059  -8.9403  -8.9360  -8.9276
    -8.9236  -8.8970  -8.7300  -8.7231  -8.5794  -8.5574  -8.5134  -8.5071
    -8.4663  -8.4602  -8.2737  -8.2596  -8.2049  -8.1966  -8.1853  -8.1595
    -8.0899  -8.0793  -7.8942  -7.8599  -7.7335  -7.7216  -7.6859  -7.6487
    -7.4767  -7.4657  -7.4454  -7.4212  -7.4087  -7.3973  -7.2177  -7.2008
    -7.1615  -7.1551  -7.0808  -7.0724  -6.7546  -6.7353  -6.7009  -6.6916
    -6.6214  -6.6056  -6.4773  -6.4726  -6.4474  -6.4467  -6.1427  -6.1345
    -6.1014  -6.0850  -5.9572  -5.9475  -5.7145  -5.6896  -5.6706  -5.6447
    -5.4466  -5.4044  -5.1843  -5.1768  -4.9711  -4.9429  -4.8725  -4.8442
    -4.5683  -4.5552  -4.3609  -4.3563  -4.2858  -4.2804  -3.9627  -3.9240
    -3.2842  -3.2422  -3.1273  -3.1255  -1.1211  -1.1208  -0.8276  -0.8177
    -0.4758  -0.4621  -0.2852  -0.2780   0.0569   0.0737   0.1268   0.1940
     0.3176   0.3653   0.5923   0.6661   0.8958   0.9046   0.9737   1.0068
     1.1237   1.1245   1.2855   1.3213   1.3313   1.3856   1.5284   1.5460
     1.7260   1.7327   1.9548   1.9691   1.9765   2.0161   2.0791   2.0999
     2.1468   2.1862   2.2216   2.2289   2.4256   2.4423   2.4586   2.4589
     2.5296   2.5495   2.5801   2.5837   2.6118   2.6123   2.6603   2.6766
     2.6992   2.7181   2.8561   2.8877   2.8946   2.9396   2.9815   3.0356
     3.0618   3.0749   3.1432   3.1707   3.1768   3.2302   3.2305   3.2571
     3.3765   3.4136   3.5030   3.5108   3.5531   3.5857   3.5890   3.5893
     3.6220   3.6980   3.7015   3.7046   3.7726   3.7805   3.7815   3.8339
     3.9258   3.9613   3.9711   4.0118   4.0506   4.0527   4.1054   4.1126
     4.1213   4.1379   4.2372   4.2430   4.2749   4.2756   4.3211   4.3300
     4.3454   4.3600   4.4041   4.4134   4.4407   4.4520   4.4648   4.5121
     4.5147   4.6063   4.6095   4.6129   4.6741   4.7025   4.7554   4.7791
     4.7907   4.8587   4.8950   4.9061   4.9086   4.9311   4.9595   4.9739
     5.0790   5.0817   5.1082   5.1348   5.1446   5.1628   5.2212   5.2636
     5.2767   5.2875   5.2970   5.3193   5.3355   5.3448   5.3577   5.3834
     5.3931   5.4014   5.4133   5.4144   5.5264   5.5579   5.5647   5.5721
     5.6028   5.6264   5.6559   5.6850   5.7265   5.7315   5.7494   5.7742
     5.8238   5.8369   5.8578   5.8780   5.9050   5.9094   5.9222   5.9664
     6.0140   6.0232   6.0633   6.0761   6.0774   6.1219   6.1268   6.1448
     6.1464   6.1777   6.1899   6.2160   6.2571   6.2825   6.2972   6.2999
     6.3077   6.3348   6.3574   6.3592   6.3824   6.3953   6.4137   6.4396
     6.4719   6.4768   6.5243   6.5333   6.5659   6.5856   6.5892   6.5979
     6.6365   6.6551   6.6611   6.6687   6.6779   6.6828   6.6840   6.7278
     6.7499   6.7585   6.7638   6.7819   6.8119   6.8695   6.8810   6.8974
     6.8998   6.9009   6.9352   6.9481   6.9785   6.9925   7.0372   7.0616
     7.0967   7.1287   7.1417   7.1581   7.1705   7.1724   7.2378   7.2622
     7.2651   7.2716   7.2988   7.3232   7.3795   7.3903   7.3947   7.4162
     7.4418   7.4457   7.4571   7.4863   7.5026   7.5154   7.5310   7.5335
     7.5514   7.5954   7.5967   7.6028   7.6154   7.6304   7.6632   7.6743
     7.7030   7.7096   7.7673   7.7816   7.7925   7.7962   7.8010   7.8312
     7.8424   7.8459   7.8516   7.8912   7.9344   7.9624   7.9692   7.9804
     8.0227   8.0387   8.0402   8.0658   8.1461   8.1747   8.1978   8.2116
     8.2139   8.2388   8.2439   8.2742   8.2912   8.3297   8.3357   8.3501
     8.3526   8.3610   8.3714   8.3806   8.4132   8.4210   8.4314   8.4397
     8.4442   8.4694   8.4933   8.5080   8.5543   8.5729   8.5807   8.5939
     8.6034   8.6240   8.6586   8.6844   8.6885   8.6923   8.7355   8.7599
     8.7685   8.7752   8.7778   8.7789   8.7975   8.8291   8.8387   8.8478
     8.8558   8.8797   8.8866   8.9023

          k = 0.0000 0.0000 0.0297 (136706 PWs)   bands (ev):

   -21.4416 -21.4289 -20.9570 -20.9412 -20.6117 -20.6052 -20.3284 -20.3229
   -20.0389 -20.0249 -19.6756 -19.6652 -19.4621 -19.4406 -19.0256 -19.0194
   -18.7673 -18.7596 -18.4748 -18.4523 -18.3567 -18.3531 -17.9923 -17.9754
   -17.5643 -17.5571 -17.2828 -17.2673 -17.2077 -17.1833 -16.8581 -16.8418
   -16.6354 -16.6125 -16.5086 -16.4977 -16.3188 -16.3076 -15.9089 -15.8972
   -15.5815 -15.5812 -14.7873 -14.7684 -14.7450 -14.7447 -14.5077 -14.4946
   -14.0688 -14.0686 -13.9794 -13.9398 -13.8720 -13.8440 -13.6924 -13.6821
   -13.4027 -13.3647 -12.9908 -12.9764 -12.7112 -12.7000 -12.2595 -12.2468
   -12.2300 -12.2145 -11.9370 -11.9143 -11.6775 -11.6653 -11.5058 -11.4818
   -11.2198 -11.2059 -11.1957 -11.1826 -10.7669 -10.7471 -10.6548 -10.6436
   -10.4266 -10.4177 -10.2900 -10.2635 -10.0265  -9.9953  -9.9128  -9.9003
    -9.5805  -9.5691  -9.4480  -9.4337  -9.4275  -9.4227  -9.3744  -9.3217
    -9.1119  -9.1046  -9.0778  -9.0519  -8.9895  -8.9564  -8.9338  -8.9276
    -8.9198  -8.9045  -8.7283  -8.7249  -8.5738  -8.5628  -8.5107  -8.5076
    -8.4645  -8.4615  -8.2702  -8.2631  -8.2023  -8.1981  -8.1806  -8.1676
    -8.0875  -8.0822  -7.8856  -7.8685  -7.7300  -7.7241  -7.6763  -7.6575
    -7.4734  -7.4679  -7.4394  -7.4273  -7.4056  -7.3995  -7.2042  -7.1889
    -7.1757  -7.1660  -7.0788  -7.0745  -6.7479  -6.7380  -6.6976  -6.6929
    -6.6202  -6.6118  -6.4696  -6.4666  -6.4547  -6.4536  -6.1292  -6.1264
    -6.1099  -6.1001  -5.9559  -5.9512  -5.7030  -5.6810  -5.6785  -5.6560
    -5.4356  -5.4145  -5.1824  -5.1787  -4.9635  -4.9494  -4.8653  -4.8512
    -4.5649  -4.5584  -4.3592  -4.3569  -4.2845  -4.2819  -3.9524  -3.9329
    -3.2698  -3.2474  -3.1336  -3.1313  -1.1207  -1.1204  -0.8234  -0.8185
    -0.4723  -0.4654  -0.2839  -0.2803   0.0605   0.0689   0.1437   0.1777
     0.3283   0.3520   0.6097   0.6465   0.8987   0.9031   0.9818   0.9984
     1.1227   1.1231   1.2936   1.3116   1.3451   1.3722   1.5330   1.5419
     1.7277   1.7312   1.9589   1.9662   1.9868   2.0068   2.0877   2.0986
     2.1584   2.1784   2.2202   2.2243   2.4335   2.4503   2.4559   2.4637
     2.5254   2.5354   2.5878   2.5901   2.6040   2.6041   2.6721   2.6827
     2.6939   2.7016   2.8629   2.8788   2.9056   2.9285   2.9932   3.0215
     3.0690   3.0749   3.1489   3.1627   3.1898   3.2166   3.2302   3.2439
     3.3862   3.4052   3.5214   3.5300   3.5525   3.5705   3.5833   3.5883
     3.6472   3.6904   3.6984   3.7000   3.7723   3.7751   3.7836   3.8151
     3.9411   3.9619   3.9826   4.0210   4.0295   4.0470   4.0982   4.0989
     4.1250   4.1336   4.2494   4.2574   4.2682   4.2795   4.3225   4.3244
     4.3628   4.3710   4.3920   4.4252   4.4414   4.4493   4.4620   4.4932
     4.5271   4.5792   4.6296   4.6518   4.6639   4.7097   4.7406   4.7540
     4.7909   4.8370   4.8956   4.9035   4.9193   4.9461   4.9532   4.9822
     5.0619   5.0698   5.1193   5.1470   5.1502   5.1565   5.2468   5.2672
     5.2786   5.2820   5.3051   5.3132   5.3312   5.3363   5.3630   5.3715
     5.3908   5.3975   5.4021   5.4089   5.5279   5.5448   5.5635   5.5672
     5.6129   5.6244   5.6688   5.6820   5.7301   5.7396   5.7615   5.7959
     5.8263   5.8289   5.8593   5.8787   5.9108   5.9131   5.9202   5.9774
     5.9953   6.0074   6.0700   6.0752   6.0758   6.1141   6.1286   6.1398
     6.1565   6.1738   6.1878   6.2004   6.2675   6.2881   6.3014   6.3024
     6.3138   6.3271   6.3443   6.3455   6.3905   6.3983   6.4239   6.4339
     6.4722   6.4794   6.5245   6.5495   6.5504   6.5834   6.5914   6.5924
     6.6389   6.6495   6.6629   6.6690   6.6757   6.6762   6.6997   6.7363
     6.7412   6.7465   6.7607   6.7738   6.8227   6.8546   6.8879   6.8884
     6.8897   6.8965   6.9394   6.9511   6.9782   6.9914   7.0425   7.0627
     7.0979   7.1177   7.1445   7.1612   7.1627   7.1697   7.2497   7.2669
     7.2778   7.2816   7.2937   7.3145   7.3888   7.3916   7.4008   7.4336
     7.4565   7.4587   7.4703   7.4847   7.5032   7.5090   7.5166   7.5204
     7.5444   7.5813   7.5827   7.5868   7.6100   7.6270   7.6681   7.6706
     7.6990   7.6995   7.7843   7.7903   7.8048   7.8067   7.8097   7.8396
     7.8483   7.8497   7.8525   7.8888   7.9191   7.9240   7.9751   7.9855
     8.0155   8.0159   8.0577   8.0651   8.1846   8.1873   8.2017   8.2096
     8.2137   8.2431   8.2510   8.2705   8.3115   8.3278   8.3315   8.3441
     8.3530   8.3543   8.3716   8.3915   8.3967   8.4258   8.4293   8.4374
     8.4463   8.4635   8.4842   8.5119   8.5284   8.5374   8.5869   8.5892
     8.6106   8.6223   8.6846   8.6905   8.6920   8.7249   8.7368   8.7708
     8.7755   8.7811   8.7828   8.7901   8.7963   8.8069   8.8289   8.8586
     8.8601   8.8733   8.8906   8.8945

          k = 0.0000 0.0000-0.0309 (136686 PWs)   bands (ev):

   -21.4354 -21.4354 -20.9490 -20.9490 -20.6082 -20.6082 -20.3262 -20.3262
   -20.0319 -20.0319 -19.6704 -19.6704 -19.4512 -19.4511 -19.0223 -19.0223
   -18.7633 -18.7633 -18.4642 -18.4642 -18.3551 -18.3550 -17.9839 -17.9839
   -17.5606 -17.5606 -17.2750 -17.2750 -17.1955 -17.1955 -16.8498 -16.8498
   -16.6234 -16.6233 -16.5029 -16.5028 -16.3136 -16.3136 -15.9039 -15.9039
   -15.5813 -15.5813 -14.7777 -14.7777 -14.7450 -14.7450 -14.5013 -14.5012
   -14.0682 -14.0682 -13.9579 -13.9578 -13.8593 -13.8592 -13.6878 -13.6877
   -13.3840 -13.3840 -12.9839 -12.9839 -12.7058 -12.7058 -12.2485 -12.2485
   -12.2265 -12.2265 -11.9256 -11.9256 -11.6710 -11.6710 -11.4938 -11.4938
   -11.2122 -11.2122 -11.1907 -11.1907 -10.7556 -10.7556 -10.6499 -10.6499
   -10.4222 -10.4222 -10.2774 -10.2774 -10.0102 -10.0101  -9.9067  -9.9067
    -9.5732  -9.5731  -9.4410  -9.4410  -9.4255  -9.4255  -9.3495  -9.3495
    -9.1080  -9.1080  -9.0649  -9.0649  -8.9729  -8.9729  -8.9309  -8.9309
    -8.9120  -8.9120  -8.7266  -8.7266  -8.5683  -8.5683  -8.5088  -8.5088
    -8.4629  -8.4629  -8.2667  -8.2667  -8.2000  -8.2000  -8.1747  -8.1747
    -8.0849  -8.0849  -7.8771  -7.8771  -7.7269  -7.7269  -7.6668  -7.6667
    -7.4705  -7.4705  -7.4333  -7.4333  -7.4024  -7.4024  -7.1901  -7.1900
    -7.1773  -7.1772  -7.0767  -7.0766  -6.7423  -6.7423  -6.6949  -6.6949
    -6.6169  -6.6168  -6.4621  -6.4621  -6.4602  -6.4602  -6.1182  -6.1182
    -6.1149  -6.1149  -5.9539  -5.9539  -5.6919  -5.6919  -5.6672  -5.6672
    -5.4250  -5.4249  -5.1805  -5.1805  -4.9563  -4.9563  -4.8583  -4.8583
    -4.5616  -4.5615  -4.3579  -4.3579  -4.2833  -4.2833  -3.9424  -3.9424
    -3.2571  -3.2570  -3.1346  -3.1346  -1.1204  -1.1204  -0.8204  -0.8204
    -0.4688  -0.4688  -0.2822  -0.2822   0.0645   0.0645   0.1608   0.1609
     0.3397   0.3397   0.6277   0.6277   0.9011   0.9011   0.9901   0.9901
     1.1225   1.1225   1.3023   1.3023   1.3587   1.3587   1.5375   1.5375
     1.7294   1.7295   1.9627   1.9627   1.9970   1.9970   2.0944   2.0944
     2.1690   2.1691   2.2212   2.2212   2.4418   2.4418   2.4637   2.4637
     2.5265   2.5266   2.5958   2.5958   2.5969   2.5969   2.6861   2.6861
     2.6885   2.6885   2.8705   2.8705   2.9171   2.9171   3.0068   3.0068
     3.0735   3.0735   3.1554   3.1554   3.2030   3.2030   3.2347   3.2347
     3.3959   3.3959   3.5388   3.5388   3.5503   3.5503   3.5864   3.5864
     3.6708   3.6708   3.6984   3.6984   3.7727   3.7727   3.7969   3.7969
     3.9524   3.9524   4.0058   4.0058   4.0348   4.0348   4.0951   4.0952
     4.1292   4.1292   4.2595   4.2595   4.2709   4.2709   4.3237   4.3237
     4.3752   4.3752   4.3980   4.3980   4.4562   4.4562   4.4686   4.4686
     4.5511   4.5511   4.6486   4.6486   4.6925   4.6925   4.7337   4.7337
     4.8133   4.8133   4.8989   4.8989   4.9326   4.9326   4.9736   4.9736
     5.0603   5.0603   5.1323   5.1323   5.1584   5.1584   5.2677   5.2677
     5.2736   5.2736   5.3103   5.3103   5.3318   5.3318   5.3643   5.3643
     5.3941   5.3941   5.4023   5.4023   5.5343   5.5343   5.5644   5.5644
     5.6201   5.6201   5.6769   5.6769   5.7329   5.7329   5.7976   5.7976
     5.8145   5.8145   5.8703   5.8703   5.9103   5.9103   5.9567   5.9567
     5.9919   5.9919   6.0748   6.0748   6.0937   6.0937   6.1344   6.1344
     6.1673   6.1673   6.1901   6.1901   6.2801   6.2801   6.3026   6.3026
     6.3280   6.3280   6.3335   6.3335   6.3967   6.3967   6.4298   6.4298
     6.4758   6.4758   6.5344   6.5344   6.5671   6.5671   6.5939   6.5939
     6.6439   6.6439   6.6659   6.6659   6.6745   6.6745   6.7193   6.7193
     6.7423   6.7423   6.7664   6.7664   6.8373   6.8373   6.8860   6.8860
     6.8927   6.8927   6.9465   6.9465   6.9844   6.9844   7.0534   7.0534
     7.1065   7.1066   7.1520   7.1520   7.1665   7.1665   7.2604   7.2604
     7.2862   7.2862   7.2994   7.2995   7.3911   7.3911   7.4176   7.4176
     7.4751   7.4752   7.4876   7.4876   7.4940   7.4940   7.5085   7.5085
     7.5558   7.5558   7.5806   7.5807   7.6203   7.6203   7.6689   7.6689
     7.6964   7.6965   7.7872   7.7872   7.8118   7.8118   7.8428   7.8428
     7.8435   7.8435   7.8677   7.8677   7.9081   7.9081   7.9936   7.9936
     8.0002   8.0002   8.0648   8.0648   8.1983   8.1983   8.2056   8.2056
     8.2378   8.2378   8.2487   8.2487   8.3243   8.3243   8.3318   8.3318
     8.3517   8.3517   8.3869   8.3869   8.4072   8.4072   8.4343   8.4343
     8.4590   8.4590   8.4938   8.4938   8.5224   8.5224   8.5882   8.5882
     8.6174   8.6174   8.6882   8.6882   8.7176   8.7176   8.7591   8.7591
     8.7812   8.7812   8.7818   8.7818   8.8084   8.8084   8.8365   8.8365
     8.8664   8.8664   8.8910   8.8910

     the Fermi energy is    -2.6333 ev

     Writing output data file V9_m5.save/

     init_run     :     22.33s CPU     23.21s WALL (       1 calls)
     electrons    :  10265.20s CPU  10381.40s WALL (       1 calls)

     Called by init_run:
     wfcinit      :      0.00s CPU      0.00s WALL (       1 calls)
     potinit      :      1.28s CPU      1.42s WALL (       1 calls)
     hinit0       :     17.18s CPU     17.38s WALL (       1 calls)

     Called by electrons:
     c_bands      :  10265.19s CPU  10381.21s WALL (       1 calls)
     v_of_rho     :      0.99s CPU      1.05s WALL (       1 calls)
     newd         :      0.99s CPU      1.33s WALL (       1 calls)

     Called by c_bands:
     init_us_2    :      1.16s CPU      1.48s WALL (      26 calls)
     cegterg      :  10029.96s CPU  10129.30s WALL (      71 calls)

     Called by sum_band:

     Called by *egterg:
     h_psi        :   3294.51s CPU   3341.46s WALL (    1160 calls)
     s_psi        :    442.35s CPU    444.80s WALL (    1160 calls)
     g_psi        :     16.27s CPU     16.35s WALL (    1063 calls)
     cdiaghg      :   3116.56s CPU   3128.07s WALL (    1089 calls)

     Called by h_psi:
     h_psi:pot    :   3274.00s CPU   3314.15s WALL (    1160 calls)
     h_psi:calbec :    418.58s CPU    424.05s WALL (    1160 calls)
     vloc_psi     :   2413.84s CPU   2445.93s WALL (    1160 calls)
     add_vuspsi   :    441.55s CPU    444.15s WALL (    1160 calls)

     General routines
     calbec       :    418.57s CPU    424.04s WALL (    1160 calls)
     fft          :      1.06s CPU      1.15s WALL (      14 calls)
     ffts         :      0.01s CPU      0.01s WALL (       1 calls)
     fftw         :   1898.39s CPU   1923.60s WALL (  546754 calls)
     interpolate  :      0.07s CPU      0.07s WALL (       1 calls)
     davcio       :      0.01s CPU     12.85s WALL (      52 calls)

     Parallel routines
     fft_scatt_xy :    374.17s CPU    377.63s WALL (  546769 calls)
     fft_scatt_yz :    315.17s CPU    323.20s WALL (  546769 calls)

     PWSCF        :     2h51m CPU       51h 2m WALL

      59h

   This run was terminated on:  19:59:47  20Apr2021            

=------------------------------------------------------------------------------=
   JOB DONE.
=------------------------------------------------------------------------------=
