
     Program PWSCF v.6.3 starts on 21Apr2021 at 18:51:34 

     This program is part of the open-source Quantum ESPRESSO suite
     for quantum simulation of materials; please cite
         "P. Giannozzi et al., J. Phys.:Condens. Matter 21 395502 (2009);
         "P. Giannozzi et al., J. Phys.:Condens. Matter 29 465901 (2017);
          URL http://www.quantum-espresso.org", 
     in publications or presentations arising from this work. More details at
     http://www.quantum-espresso.org/quote

     Parallel version (MPI), running on    16 processors
     R & G space division:  proc/nbgrp/npool/nimage =      16
     Waiting for input...
     Reading input from standard input
     Message from routine read_cards :
     DEPRECATED: no units specified in CELL_PARAMETERS card

     Current dimensions of program PWSCF are:
     Max number of different atomic species (ntypx) = 10
     Max number of k-points (npk) =  40000
     Max angular momentum in pseudopotentials (lmaxx) =  3

     Atomic positions and unit cell read from directory:
     /home/zfwang/scratch/GNRDATASET/AGNR/V9_m1/V9_m1.save/


     Subspace diagonalization in iterative solution of the eigenvalue problem:
     a serial algorithm will be used


     Parallelization info
     --------------------
     sticks:   dense  smooth     PW     G-vecs:    dense   smooth      PW
     Min        2497     832    214               370333    71263    9329
     Max        2498     834    216               370336    71265    9333
     Sum       39953   13323   3439              5925355  1140223  149295



     bravais-lattice index     =            0
     lattice parameter (alat)  =       1.8897  a.u.
     unit-cell volume          =   33367.0033 (a.u.)^3
     number of atoms/cell      =          108
     number of atomic types    =            2
     number of electrons       =       360.00
     number of Kohn-Sham states=          500
     kinetic-energy cutoff     =      40.0000  Ry
     charge density cutoff     =     480.0000  Ry
     Exchange-correlation      = PBE ( 1  4  3  4 0 0)

     celldm(1)=  18.897261  celldm(2)=   2.931000  celldm(3)=   1.686960
     celldm(4)=   0.000000  celldm(5)=   0.000000  celldm(6)=   0.000000

     crystal axes: (cart. coord. in units of alat)
               a(1) = (  10.000000   0.000000   0.000000 )  
               a(2) = (   0.000000  29.310000   0.000000 )  
               a(3) = (   0.000000   0.000000  16.869600 )  

     reciprocal axes: (cart. coord. in units 2 pi/alat)
               b(1) = (  0.100000  0.000000  0.000000 )  
               b(2) = (  0.000000  0.034118  0.000000 )  
               b(3) = (  0.000000  0.000000  0.059278 )  


     PseudoPot. # 1 for C  read from file:
     /home/zfwang/hp_home/MySoftware/qe-6.3/pseudo/C.pbe-n-rrkjus_psl.0.1.UPF
     MD5 check sum: fff530ed632a789b3b184014e67dd7f1
     Pseudo is Ultrasoft + core correction, Zval =  4.0
     Generated using "atomic" code by A. Dal Corso v.5.0.2 svn rev. 9415
     Using radial grid of 1073 points,  4 beta functions with: 
                l(1) =   0
                l(2) =   0
                l(3) =   1
                l(4) =   1
     Q(r) pseudized with 0 coefficients 


     PseudoPot. # 2 for H  read from file:
     /home/zfwang/hp_home/MySoftware/qe-6.3/pseudo/H.pbe-rrkjus_psl.0.1.UPF
     MD5 check sum: e164a6907b691c6980f16942be34de84
     Pseudo is Ultrasoft, Zval =  1.0
     Generated using "atomic" code by A. Dal Corso v.5.0.2 svn rev. 9415
     Using radial grid of  929 points,  2 beta functions with: 
                l(1) =   0
                l(2) =   0
     Q(r) pseudized with 0 coefficients 


     atomic species   valence    mass     pseudopotential
        C              4.00    12.01070     C ( 1.00)
        H              1.00     1.00794     H ( 1.00)

     No symmetry found



   Cartesian axes

     site n.     atom                  positions (alat units)
         1           C   tau(   1) = (   5.0000027   5.9933397   2.8546720  )
         2           C   tau(   2) = (   5.0000022   5.9823099  15.4037396  )
         3           C   tau(   3) = (   5.0000008   7.1956649   3.5451367  )
         4           C   tau(   4) = (   5.0000030   7.1750747  16.1397771  )
         5           C   tau(   5) = (   5.0000045   5.9823093   1.4658609  )
         6           C   tau(   6) = (   4.9999996   5.9933388  14.0149283  )
         7           C   tau(   7) = (   5.0000019   8.4210211   2.8613905  )
         8           C   tau(   8) = (   5.0000026   8.4148272  15.4354629  )
         9           C   tau(   9) = (   5.0000014   9.6865018   3.5740509  )
        10           C   tau(  10) = (   5.0000013   9.7495756  11.8885617  )
        11           C   tau(  11) = (   5.0000033   9.6553796  16.1585512  )
        12           C   tau(  12) = (   5.0000037   7.1750750   0.7298233  )
        13           C   tau(  13) = (   4.9999987   7.1956646  13.3244639  )
        14           C   tau(  14) = (   5.0000031   8.4148277   1.4341376  )
        15           C   tau(  15) = (   5.0000010   8.4210204  14.0082094  )
        16           C   tau(  16) = (   5.0000013  10.9044459   2.8520702  )
        17           C   tau(  17) = (   5.0000020  10.9508156  11.2196926  )
        18           C   tau(  18) = (   5.0000034  10.8884252  15.4514415  )
        19           C   tau(  19) = (   5.0000002  12.1505350   3.5507045  )
        20           C   tau(  20) = (   5.0000019  12.1780734  11.9091545  )
        21           C   tau(  21) = (   5.0000025  12.1145048  16.1611011  )
        22           C   tau(  22) = (   5.0000030   9.6553800   0.7110494  )
        23           C   tau(  23) = (   5.0000009   9.7495752   4.9810380  )
        24           C   tau(  24) = (   5.0000017   9.6865014  13.2955504  )
        25           C   tau(  25) = (   5.0000019  10.8884251   1.4181592  )
        26           C   tau(  26) = (   5.0000009  10.9508157   5.6499085  )
        27           C   tau(  27) = (   5.0000033  10.9044457  14.0175300  )
        28           C   tau(  28) = (   4.9999991  13.3862809   2.8277917  )
        29           C   tau(  29) = (   4.9999976  13.5218114   7.0240721  )
        30           C   tau(  30) = (   4.9999995  13.4546757  11.2246378  )
        31           C   tau(  31) = (   5.0000027  13.3580691  15.4505576  )
        32           C   tau(  32) = (   4.9999986  14.6349109   3.5107008  )
        33           C   tau(  33) = (   4.9999969  14.7235572   7.7165973  )
        34           C   tau(  34) = (   5.0000004  14.6751040  11.9454820  )
        35           C   tau(  35) = (   5.0000017  14.5864367  16.1513923  )
        36           C   tau(  36) = (   5.0000015  12.1145051   0.7084991  )
        37           C   tau(  37) = (   5.0000004  12.1780736   4.9604461  )
        38           C   tau(  38) = (   5.0000035  12.1505352  13.3188965  )
        39           C   tau(  39) = (   4.9999997  13.3580681   1.4190439  )
        40           C   tau(  40) = (   4.9999995  13.4546751   5.6449636  )
        41           C   tau(  41) = (   4.9999961  13.5218117   9.8455288  )
        42           C   tau(  42) = (   5.0000036  13.3862805  14.0418078  )
        43           C   tau(  43) = (   4.9999974  15.8553297   2.7898292  )
        44           C   tau(  44) = (   4.9999980  15.9519356   7.0157759  )
        45           C   tau(  45) = (   4.9999983  15.9237306  11.2625849  )
        46           C   tau(  46) = (   5.0000037  15.7881855  15.4588761  )
        47           C   tau(  47) = (   4.9999980  17.1319332   3.4743342  )
        48           C   tau(  48) = (   4.9999979  17.1955030   7.7263058  )
        49           C   tau(  49) = (   4.9999989  17.1594693  11.9855244  )
        50           C   tau(  50) = (   4.9999990  14.5864387   0.7182089  )
        51           C   tau(  51) = (   4.9999994  14.6751036   4.9241184  )
        52           C   tau(  52) = (   4.9999960  14.7235571   9.1530047  )
        53           C   tau(  53) = (   5.0000025  14.6349118  13.3589013  )
        54           C   tau(  54) = (   4.9999963  15.7881840   1.4107270  )
        55           C   tau(  55) = (   4.9999987  15.9237304   5.6070172  )
        56           C   tau(  56) = (   4.9999967  15.9519358   9.8538256  )
        57           C   tau(  57) = (   5.0000028  15.8553291  14.0797697  )
        58           C   tau(  58) = (   4.9999990  18.3591901   2.7848562  )
        59           C   tau(  59) = (   4.9999987  18.4215798   7.0166421  )
        60           C   tau(  60) = (   4.9999982  18.4055564  11.2868911  )
        61           C   tau(  61) = (   5.0000001  19.5604196   3.4537224  )
        62           C   tau(  62) = (   4.9999987  19.6546242   7.7237500  )
        63           C   tau(  63) = (   4.9999990  19.6234989  12.0088793  )
        64           C   tau(  64) = (   4.9999986  17.1594703   4.8840765  )
        65           C   tau(  65) = (   4.9999971  17.1955032   9.1432956  )
        66           C   tau(  66) = (   5.0000010  17.1319328  13.3952685  )
        67           C   tau(  67) = (   4.9999988  18.4055563   5.5827105  )
        68           C   tau(  68) = (   4.9999977  18.4215788   9.8529594  )
        69           C   tau(  69) = (   5.0000011  18.3591896  14.0847437  )
        70           C   tau(  70) = (   4.9999984  20.8951733   7.0006437  )
        71           C   tau(  71) = (   4.9999993  20.8889796  11.2962281  )
        72           C   tau(  72) = (   4.9999985  22.1349261   7.7049689  )
        73           C   tau(  73) = (   5.0000005  22.1143258  11.9799889  )
        74           C   tau(  74) = (   4.9999991  19.6234992   4.8607215  )
        75           C   tau(  75) = (   4.9999983  19.6546245   9.1458516  )
        76           C   tau(  76) = (   4.9999998  19.5604196  13.4158790  )
        77           C   tau(  77) = (   4.9999982  20.8889799   5.5733732  )
        78           C   tau(  78) = (   4.9999988  20.8951726   9.8689575  )
        79           C   tau(  79) = (   4.9999987  23.3276819   6.9689045  )
        80           C   tau(  80) = (   5.0000002  23.3166456  11.2895199  )
        81           C   tau(  81) = (   4.9999971  22.1143255   4.8896123  )
        82           C   tau(  82) = (   4.9999989  22.1349261   9.1646329  )
        83           C   tau(  83) = (   4.9999978  23.3166454   5.5800817  )
        84           C   tau(  84) = (   4.9999992  23.3276818   9.9006966  )
        85           H   tau(  85) = (   5.0000022   5.0530333   3.4057062  )
        86           H   tau(  86) = (   5.0000026   5.0217539  15.9134277  )
        87           H   tau(  87) = (   4.9999983   7.1735598   4.6323757  )
        88           H   tau(  88) = (   5.0000059   5.0217542   0.9561723  )
        89           H   tau(  89) = (   4.9999980   5.0530332  13.4638946  )
        90           H   tau(  90) = (   5.0000001   8.8364438  11.2977592  )
        91           H   tau(  91) = (   4.9999962   7.1735584  12.2372245  )
        92           H   tau(  92) = (   5.0000028  10.9270527  10.1325627  )
        93           H   tau(  93) = (   5.0000007   8.8364440   5.5718414  )
        94           H   tau(  94) = (   5.0000012  10.9270532   6.7370379  )
        95           H   tau(  95) = (   4.9999966  12.5934480   7.5779709  )
        96           H   tau(  96) = (   4.9999941  12.5934482   9.2916302  )
        97           H   tau(  97) = (   5.0000056  16.7165388  16.0127892  )
        98           H   tau(  98) = (   4.9999938  16.7165399   0.8568119  )
        99           H   tau(  99) = (   5.0000000  18.3829525   1.6977182  )
       100           H   tau( 100) = (   5.0000021  20.4735454   2.8629045  )
       101           H   tau( 101) = (   5.0000020  18.3829530  15.1718830  )
       102           H   tau( 102) = (   5.0000011  22.1364370  13.0672296  )
       103           H   tau( 103) = (   4.9999999  20.4735452  14.0066964  )
       104           H   tau( 104) = (   4.9999990  24.2882389   7.4785814  )
       105           H   tau( 105) = (   5.0000004  24.2569618  11.8405423  )
       106           H   tau( 106) = (   4.9999958  22.1364370   3.8023713  )
       107           H   tau( 107) = (   4.9999974  24.2569618   5.0290585  )
       108           H   tau( 108) = (   4.9999985  24.2882388   9.3910195  )

     number of k points=    26  Marzari-Vanderbilt smearing, width (Ry)=  0.0100
                       cart. coord. in units 2pi/alat
        k(    1) = (   0.0000000   0.0000000   0.0000000), wk =   0.0400000
        k(    2) = (   0.0000000   0.0000000   0.0011856), wk =   0.0800000
        k(    3) = (   0.0000000   0.0000000   0.0023711), wk =   0.0800000
        k(    4) = (   0.0000000   0.0000000   0.0035567), wk =   0.0800000
        k(    5) = (   0.0000000   0.0000000   0.0047423), wk =   0.0800000
        k(    6) = (   0.0000000   0.0000000   0.0059278), wk =   0.0800000
        k(    7) = (   0.0000000   0.0000000   0.0071134), wk =   0.0800000
        k(    8) = (   0.0000000   0.0000000   0.0082990), wk =   0.0800000
        k(    9) = (   0.0000000   0.0000000   0.0094845), wk =   0.0800000
        k(   10) = (   0.0000000   0.0000000   0.0106701), wk =   0.0800000
        k(   11) = (   0.0000000   0.0000000   0.0118556), wk =   0.0800000
        k(   12) = (   0.0000000   0.0000000   0.0130412), wk =   0.0800000
        k(   13) = (   0.0000000   0.0000000   0.0142268), wk =   0.0800000
        k(   14) = (   0.0000000   0.0000000   0.0154123), wk =   0.0800000
        k(   15) = (   0.0000000   0.0000000   0.0165979), wk =   0.0800000
        k(   16) = (   0.0000000   0.0000000   0.0177835), wk =   0.0800000
        k(   17) = (   0.0000000   0.0000000   0.0189690), wk =   0.0800000
        k(   18) = (   0.0000000   0.0000000   0.0201546), wk =   0.0800000
        k(   19) = (   0.0000000   0.0000000   0.0213402), wk =   0.0800000
        k(   20) = (   0.0000000   0.0000000   0.0225257), wk =   0.0800000
        k(   21) = (   0.0000000   0.0000000   0.0237113), wk =   0.0800000
        k(   22) = (   0.0000000   0.0000000   0.0248969), wk =   0.0800000
        k(   23) = (   0.0000000   0.0000000   0.0260824), wk =   0.0800000
        k(   24) = (   0.0000000   0.0000000   0.0272680), wk =   0.0800000
        k(   25) = (   0.0000000   0.0000000   0.0284535), wk =   0.0800000
        k(   26) = (   0.0000000   0.0000000  -0.0296391), wk =   0.0400000

     Dense  grid:  5925355 G-vectors     FFT dimensions: ( 135, 400, 225)

     Smooth grid:  1140223 G-vectors     FFT dimensions: (  80, 225, 135)

     Estimated max dynamical RAM per process >       1.26 GB

     Estimated total dynamical RAM >      20.11 GB

     The potential is recalculated from file :
     /home/zfwang/scratch/GNRDATASET/AGNR/V9_m1/V9_m1.save/charge-density.dat


     negative rho (up, down):  2.767E-04 0.000E+00
     Starting wfcs are  360 randomized atomic wfcs +  140 random wfcs

     Band Structure Calculation
     Davidson diagonalization with overlap

     ethr =  2.78E-09,  avg # of iterations = 41.2

     total cpu time spent up to now is    11080.1 secs

     End of band structure calculation

          k = 0.0000 0.0000 0.0000 (142401 PWs)   bands (ev):

   -21.3964 -21.1999 -21.0611 -20.8037 -20.6301 -20.6153 -20.2065 -20.2027
   -20.0857 -19.8407 -19.7797 -19.7217 -19.5630 -19.3388 -19.0926 -18.9232
   -18.9091 -18.5906 -18.5794 -18.3386 -18.3196 -18.1697 -18.0527 -17.8402
   -17.6861 -17.6322 -17.4840 -17.3330 -17.1178 -17.0084 -16.9946 -16.9036
   -16.7665 -16.6370 -16.6294 -16.4792 -16.2522 -16.2404 -15.9400 -15.7275
   -15.5440 -15.4027 -15.1522 -14.9140 -14.7189 -14.6505 -14.6321 -14.4139
   -14.2840 -14.2423 -14.1221 -14.1142 -13.8670 -13.8321 -13.6690 -13.5916
   -13.4160 -13.0740 -13.0713 -12.8039 -12.7208 -12.7174 -12.5338 -12.4880
   -12.4011 -12.0759 -11.9906 -11.8822 -11.8380 -11.7974 -11.4372 -11.4073
   -11.2453 -11.2033 -11.1269 -11.0743 -10.9657 -10.8599 -10.7237 -10.6667
   -10.6344 -10.4140 -10.3991 -10.1960 -10.1384  -9.8970  -9.8906  -9.8247
    -9.7928  -9.7272  -9.6185  -9.4624  -9.4300  -9.4047  -9.3599  -9.2380
    -9.2316  -9.2250  -9.1562  -9.1243  -9.0602  -8.9019  -8.8990  -8.7914
    -8.7663  -8.7491  -8.7232  -8.7138  -8.6793  -8.6355  -8.6152  -8.5802
    -8.5647  -8.5258  -8.4869  -8.4337  -8.3059  -8.2813  -8.2684  -8.1573
    -8.1015  -8.1004  -7.9449  -7.9412  -7.8940  -7.8938  -7.6688  -7.6617
    -7.6399  -7.5814  -7.5742  -7.5240  -7.5191  -7.3465  -7.3445  -7.3181
    -7.2176  -7.2054  -7.0420  -7.0246  -7.0078  -6.8481  -6.8453  -6.7474
    -6.6993  -6.6640  -6.6196  -6.5731  -6.4295  -6.3194  -6.2666  -6.2118
    -6.1548  -6.0246  -5.9572  -5.9527  -5.9212  -5.9165  -5.7397  -5.5700
    -5.5173  -5.4881  -5.2686  -5.2230  -5.1544  -5.1456  -4.8976  -4.7915
    -4.6854  -4.5765  -4.4594  -4.4266  -4.3974  -4.3423  -4.1191  -3.8679
    -3.5480  -3.4709  -3.0051  -2.9915  -1.3426  -1.2911  -1.1082  -0.9400
    -0.5994  -0.5300  -0.3647  -0.2300  -0.2109  -0.0612   0.1242   0.1386
     0.2271   0.2492   0.5799   0.7194   0.7783   0.8227   0.9579   1.0136
     1.0629   1.0681   1.1816   1.2367   1.3478   1.4264   1.4272   1.4690
     1.5828   1.6182   1.6258   1.6755   1.6884   1.8051   1.8930   1.9598
     1.9871   1.9892   2.0992   2.1246   2.2757   2.3119   2.3121   2.3536
     2.3871   2.4156   2.4571   2.4907   2.6230   2.6271   2.6443   2.7267
     2.7637   2.8224   2.8380   2.8424   2.8622   2.8812   2.8991   2.9059
     2.9982   3.0160   3.1003   3.1681   3.1689   3.1700   3.1839   3.1912
     3.2002   3.2365   3.2498   3.2731   3.2776   3.2876   3.3331   3.4982
     3.5540   3.5770   3.5860   3.5919   3.6007   3.6431   3.6562   3.6877
     3.7318   3.7400   3.7436   3.7755   3.8666   3.8870   3.9749   3.9758
     4.0223   4.0290   4.0582   4.0614   4.0912   4.1198   4.2099   4.2688
     4.2872   4.3411   4.3418   4.3429   4.3654   4.4160   4.4442   4.4506
     4.4689   4.4763   4.5010   4.5251   4.5300   4.5534   4.5818   4.6083
     4.6229   4.6385   4.6553   4.7262   4.7364   4.7527   4.7751   4.7859
     4.7921   4.7959   4.8949   4.9441   4.9890   5.0279   5.0358   5.0801
     5.0855   5.0858   5.0974   5.1185   5.1396   5.1770   5.2294   5.2595
     5.2706   5.3032   5.3104   5.3232   5.3444   5.3796   5.4035   5.4525
     5.4916   5.5244   5.5683   5.5870   5.6041   5.6485   5.6552   5.6752
     5.6761   5.6890   5.7590   5.7608   5.7630   5.7809   5.7883   5.8116
     5.8133   5.8150   5.8734   5.8774   5.8890   5.8933   5.8951   5.9055
     5.9272   5.9371   5.9399   5.9484   5.9643   6.0025   6.0163   6.0434
     6.0813   6.1233   6.1311   6.1344   6.1578   6.2054   6.2293   6.2335
     6.2595   6.2775   6.3417   6.3476   6.3531   6.3900   6.3904   6.4324
     6.4414   6.4502   6.4539   6.4741   6.5056   6.5449   6.5965   6.6031
     6.6050   6.6211   6.6399   6.6429   6.6431   6.6588   6.6806   6.7081
     6.7388   6.7590   6.7596   6.7613   6.7905   6.8120   6.8140   6.8307
     6.8481   6.8530   6.8710   6.8848   6.9214   6.9538   7.0013   7.0219
     7.0469   7.0523   7.0574   7.0767   7.0916   7.1079   7.1372   7.1477
     7.1528   7.2098   7.2193   7.2210   7.2517   7.2875   7.2951   7.2965
     7.3034   7.3567   7.3669   7.3929   7.4020   7.4061   7.4144   7.4495
     7.4552   7.4697   7.4748   7.4963   7.4997   7.5240   7.5453   7.5478
     7.5578   7.5835   7.6148   7.6256   7.6491   7.6516   7.6948   7.7236
     7.7388   7.7654   7.7695   7.7786   7.8116   7.8139   7.8288   7.8423
     7.8524   7.8557   7.9019   7.9029   7.9107   7.9482   7.9543   7.9819
     8.0188   8.0231   8.0312   8.0347   8.1662   8.1964   8.2028   8.2174
     8.2209   8.2488   8.2706   8.2752   8.2758   8.2905   8.3259   8.3281
     8.3402   8.3492   8.3551   8.3604   8.3673   8.3770   8.3892   8.4189
     8.4202   8.4470   8.4474   8.4579   8.5267   8.5490   8.5790   8.5999
     8.6259   8.6360   8.6362   8.6648

          k = 0.0000 0.0000 0.0012 (142399 PWs)   bands (ev):

   -21.3963 -21.2005 -21.0605 -20.8040 -20.6298 -20.6152 -20.2114 -20.1977
   -20.0863 -19.8418 -19.7794 -19.7202 -19.5632 -19.3389 -19.0924 -18.9258
   -18.9062 -18.5937 -18.5762 -18.3386 -18.3201 -18.1692 -18.0547 -17.8403
   -17.6846 -17.6321 -17.4837 -17.3329 -17.1180 -17.0081 -16.9951 -16.9033
   -16.7668 -16.6369 -16.6290 -16.4792 -16.2524 -16.2404 -15.9402 -15.7277
   -15.5440 -15.4072 -15.1472 -14.9137 -14.7191 -14.6518 -14.6310 -14.4142
   -14.2847 -14.2417 -14.1238 -14.1113 -13.8670 -13.8323 -13.6691 -13.5916
   -13.4170 -13.0748 -13.0713 -12.8047 -12.7444 -12.6929 -12.5354 -12.4868
   -12.3997 -12.0760 -11.9913 -11.8823 -11.8376 -11.7965 -11.4442 -11.3997
   -11.2455 -11.2038 -11.1283 -11.0753 -10.9639 -10.8616 -10.7240 -10.6636
   -10.6347 -10.4142 -10.3993 -10.1977 -10.1365  -9.9032  -9.8843  -9.8242
    -9.8001  -9.7214  -9.6175  -9.4623  -9.4299  -9.4050  -9.3593  -9.2385
    -9.2314  -9.2251  -9.1561  -9.1248  -9.0596  -8.9051  -8.8958  -8.7917
    -8.7683  -8.7483  -8.7258  -8.7231  -8.6753  -8.6287  -8.6147  -8.5799
    -8.5645  -8.5258  -8.4864  -8.4332  -8.3057  -8.2819  -8.2681  -8.1569
    -8.1085  -8.0933  -7.9453  -7.9419  -7.8933  -7.8932  -7.6689  -7.6634
    -7.6396  -7.5807  -7.5747  -7.5242  -7.5175  -7.3467  -7.3452  -7.3176
    -7.2185  -7.2047  -7.0423  -7.0254  -7.0075  -6.8478  -6.8455  -6.7468
    -6.7000  -6.6630  -6.6199  -6.5736  -6.4293  -6.3201  -6.2663  -6.2124
    -6.1551  -6.0246  -5.9581  -5.9518  -5.9205  -5.9152  -5.7413  -5.5702
    -5.5175  -5.4886  -5.2685  -5.2220  -5.1555  -5.1440  -4.8977  -4.7917
    -4.6853  -4.5766  -4.4592  -4.4264  -4.3973  -4.3424  -4.1189  -3.8683
    -3.5479  -3.4704  -3.0060  -2.9919  -1.3424  -1.2904  -1.1080  -0.9399
    -0.5993  -0.5301  -0.3647  -0.2332  -0.2078  -0.0613   0.1245   0.1383
     0.2267   0.2497   0.5787   0.7197   0.7785   0.8228   0.9582   1.0133
     1.0595   1.0681   1.1807   1.2363   1.3483   1.4276   1.4305   1.4686
     1.5805   1.6101   1.6351   1.6779   1.6883   1.8053   1.8932   1.9590
     1.9872   1.9891   2.1002   2.1250   2.2759   2.3109   2.3117   2.3551
     2.3873   2.4134   2.4590   2.4907   2.6219   2.6271   2.6439   2.7273
     2.7643   2.8179   2.8412   2.8422   2.8539   2.8792   2.9072   2.9074
     3.0005   3.0140   3.0987   3.1577   3.1703   3.1735   3.1778   3.1925
     3.1995   3.2359   3.2502   3.2784   3.2792   3.2909   3.3399   3.4946
     3.5450   3.5770   3.5871   3.5953   3.6023   3.6403   3.6603   3.6819
     3.7362   3.7413   3.7497   3.7771   3.8671   3.8867   3.9697   3.9759
     4.0275   4.0283   4.0557   4.0615   4.0810   4.1309   4.2099   4.2594
     4.2975   4.3368   4.3394   4.3395   4.3647   4.4003   4.4484   4.4594
     4.4656   4.4798   4.5078   4.5239   4.5249   4.5550   4.5839   4.6112
     4.6230   4.6397   4.6626   4.7061   4.7367   4.7502   4.7713   4.7867
     4.7975   4.8172   4.8938   4.9407   4.9870   5.0275   5.0390   5.0502
     5.0867   5.0994   5.1179   5.1190   5.1398   5.1755   5.2144   5.2562
     5.2683   5.3124   5.3186   5.3198   5.3467   5.3848   5.3951   5.4587
     5.4922   5.5232   5.5685   5.5844   5.6007   5.6374   5.6632   5.6714
     5.6770   5.6845   5.7411   5.7559   5.7633   5.7851   5.7897   5.8034
     5.8283   5.8341   5.8621   5.8845   5.8879   5.8887   5.8939   5.9091
     5.9166   5.9244   5.9375   5.9625   5.9687   6.0126   6.0229   6.0414
     6.0830   6.1239   6.1252   6.1326   6.1687   6.2062   6.2171   6.2418
     6.2548   6.2836   6.3357   6.3412   6.3651   6.3846   6.3959   6.4323
     6.4413   6.4503   6.4555   6.4756   6.5039   6.5448   6.5905   6.5949
     6.6092   6.6307   6.6380   6.6413   6.6431   6.6629   6.6798   6.7069
     6.7361   6.7471   6.7632   6.7646   6.7709   6.8101   6.8313   6.8353
     6.8472   6.8580   6.8672   6.8855   6.9182   6.9538   7.0018   7.0221
     7.0405   7.0598   7.0613   7.0733   7.0913   7.1058   7.1370   7.1507
     7.1538   7.2098   7.2171   7.2224   7.2510   7.2847   7.2933   7.2958
     7.2959   7.3540   7.3682   7.3953   7.4015   7.4050   7.4212   7.4488
     7.4571   7.4695   7.4800   7.4992   7.5045   7.5104   7.5281   7.5573
     7.5717   7.5875   7.6113   7.6313   7.6392   7.6490   7.6931   7.7174
     7.7382   7.7700   7.7771   7.7910   7.8123   7.8129   7.8353   7.8451
     7.8519   7.8581   7.8905   7.8993   7.9232   7.9489   7.9540   7.9813
     8.0204   8.0219   8.0221   8.0486   8.1620   8.1890   8.1923   8.2125
     8.2161   8.2472   8.2756   8.2776   8.2800   8.2864   8.3079   8.3268
     8.3412   8.3455   8.3499   8.3627   8.3860   8.3879   8.3890   8.4180
     8.4344   8.4438   8.4469   8.4609   8.5296   8.5443   8.5829   8.5950
     8.5996   8.6326   8.6544   8.6631

          k = 0.0000 0.0000 0.0024 (142415 PWs)   bands (ev):

   -21.3959 -21.2020 -21.0588 -20.8048 -20.6292 -20.6147 -20.2177 -20.1911
   -20.0884 -19.8449 -19.7783 -19.7161 -19.5639 -19.3393 -19.0917 -18.9309
   -18.9005 -18.5996 -18.5705 -18.3388 -18.3214 -18.1675 -18.0606 -17.8407
   -17.6801 -17.6317 -17.4825 -17.3326 -17.1188 -17.0073 -16.9965 -16.9022
   -16.7678 -16.6366 -16.6277 -16.4792 -16.2529 -16.2407 -15.9408 -15.7284
   -15.5439 -15.4196 -15.1331 -14.9128 -14.7198 -14.6549 -14.6282 -14.4152
   -14.2869 -14.2399 -14.1260 -14.1052 -13.8668 -13.8329 -13.6693 -13.5917
   -13.4199 -13.0773 -13.0713 -12.8069 -12.7680 -12.6661 -12.5398 -12.4834
   -12.3955 -12.0761 -11.9934 -11.8828 -11.8363 -11.7939 -11.4573 -11.3850
   -11.2458 -11.2055 -11.1326 -11.0781 -10.9587 -10.8664 -10.7245 -10.6553
   -10.6357 -10.4145 -10.4000 -10.2021 -10.1313  -9.9116  -9.8755  -9.8229
    -9.8166  -9.7094  -9.6144  -9.4619  -9.4297  -9.4059  -9.3576  -9.2402
    -9.2310  -9.2257  -9.1561  -9.1260  -9.0580  -8.9094  -8.8918  -8.7926
    -8.7731  -8.7498  -8.7475  -8.7225  -8.6715  -8.6130  -8.6123  -8.5792
    -8.5639  -8.5258  -8.4848  -8.4317  -8.3053  -8.2837  -8.2672  -8.1557
    -8.1158  -8.0855  -7.9465  -7.9440  -7.8918  -7.8909  -7.6694  -7.6681
    -7.6386  -7.5787  -7.5760  -7.5245  -7.5129  -7.3474  -7.3471  -7.3163
    -7.2206  -7.2031  -7.0431  -7.0278  -7.0067  -6.8469  -6.8458  -6.7450
    -6.7016  -6.6601  -6.6207  -6.5750  -6.4288  -6.3219  -6.2652  -6.2141
    -6.1560  -6.0247  -5.9607  -5.9494  -5.9182  -5.9116  -5.7459  -5.5710
    -5.5183  -5.4900  -5.2682  -5.2188  -5.1576  -5.1402  -4.8981  -4.7924
    -4.6849  -4.5770  -4.4587  -4.4260  -4.3970  -4.3427  -4.1185  -3.8693
    -3.5474  -3.4689  -3.0087  -2.9930  -1.3417  -1.2882  -1.1075  -0.9394
    -0.5990  -0.5302  -0.3648  -0.2398  -0.2015  -0.0615   0.1253   0.1373
     0.2258   0.2510   0.5753   0.7205   0.7789   0.8231   0.9592   1.0127
     1.0500   1.0682   1.1783   1.2351   1.3498   1.4288   1.4424   1.4674
     1.5744   1.6005   1.6482   1.6844   1.6879   1.8059   1.8939   1.9567
     1.9876   1.9888   2.1032   2.1259   2.2766   2.3083   2.3105   2.3593
     2.3879   2.4077   2.4638   2.4907   2.6189   2.6271   2.6426   2.7289
     2.7659   2.8086   2.8376   2.8416   2.8471   2.8736   2.9117   2.9229
     3.0069   3.0081   3.0942   3.1457   3.1533   3.1712   3.1853   3.1903
     3.1981   3.2343   3.2511   3.2840   3.2919   3.3000   3.3577   3.4852
     3.5288   3.5738   3.5767   3.6083   3.6126   3.6334   3.6688   3.6696
     3.7437   3.7485   3.7637   3.7826   3.8687   3.8860   3.9580   3.9763
     4.0260   4.0389   4.0486   4.0618   4.0644   4.1504   4.2098   4.2456
     4.3098   4.3252   4.3328   4.3339   4.3632   4.3753   4.4435   4.4613
     4.4828   4.4870   4.5090   4.5202   4.5263   4.5579   4.5911   4.6202
     4.6232   4.6429   4.6777   4.6811   4.7192   4.7375   4.7882   4.7890
     4.8100   4.8491   4.8900   4.9328   4.9784   5.0237   5.0269   5.0467
     5.0902   5.1050   5.1204   5.1406   5.1535   5.1713   5.1851   5.2475
     5.2622   5.3128   5.3165   5.3494   5.3528   5.3771   5.3971   5.4700
     5.4938   5.5199   5.5691   5.5757   5.5904   5.6241   5.6582   5.6645
     5.6731   5.6819   5.7168   5.7495   5.7619   5.7937   5.7956   5.8005
     5.8438   5.8458   5.8696   5.8697   5.8863   5.8869   5.8942   5.8951
     5.9088   5.9179   5.9399   5.9750   5.9828   6.0336   6.0364   6.0394
     6.0877   6.1166   6.1274   6.1297   6.1884   6.2001   6.2084   6.2477
     6.2484   6.2937   6.3239   6.3398   6.3783   6.3812   6.3986   6.4322
     6.4410   6.4508   6.4604   6.4803   6.4994   6.5444   6.5815   6.5824
     6.6177   6.6288   6.6343   6.6430   6.6514   6.6690   6.6765   6.7079
     6.7269   6.7282   6.7321   6.7780   6.7782   6.8008   6.8322   6.8490
     6.8601   6.8602   6.8668   6.8857   6.9095   6.9540   7.0032   7.0224
     7.0329   7.0637   7.0691   7.0704   7.0922   7.1015   7.1369   7.1552
     7.1580   7.2089   7.2116   7.2242   7.2484   7.2780   7.2814   7.2831
     7.2996   7.3499   7.3681   7.4006   7.4022   7.4043   7.4359   7.4469
     7.4565   7.4747   7.4766   7.4898   7.4972   7.5285   7.5343   7.5556
     7.5818   7.5980   7.6021   7.6132   7.6287   7.6672   7.6857   7.7148
     7.7358   7.7709   7.8023   7.8123   7.8138   7.8158   7.8499   7.8505
     7.8513   7.8656   7.8804   7.8932   7.9384   7.9513   7.9521   7.9788
     8.0146   8.0192   8.0254   8.0688   8.1497   8.1654   8.1688   8.2005
     8.2132   8.2443   8.2656   8.2700   8.2812   8.2910   8.2926   8.3260
     8.3390   8.3400   8.3413   8.3800   8.3885   8.4065   8.4159   8.4248
     8.4352   8.4452   8.4590   8.4698   8.5339   8.5348   8.5667   8.5926
     8.5986   8.6163   8.6311   8.6820

          k = 0.0000 0.0000 0.0036 (142385 PWs)   bands (ev):

   -21.3954 -21.2046 -21.0561 -20.8061 -20.6281 -20.6140 -20.2239 -20.1842
   -20.0917 -19.8497 -19.7766 -19.7096 -19.5649 -19.3399 -19.0907 -18.9365
   -18.8938 -18.6059 -18.5642 -18.3391 -18.3234 -18.1647 -18.0700 -17.8416
   -17.6730 -17.6311 -17.4806 -17.3321 -17.1200 -17.0059 -16.9988 -16.9003
   -16.7693 -16.6362 -16.6254 -16.4792 -16.2539 -16.2411 -15.9417 -15.7296
   -15.5438 -15.4376 -15.1123 -14.9113 -14.7209 -14.6590 -14.6247 -14.4168
   -14.2901 -14.2369 -14.1276 -14.0975 -13.8666 -13.8339 -13.6697 -13.5919
   -13.4246 -13.0818 -13.0713 -12.8105 -12.7896 -12.6390 -12.5463 -12.4783
   -12.3890 -12.0764 -11.9966 -11.8837 -11.8343 -11.7898 -11.4713 -11.3684
   -11.2465 -11.2082 -11.1395 -11.0822 -10.9509 -10.8738 -10.7240 -10.6433
   -10.6372 -10.4152 -10.4009 -10.2083 -10.1238  -9.9202  -9.8671  -9.8358
    -9.8208  -9.6978  -9.6080  -9.4612  -9.4293  -9.4075  -9.3547  -9.2428
    -9.2303  -9.2268  -9.1561  -9.1279  -9.0553  -8.9138  -8.8880  -8.7940
    -8.7794  -8.7771  -8.7482  -8.7207  -8.6699  -8.6105  -8.5932  -8.5779
    -8.5629  -8.5257  -8.4823  -8.4289  -8.3046  -8.2866  -8.2658  -8.1538
    -8.1229  -8.0776  -7.9482  -7.9476  -7.8893  -7.8873  -7.6750  -7.6700
    -7.6371  -7.5781  -7.5758  -7.5252  -7.5055  -7.3499  -7.3485  -7.3143
    -7.2235  -7.2010  -7.0446  -7.0316  -7.0054  -6.8464  -6.8453  -6.7420
    -6.7040  -6.6557  -6.6220  -6.5773  -6.4280  -6.3248  -6.2636  -6.2167
    -6.1575  -6.0247  -5.9643  -5.9455  -5.9145  -5.9064  -5.7534  -5.5722
    -5.5196  -5.4923  -5.2678  -5.2139  -5.1597  -5.1354  -4.8988  -4.7935
    -4.6842  -4.5776  -4.4579  -4.4253  -4.3965  -4.3432  -4.1179  -3.8710
    -3.5467  -3.4665  -3.0132  -2.9950  -1.3406  -1.2846  -1.1067  -0.9387
    -0.5985  -0.5303  -0.3649  -0.2476  -0.1944  -0.0617   0.1266   0.1356
     0.2242   0.2531   0.5698   0.7217   0.7796   0.8235   0.9596   1.0116
     1.0367   1.0684   1.1744   1.2331   1.3521   1.4307   1.4607   1.4652
     1.5655   1.5927   1.6619   1.6872   1.6938   1.8069   1.8950   1.9531
     1.9881   1.9882   2.1079   2.1276   2.2778   2.3048   2.3085   2.3653
     2.3890   2.3999   2.4701   2.4908   2.6139   2.6270   2.6404   2.7317
     2.7686   2.7974   2.8192   2.8406   2.8534   2.8655   2.9179   2.9402
     2.9984   3.0165   3.0869   3.1288   3.1331   3.1726   3.1871   3.1909
     3.1972   3.2315   3.2526   3.2911   3.3098   3.3135   3.3816   3.4725
     3.5114   3.5572   3.5752   3.6162   3.6256   3.6316   3.6531   3.6811
     3.7448   3.7669   3.7806   3.7920   3.8714   3.8846   3.9443   3.9769
     4.0220   4.0375   4.0484   4.0523   4.0623   4.1712   4.2098   4.2321
     4.2945   4.3228   4.3240   4.3369   4.3488   4.3614   4.4386   4.4603
     4.4886   4.4922   4.5082   4.5211   4.5392   4.5591   4.6049   4.6235
     4.6355   4.6462   4.6518   4.6906   4.7059   4.7380   4.7918   4.7929
     4.8355   4.8812   4.8832   4.9243   4.9576   5.0096   5.0267   5.0548
     5.0951   5.1129   5.1226   5.1419   5.1541   5.1657   5.1895   5.2362
     5.2539   5.3059   5.3191   5.3576   5.3612   5.3842   5.4117   5.4799
     5.4969   5.5149   5.5588   5.5690   5.5740   5.6125   5.6397   5.6518
     5.6578   5.6897   5.7082   5.7418   5.7586   5.7988   5.8025   5.8071
     5.8325   5.8458   5.8639   5.8705   5.8751   5.8850   5.8891   5.8951
     5.9058   5.9310   5.9454   5.9783   6.0076   6.0314   6.0567   6.0603
     6.0938   6.1177   6.1204   6.1343   6.1840   6.2100   6.2123   6.2420
     6.2527   6.2970   6.3217   6.3376   6.3799   6.3893   6.3960   6.4320
     6.4401   6.4516   6.4685   6.4858   6.4961   6.5437   6.5696   6.5744
     6.6182   6.6257   6.6320   6.6427   6.6608   6.6623   6.6710   6.6989
     6.7155   6.7181   6.7185   6.7827   6.7905   6.7940   6.8311   6.8534
     6.8564   6.8760   6.8773   6.8848   6.8973   6.9543   7.0054   7.0219
     7.0265   7.0480   7.0734   7.0754   7.0981   7.1058   7.1385   7.1539
     7.1638   7.1960   7.2174   7.2228   7.2429   7.2668   7.2707   7.2712
     7.3094   7.3448   7.3647   7.3990   7.4047   7.4126   7.4306   7.4527
     7.4548   7.4600   7.4857   7.4932   7.5012   7.5447   7.5501   7.5533
     7.5821   7.5898   7.5954   7.6137   7.6168   7.6808   7.6965   7.7191
     7.7321   7.7710   7.8127   7.8245   7.8290   7.8303   7.8484   7.8494
     7.8728   7.8778   7.8833   7.8938   7.9475   7.9516   7.9555   7.9731
     8.0121   8.0144   8.0347   8.0924   8.1314   8.1339   8.1405   8.1843
     8.2108   8.2393   8.2421   8.2493   8.2776   8.2868   8.3032   8.3172
     8.3346   8.3418   8.3441   8.3875   8.3926   8.4221   8.4318   8.4412
     8.4426   8.4463   8.4841   8.4860   8.5238   8.5272   8.5643   8.5856
     8.5963   8.6060   8.6205   8.6873

          k = 0.0000 0.0000 0.0047 (142417 PWs)   bands (ev):

   -21.3946 -21.2080 -21.0525 -20.8079 -20.6266 -20.6131 -20.2300 -20.1773
   -20.0962 -19.8557 -19.7743 -19.7012 -19.5664 -19.3408 -19.0893 -18.9420
   -18.8867 -18.6125 -18.5579 -18.3395 -18.3261 -18.1610 -18.0823 -17.8432
   -17.6637 -17.6302 -17.4778 -17.3313 -17.1217 -17.0039 -17.0021 -16.8977
   -16.7714 -16.6360 -16.6220 -16.4792 -16.2551 -16.2416 -15.9430 -15.7315
   -15.5436 -15.4587 -15.0870 -14.9092 -14.7224 -14.6636 -14.6210 -14.4190
   -14.2942 -14.2328 -14.1284 -14.0886 -13.8662 -13.8354 -13.6703 -13.5920
   -13.4313 -13.0885 -13.0712 -12.8154 -12.8087 -12.6120 -12.5542 -12.4718
   -12.3807 -12.0768 -12.0009 -11.8848 -11.8315 -11.7842 -11.4850 -11.3511
   -11.2473 -11.2119 -11.1487 -11.0873 -10.9411 -10.8833 -10.7221 -10.6392
   -10.6289 -10.4161 -10.4021 -10.2156 -10.1148  -9.9292  -9.8672  -9.8472
    -9.8179  -9.6899  -9.5977  -9.4603  -9.4287  -9.4097  -9.3509  -9.2463
    -9.2292  -9.2285  -9.1563  -9.1304  -9.0517  -8.9181  -8.8847  -8.8054
    -8.7959  -8.7863  -8.7508  -8.7177  -8.6693  -8.6075  -8.5762  -8.5759
    -8.5616  -8.5251  -8.4787  -8.4243  -8.3034  -8.2903  -8.2638  -8.1514
    -8.1299  -8.0696  -7.9525  -7.9500  -7.8860  -7.8828  -7.6835  -7.6707
    -7.6352  -7.5810  -7.5725  -7.5260  -7.4958  -7.3535  -7.3501  -7.3120
    -7.2268  -7.1988  -7.0467  -7.0368  -7.0035  -6.8472  -6.8432  -6.7379
    -6.7065  -6.6504  -6.6237  -6.5803  -6.4270  -6.3285  -6.2616  -6.2202
    -6.1594  -6.0248  -5.9683  -5.9401  -5.9095  -5.9001  -5.7636  -5.5739
    -5.5214  -5.4956  -5.2671  -5.2074  -5.1613  -5.1297  -4.8998  -4.7950
    -4.6832  -4.5784  -4.4568  -4.4244  -4.3958  -4.3440  -4.1169  -3.8733
    -3.5456  -3.4631  -3.0193  -2.9976  -1.3390  -1.2798  -1.1054  -0.9376
    -0.5978  -0.5305  -0.3651  -0.2556  -0.1873  -0.0620   0.1284   0.1333
     0.2220   0.2561   0.5622   0.7232   0.7806   0.8242   0.9573   1.0100
     1.0236   1.0685   1.1692   1.2306   1.3550   1.4332   1.4616   1.4836
     1.5549   1.5872   1.6760   1.6862   1.7050   1.8083   1.8967   1.9486
     1.9874   1.9888   2.1141   2.1299   2.2792   2.3012   2.3060   2.3726
     2.3904   2.3909   2.4771   2.4908   2.6073   2.6269   2.6374   2.7355
     2.7722   2.7849   2.8002   2.8393   2.8558   2.8601   2.9250   2.9576
     2.9852   3.0281   3.0773   3.1023   3.1202   3.1748   3.1856   3.1948
     3.1979   3.2278   3.2546   3.2993   3.3296   3.3299   3.4081   3.4587
     3.4940   3.5403   3.5714   3.6205   3.6237   3.6367   3.6512   3.6944
     3.7438   3.7891   3.7985   3.8042   3.8754   3.8824   3.9303   3.9778
     4.0157   4.0234   4.0349   4.0630   4.0656   4.1915   4.2099   4.2185
     4.2710   4.3102   4.3117   4.3217   4.3545   4.3600   4.4355   4.4630
     4.4682   4.4935   4.5185   4.5321   4.5482   4.5581   4.6227   4.6239
     4.6348   4.6419   4.6552   4.6743   4.7334   4.7375   4.7932   4.7983
     4.8614   4.8737   4.9129   4.9174   4.9291   5.0040   5.0280   5.0605
     5.1002   5.1101   5.1234   5.1343   5.1465   5.1623   5.2243   5.2249
     5.2449   5.3008   5.3126   5.3448   5.3707   5.4200   5.4247   5.4866
     5.5009   5.5088   5.5345   5.5538   5.5652   5.6013   5.6208   5.6369
     5.6407   5.6997   5.7075   5.7340   5.7544   5.7999   5.8070   5.8092
     5.8191   5.8274   5.8572   5.8578   5.8807   5.8811   5.8946   5.8962
     5.9118   5.9447   5.9536   5.9715   6.0310   6.0408   6.0784   6.0825
     6.0982   6.1084   6.1318   6.1357   6.1761   6.2181   6.2312   6.2387
     6.2557   6.2912   6.3311   6.3346   6.3790   6.3893   6.3977   6.4319
     6.4374   6.4527   6.4794   6.4819   6.5051   6.5426   6.5588   6.5670
     6.6061   6.6278   6.6283   6.6295   6.6447   6.6631   6.6649   6.6895
     6.7003   6.7128   6.7377   6.7820   6.7844   6.8055   6.8325   6.8578
     6.8591   6.8815   6.8837   6.8847   6.8891   6.9545   7.0080   7.0163
     7.0247   7.0266   7.0651   7.0774   7.1107   7.1239   7.1414   7.1482
     7.1541   7.1925   7.2159   7.2286   7.2346   7.2469   7.2664   7.2673
     7.3263   7.3330   7.3582   7.3944   7.4045   7.4117   7.4257   7.4494
     7.4519   7.4806   7.4852   7.4988   7.5087   7.5404   7.5503   7.5579
     7.5764   7.5773   7.6058   7.6207   7.6334   7.6858   7.7210   7.7245
     7.7279   7.7683   7.8136   7.8336   7.8398   7.8465   7.8472   7.8524
     7.8934   7.8967   7.8995   7.9041   7.9417   7.9611   7.9620   7.9654
     8.0078   8.0147   8.0494   8.1001   8.1051   8.1107   8.1224   8.1613
     8.2050   8.2089   8.2352   8.2413   8.2765   8.2795   8.3017   8.3126
     8.3285   8.3433   8.3514   8.3820   8.3856   8.4371   8.4392   8.4537
     8.4559   8.4755   8.5028   8.5093   8.5154   8.5254   8.5537   8.5796
     8.5923   8.6115   8.6220   8.6667

          k = 0.0000 0.0000 0.0059 (142448 PWs)   bands (ev):

   -21.3936 -21.2121 -21.0481 -20.8102 -20.6247 -20.6118 -20.2359 -20.1703
   -20.1019 -19.8625 -19.7714 -19.6914 -19.5682 -19.3420 -19.0874 -18.9474
   -18.8793 -18.6190 -18.5516 -18.3400 -18.3294 -18.1565 -18.0970 -17.8456
   -17.6526 -17.6291 -17.4743 -17.3303 -17.1239 -17.0062 -17.0015 -16.8943
   -16.7740 -16.6360 -16.6178 -16.4791 -16.2568 -16.2423 -15.9446 -15.7343
   -15.5434 -15.4811 -15.0589 -14.9065 -14.7242 -14.6684 -14.6173 -14.4217
   -14.2987 -14.2278 -14.1285 -14.0788 -13.8657 -13.8373 -13.6712 -13.5921
   -13.4397 -13.0979 -13.0709 -12.8247 -12.8213 -12.5853 -12.5631 -12.4641
   -12.3709 -12.0773 -12.0060 -11.8861 -11.8279 -11.7775 -11.4982 -11.3335
   -11.2484 -11.2163 -11.1597 -11.0933 -10.9299 -10.8942 -10.7185 -10.6418
   -10.6133 -10.4174 -10.4032 -10.2234 -10.1048  -9.9392  -9.8846  -9.8407
    -9.8141  -9.6863  -9.5834  -9.4591  -9.4280  -9.4123  -9.3463  -9.2507
    -9.2311  -9.2275  -9.1568  -9.1332  -9.0473  -8.9225  -8.8825  -8.8338
    -8.7983  -8.7934  -8.7548  -8.7139  -8.6692  -8.6041  -8.5741  -8.5629
    -8.5600  -8.5235  -8.4742  -8.4175  -8.3015  -8.2947  -8.2614  -8.1487
    -8.1366  -8.0614  -7.9587  -7.9516  -7.8817  -7.8775  -7.6930  -7.6715
    -7.6329  -7.5846  -7.5687  -7.5271  -7.4844  -7.3578  -7.3520  -7.3095
    -7.2303  -7.1966  -7.0493  -7.0433  -7.0012  -6.8482  -6.8404  -6.7330
    -6.7090  -6.6443  -6.6258  -6.5841  -6.4259  -6.3330  -6.2593  -6.2243
    -6.1618  -6.0249  -5.9725  -5.9336  -5.9032  -5.8929  -5.7761  -5.5761
    -5.5238  -5.4998  -5.2663  -5.2000  -5.1623  -5.1232  -4.9010  -4.7969
    -4.6820  -4.5795  -4.4553  -4.4232  -4.3949  -4.3449  -4.1156  -3.8762
    -3.5443  -3.4588  -3.0270  -3.0010  -1.3370  -1.2739  -1.1037  -0.9363
    -0.5969  -0.5308  -0.3653  -0.2638  -0.1802  -0.0622   0.1303   0.1308
     0.2191   0.2598   0.5528   0.7249   0.7819   0.8251   0.9483   1.0081
     1.0159   1.0687   1.1629   1.2275   1.3584   1.4362   1.4567   1.5097
     1.5432   1.5843   1.6849   1.6902   1.7174   1.8104   1.8989   1.9436
     1.9864   1.9894   2.1214   2.1328   2.2805   2.2977   2.3033   2.3807
     2.3813   2.3923   2.4843   2.4910   2.5992   2.6267   2.6337   2.7403
     2.7717   2.7768   2.7809   2.8375   2.8453   2.8671   2.9322   2.9691
     2.9746   3.0409   3.0663   3.0752   3.1074   3.1776   3.1867   3.1973
     3.2005   3.2231   3.2572   3.3069   3.3482   3.3494   3.4347   3.4458
     3.4771   3.5247   3.5658   3.6202   3.6203   3.6300   3.6708   3.7093
     3.7412   3.8130   3.8163   3.8175   3.8793   3.8810   3.9175   3.9789
     4.0066   4.0074   4.0253   4.0637   4.0780   4.2034   4.2089   4.2100
     4.2480   4.2939   4.2945   4.3026   4.3590   4.3708   4.4344   4.4474
     4.4684   4.4925   4.5139   4.5436   4.5555   4.5561   4.6120   4.6263
     4.6332   4.6519   4.6772   4.6791   4.7347   4.7610   4.7943   4.8052
     4.8640   4.8845   4.9001   4.9121   4.9436   5.0010   5.0317   5.0623
     5.0825   5.1041   5.1189   5.1388   5.1565   5.1658   5.2135   5.2338
     5.2619   5.2935   5.2978   5.3430   5.3804   5.4289   5.4560   5.4910
     5.5024   5.5044   5.5092   5.5344   5.5519   5.5884   5.6085   5.6228
     5.6272   5.7068   5.7116   5.7267   5.7496   5.7913   5.7916   5.7939
     5.8120   5.8304   5.8404   5.8645   5.8750   5.8926   5.8942   5.9007
     5.9230   5.9502   5.9582   5.9630   6.0395   6.0689   6.0961   6.0971
     6.1040   6.1044   6.1377   6.1502   6.1795   6.2260   6.2344   6.2554
     6.2580   6.2851   6.3311   6.3431   6.3712   6.3869   6.4038   6.4322
     6.4331   6.4538   6.4749   6.4917   6.5192   6.5406   6.5485   6.5606
     6.5875   6.5914   6.6219   6.6240   6.6474   6.6529   6.6663   6.6858
     6.6864   6.7143   6.7618   6.7762   6.7838   6.8067   6.8433   6.8621
     6.8655   6.8706   6.8776   6.8877   6.9017   6.9543   7.0006   7.0091
     7.0099   7.0229   7.0556   7.0775   7.1170   7.1380   7.1423   7.1437
     7.1469   7.1967   7.2066   7.2252   7.2265   7.2421   7.2664   7.2684
     7.3114   7.3466   7.3483   7.3860   7.3996   7.4025   7.4402   7.4471
     7.4523   7.4776   7.5007   7.5012   7.5094   7.5322   7.5582   7.5661
     7.5669   7.5743   7.5981   7.6550   7.6615   7.6980   7.7251   7.7305
     7.7369   7.7604   7.8144   7.8332   7.8431   7.8479   7.8677   7.8726
     7.8976   7.9090   7.9195   7.9318   7.9412   7.9588   7.9667   7.9718
     7.9995   8.0205   8.0659   8.0701   8.0819   8.0859   8.1341   8.1448
     8.1711   8.2056   8.2239   8.2432   8.2747   8.2771   8.2833   8.3117
     8.3194   8.3463   8.3565   8.3726   8.3826   8.4351   8.4478   8.4608
     8.4851   8.4988   8.5095   8.5240   8.5266   8.5294   8.5461   8.5866
     8.5993   8.6033   8.6372   8.6391

          k = 0.0000 0.0000 0.0071 (142458 PWs)   bands (ev):

   -21.3924 -21.2168 -21.0431 -20.8129 -20.6225 -20.6103 -20.2416 -20.1632
   -20.1085 -19.8699 -19.7679 -19.6806 -19.5705 -19.3434 -19.0852 -18.9525
   -18.8718 -18.6255 -18.5453 -18.3406 -18.3331 -18.1512 -18.1134 -17.8487
   -17.6403 -17.6277 -17.4699 -17.3289 -17.1266 -17.0112 -16.9985 -16.8902
   -16.7770 -16.6361 -16.6126 -16.4791 -16.2588 -16.2432 -15.9466 -15.7385
   -15.5432 -15.5034 -15.0292 -14.9033 -14.7264 -14.6734 -14.6138 -14.4248
   -14.3033 -14.2220 -14.1279 -14.0682 -13.8652 -13.8396 -13.6723 -13.5920
   -13.4501 -13.1099 -13.0704 -12.8373 -12.8283 -12.5726 -12.5592 -12.4554
   -12.3602 -12.0779 -12.0116 -11.8877 -11.8237 -11.7698 -11.5106 -11.3158
   -11.2498 -11.2214 -11.1721 -11.1000 -10.9177 -10.9058 -10.7134 -10.6447
   -10.5971 -10.4190 -10.4040 -10.2315 -10.0940  -9.9510  -9.9037  -9.8302
    -9.8097  -9.6862  -9.5664  -9.4577  -9.4271  -9.4153  -9.3408  -9.2557
    -9.2347  -9.2253  -9.1580  -9.1360  -9.0422  -8.9270  -8.8815  -8.8617
    -8.8011  -8.8004  -8.7592  -8.7097  -8.6693  -8.6007  -8.5716  -8.5580
    -8.5551  -8.5208  -8.4688  -8.4086  -8.2994  -8.2988  -8.2585  -8.1458
    -8.1431  -8.0532  -7.9660  -7.9527  -7.8767  -7.8717  -7.7029  -7.6722
    -7.6303  -7.5889  -7.5647  -7.5284  -7.4718  -7.3628  -7.3544  -7.3069
    -7.2341  -7.1945  -7.0525  -7.0507  -6.9984  -6.8494  -6.8371  -6.7274
    -6.7114  -6.6376  -6.6281  -6.5885  -6.4249  -6.3380  -6.2569  -6.2289
    -6.1646  -6.0250  -5.9767  -5.9259  -5.8957  -5.8852  -5.7906  -5.5788
    -5.5266  -5.5049  -5.2653  -5.1926  -5.1619  -5.1161  -4.9026  -4.7993
    -4.6805  -4.5807  -4.4536  -4.4217  -4.3939  -4.3460  -4.1141  -3.8796
    -3.5426  -3.4538  -3.0362  -3.0051  -1.3346  -1.2673  -1.1013  -0.9347
    -0.5959  -0.5312  -0.3656  -0.2720  -0.1735  -0.0622   0.1267   0.1336
     0.2156   0.2644   0.5417   0.7265   0.7834   0.8261   0.9318   1.0057
     1.0158   1.0689   1.1558   1.2241   1.3620   1.4396   1.4503   1.5309
     1.5377   1.5841   1.6833   1.7041   1.7305   1.8132   1.9017   1.9385
     1.9853   1.9899   2.1295   2.1364   2.2809   2.2947   2.3013   2.3711
     2.3893   2.3946   2.4912   2.4917   2.5900   2.6264   2.6292   2.7458
     2.7579   2.7618   2.7822   2.8346   2.8354   2.8744   2.9388   2.9508
     2.9907   3.0483   3.0543   3.0544   3.0951   3.1814   3.1905   3.1983
     3.2049   3.2176   3.2603   3.3120   3.3678   3.3680   3.4358   3.4580
     3.4607   3.5111   3.5621   3.6041   3.6243   3.6352   3.6902   3.7251
     3.7373   3.8306   3.8331   3.8360   3.8748   3.8887   3.9080   3.9799
     3.9906   3.9967   4.0188   4.0644   4.0885   4.1852   4.2099   4.2192
     4.2283   4.2673   4.2772   4.3009   4.3586   4.3835   4.4270   4.4351
     4.4727   4.4917   4.5063   4.5314   4.5520   4.5799   4.5847   4.6284
     4.6466   4.6712   4.6963   4.6997   4.7282   4.7833   4.7955   4.8132
     4.8570   4.8771   4.9034   4.9073   4.9719   4.9986   5.0388   5.0541
     5.0601   5.1046   5.1096   5.1426   5.1744   5.1760   5.2059   5.2248
     5.2699   5.2962   5.2968   5.3443   5.3902   5.4144   5.4887   5.4911
     5.4944   5.4964   5.5061   5.5241   5.5288   5.5742   5.6038   5.6048
     5.6218   5.7043   5.7201   5.7247   5.7446   5.7632   5.7666   5.7859
     5.8153   5.8259   5.8326   5.8699   5.8808   5.8922   5.8938   5.9105
     5.9386   5.9443   5.9491   5.9710   6.0531   6.0681   6.0830   6.1121
     6.1236   6.1317   6.1503   6.1669   6.1889   6.2354   6.2374   6.2606
     6.2765   6.2814   6.3270   6.3543   6.3570   6.3886   6.4085   6.4282
     6.4331   6.4548   6.4676   6.5030   6.5343   6.5364   6.5387   6.5459
     6.5560   6.5723   6.6137   6.6146   6.6315   6.6639   6.6658   6.6749
     6.6844   6.7175   6.7737   6.7811   6.7855   6.8081   6.8482   6.8595
     6.8669   6.8725   6.8755   6.8934   6.9122   6.9543   6.9714   7.0018
     7.0092   7.0204   7.0517   7.0791   7.0959   7.1238   7.1383   7.1616
     7.1705   7.1959   7.1990   7.2034   7.2205   7.2576   7.2671   7.2766
     7.2853   7.3280   7.3728   7.3750   7.3920   7.3972   7.4393   7.4443
     7.4546   7.4830   7.4938   7.5147   7.5157   7.5334   7.5612   7.5633
     7.5790   7.5878   7.5924   7.6743   7.6930   7.7086   7.7347   7.7445
     7.7446   7.7519   7.8142   7.8303   7.8424   7.8544   7.8854   7.8914
     7.9000   7.9212   7.9382   7.9433   7.9527   7.9599   7.9743   7.9838
     7.9904   8.0249   8.0326   8.0578   8.0718   8.0957   8.1067   8.1393
     8.1614   8.2012   8.2168   8.2487   8.2656   8.2721   8.2786   8.2871
     8.3246   8.3514   8.3598   8.3723   8.3783   8.4305   8.4365   8.4773
     8.4828   8.5066   8.5200   8.5376   8.5442   8.5527   8.5692   8.5816
     8.5961   8.6124   8.6207   8.6255

          k = 0.0000 0.0000 0.0083 (142486 PWs)   bands (ev):

   -21.3909 -21.2219 -21.0375 -20.8161 -20.6200 -20.6086 -20.2471 -20.1560
   -20.1160 -19.8776 -19.7641 -19.6690 -19.5731 -19.3452 -19.0826 -18.9574
   -18.8641 -18.6320 -18.5392 -18.3414 -18.3370 -18.1453 -18.1312 -17.8527
   -17.6275 -17.6261 -17.4645 -17.3271 -17.1298 -17.0169 -16.9950 -16.8854
   -16.7803 -16.6363 -16.6069 -16.4790 -16.2611 -16.2443 -15.9488 -15.7442
   -15.5430 -15.5244 -14.9988 -14.8995 -14.7288 -14.6784 -14.6106 -14.4284
   -14.3074 -14.2154 -14.1268 -14.0571 -13.8645 -13.8423 -13.6738 -13.5917
   -13.4622 -13.1247 -13.0696 -12.8465 -12.8360 -12.5824 -12.5339 -12.4458
   -12.3489 -12.0788 -12.0174 -11.8892 -11.8189 -11.7614 -11.5222 -11.2983
   -11.2513 -11.2269 -11.1856 -11.1074 -10.9175 -10.9050 -10.7071 -10.6480
   -10.5811 -10.4211 -10.4039 -10.2398 -10.0826  -9.9660  -9.9204  -9.8189
    -9.8045  -9.6885  -9.5481  -9.4559  -9.4260  -9.4188  -9.3347  -9.2613
    -9.2395  -9.2222  -9.1600  -9.1388  -9.0365  -8.9315  -8.8883  -8.8824
    -8.8072  -8.8045  -8.7636  -8.7054  -8.6696  -8.5974  -8.5687  -8.5557
    -8.5521  -8.5178  -8.4627  -8.3982  -8.3044  -8.2947  -8.2553  -8.1493
    -8.1428  -8.0449  -7.9744  -7.9530  -7.8710  -7.8654  -7.7131  -7.6728
    -7.6274  -7.5939  -7.5604  -7.5299  -7.4582  -7.3683  -7.3572  -7.3044
    -7.2380  -7.1925  -7.0591  -7.0562  -6.9952  -6.8508  -6.8333  -6.7212
    -6.7135  -6.6305  -6.6305  -6.5934  -6.4242  -6.3436  -6.2543  -6.2337
    -6.1676  -6.0252  -5.9807  -5.9173  -5.8873  -5.8770  -5.8067  -5.5820
    -5.5300  -5.5107  -5.2641  -5.1868  -5.1590  -5.1082  -4.9044  -4.8021
    -4.6787  -4.5821  -4.4517  -4.4199  -4.3927  -4.3473  -4.1122  -3.8836
    -3.5405  -3.4480  -3.0467  -3.0099  -1.3317  -1.2601  -1.0981  -0.9329
    -0.5946  -0.5316  -0.3658  -0.2801  -0.1671  -0.0619   0.1225   0.1369
     0.2114   0.2696   0.5292   0.7275   0.7852   0.8273   0.9109   1.0029
     1.0211   1.0690   1.1481   1.2205   1.3656   1.4426   1.4433   1.5183
     1.5667   1.5865   1.6814   1.7177   1.7440   1.8166   1.9053   1.9337
     1.9840   1.9902   2.1382   2.1405   2.2793   2.2922   2.3012   2.3608
     2.3973   2.3984   2.4916   2.4989   2.5798   2.6240   2.6257   2.7411
     2.7438   2.7538   2.7881   2.8242   2.8327   2.8819   2.9310   2.9443
     3.0052   3.0222   3.0425   3.0677   3.0840   3.1863   3.1967   3.1982
     3.2111   3.2115   3.2638   3.3125   3.3828   3.3886   3.4306   3.4452
     3.4744   3.5006   3.5662   3.5883   3.6318   3.6395   3.7088   3.7326
     3.7407   3.8422   3.8478   3.8528   3.8689   3.8995   3.9073   3.9741
     3.9793   3.9897   4.0142   4.0649   4.0965   4.1635   4.2081   4.2124
     4.2189   4.2407   4.2633   4.3102   4.3588   4.3906   4.4073   4.4370
     4.4642   4.4923   4.5038   4.5229   4.5481   4.5582   4.6034   4.6303
     4.6665   4.6856   4.7152   4.7221   4.7229   4.7875   4.7969   4.8215
     4.8555   4.8733   4.9021   4.9173   4.9888   4.9961   5.0380   5.0494
     5.0545   5.0990   5.1001   5.1457   5.1893   5.1967   5.2023   5.2162
     5.2468   5.2972   5.3283   5.3455   5.3843   5.4003   5.4666   5.4915
     5.4941   5.5011   5.5092   5.5237   5.5288   5.5598   5.5874   5.6015
     5.6186   5.6998   5.7139   5.7349   5.7392   5.7393   5.7418   5.7780
     5.8070   5.8243   5.8282   5.8648   5.8887   5.8926   5.8994   5.9182
     5.9337   5.9454   5.9599   5.9771   6.0487   6.0695   6.0803   6.1234
     6.1403   6.1457   6.1750   6.1868   6.2006   6.2449   6.2495   6.2645
     6.2774   6.2988   6.3225   6.3415   6.3641   6.3897   6.4125   6.4250
     6.4348   6.4548   6.4605   6.5061   6.5089   6.5287   6.5288   6.5488
     6.5490   6.5550   6.6052   6.6074   6.6191   6.6641   6.6670   6.6761
     6.6826   6.7190   6.7748   6.7768   6.7984   6.8214   6.8489   6.8514
     6.8515   6.8800   6.8887   6.9041   6.9154   6.9402   6.9558   6.9949
     7.0063   7.0206   7.0563   7.0707   7.0832   7.1064   7.1300   7.1785
     7.1787   7.1853   7.1955   7.2039   7.2155   7.2611   7.2686   7.2744
     7.2860   7.3062   7.3632   7.3852   7.3879   7.3979   7.4160   7.4388
     7.4662   7.4968   7.4990   7.5160   7.5208   7.5436   7.5632   7.5721
     7.5875   7.5990   7.6040   7.6830   7.6975   7.7190   7.7353   7.7590
     7.7709   7.7724   7.8119   7.8246   7.8371   7.8653   7.8739   7.9096
     7.9289   7.9294   7.9373   7.9490   7.9522   7.9733   7.9808   7.9888
     7.9967   8.0045   8.0241   8.0485   8.0729   8.0824   8.1032   8.1320
     8.1529   8.2054   8.2145   8.2534   8.2591   8.2640   8.2690   8.2822
     8.3291   8.3585   8.3624   8.3726   8.3766   8.4182   8.4254   8.4522
     8.4955   8.5092   8.5502   8.5529   8.5538   8.5621   8.5873   8.5889
     8.5901   8.5911   8.6107   8.6427

          k = 0.0000 0.0000 0.0095 (142470 PWs)   bands (ev):

   -21.3893 -21.2275 -21.0315 -20.8196 -20.6173 -20.6067 -20.2523 -20.1488
   -20.1243 -19.8855 -19.7598 -19.6568 -19.5761 -19.3474 -19.0797 -18.9619
   -18.8563 -18.6384 -18.5332 -18.3423 -18.3411 -18.1499 -18.1389 -17.8574
   -17.6243 -17.6147 -17.4582 -17.3249 -17.1333 -17.0233 -16.9910 -16.8799
   -16.7840 -16.6367 -16.6005 -16.4789 -16.2637 -16.2457 -15.9512 -15.7519
   -15.5433 -15.5429 -14.9682 -14.8952 -14.7314 -14.6834 -14.6077 -14.4322
   -14.3108 -14.2083 -14.1253 -14.0455 -13.8637 -13.8455 -13.6757 -13.5911
   -13.4760 -13.1418 -13.0684 -12.8526 -12.8444 -12.5925 -12.5095 -12.4354
   -12.3371 -12.0799 -12.0233 -11.8908 -11.8135 -11.7525 -11.5329 -11.2812
   -11.2530 -11.2327 -11.2000 -11.1155 -10.9289 -10.8918 -10.6997 -10.6515
   -10.5662 -10.4236 -10.4025 -10.2482 -10.0707  -9.9844  -9.9336  -9.8071
    -9.7986  -9.6922  -9.5297  -9.4540  -9.4246  -9.4224  -9.3279  -9.2674
    -9.2456  -9.2184  -9.1633  -9.1412  -9.0303  -8.9363  -8.9132  -8.8853
    -8.8138  -8.8082  -8.7671  -8.7011  -8.6700  -8.5942  -8.5656  -8.5531
    -8.5519  -8.5158  -8.4559  -8.3874  -8.3094  -8.2891  -8.2518  -8.1552
    -8.1399  -8.0365  -7.9837  -7.9524  -7.8647  -7.8589  -7.7235  -7.6732
    -7.6243  -7.5993  -7.5558  -7.5316  -7.4439  -7.3744  -7.3603  -7.3019
    -7.2421  -7.1906  -7.0681  -7.0606  -6.9916  -6.8524  -6.8289  -6.7153
    -6.7147  -6.6329  -6.6231  -6.5988  -6.4238  -6.3495  -6.2517  -6.2385
    -6.1709  -6.0254  -5.9846  -5.9080  -5.8780  -5.8684  -5.8242  -5.5856
    -5.5339  -5.5174  -5.2628  -5.1838  -5.1527  -5.0995  -4.9065  -4.8053
    -4.6768  -4.5837  -4.4495  -4.4178  -4.3914  -4.3488  -4.1099  -3.8881
    -3.5381  -3.4417  -3.0584  -3.0154  -1.3286  -1.2528  -1.0939  -0.9309
    -0.5932  -0.5322  -0.3662  -0.2880  -0.1612  -0.0612   0.1177   0.1408
     0.2065   0.2755   0.5154   0.7275   0.7872   0.8286   0.8889   0.9997
     1.0295   1.0689   1.1400   1.2169   1.3690   1.4342   1.4471   1.5053
     1.5910   1.5959   1.6792   1.7304   1.7576   1.8209   1.9097   1.9295
     1.9827   1.9901   2.1452   2.1472   2.2753   2.2905   2.3036   2.3503
     2.4004   2.4078   2.4922   2.5060   2.5689   2.6183   2.6248   2.7221
     2.7295   2.7609   2.7945   2.8142   2.8294   2.8893   2.9105   2.9481
     2.9976   3.0166   3.0314   3.0754   3.0805   3.1922   3.1968   3.2049
     3.2051   3.2189   3.2675   3.3075   3.3922   3.4097   3.4302   3.4308
     3.4830   3.4943   3.5733   3.5812   3.6417   3.6433   3.7255   3.7275
     3.7542   3.8514   3.8581   3.8597   3.8619   3.9136   3.9216   3.9588
     3.9755   3.9881   4.0116   4.0649   4.1012   4.1400   4.1990   4.2020
     4.2111   4.2151   4.2559   4.3278   4.3597   4.3885   4.3911   4.4397
     4.4406   4.4905   4.5101   4.5200   4.5395   4.5443   4.6259   4.6330
     4.6880   4.6985   4.7007   4.7407   4.7497   4.7698   4.7984   4.8284
     4.8615   4.8927   4.8962   4.9265   4.9781   4.9933   5.0467   5.0519
     5.0623   5.0887   5.0905   5.1488   5.1978   5.2032   5.2087   5.2219
     5.2309   5.2987   5.3459   5.3495   5.3549   5.4128   5.4415   5.4684
     5.4883   5.5010   5.5070   5.5408   5.5460   5.5472   5.5747   5.5986
     5.6165   5.6939   5.7074   5.7081   5.7213   5.7339   5.7538   5.7695
     5.7959   5.8189   5.8270   5.8559   5.8763   5.8978   5.9186   5.9205
     5.9377   5.9410   5.9800   5.9817   6.0412   6.0564   6.1010   6.1315
     6.1529   6.1547   6.1747   6.2126   6.2230   6.2522   6.2676   6.2732
     6.2756   6.3173   6.3192   6.3284   6.3719   6.3877   6.4167   6.4250
     6.4372   6.4472   6.4544   6.4758   6.5015   6.5186   6.5221   6.5239
     6.5588   6.5598   6.6038   6.6040   6.6104   6.6611   6.6622   6.6805
     6.6884   6.7172   6.7715   6.7796   6.8002   6.8326   6.8391   6.8471
     6.8569   6.8878   6.8879   6.9083   6.9089   6.9242   6.9544   6.9938
     7.0048   7.0265   7.0463   7.0681   7.0867   7.0874   7.1216   7.1597
     7.1753   7.1793   7.2060   7.2089   7.2195   7.2477   7.2688   7.2705
     7.2918   7.3111   7.3507   7.3769   7.3781   7.3915   7.4221   7.4302
     7.4729   7.5083   7.5104   7.5205   7.5260   7.5572   7.5750   7.5813
     7.5901   7.6053   7.6310   7.6796   7.6935   7.7268   7.7350   7.7683
     7.8031   7.8060   7.8170   7.8190   7.8263   7.8669   7.8755   7.9237
     7.9269   7.9348   7.9357   7.9501   7.9625   7.9635   7.9804   7.9863
     7.9884   8.0207   8.0326   8.0602   8.0671   8.0794   8.0833   8.1245
     8.1611   8.2091   8.2159   8.2454   8.2528   8.2671   8.2740   8.2866
     8.3335   8.3637   8.3657   8.3676   8.3835   8.3985   8.4198   8.4212
     8.5018   8.5132   8.5303   8.5483   8.5589   8.5804   8.5903   8.5940
     8.5994   8.6055   8.6375   8.6642

          k = 0.0000 0.0000 0.0107 (142494 PWs)   bands (ev):

   -21.3874 -21.2333 -21.0251 -20.8234 -20.6143 -20.6046 -20.2573 -20.1415
   -20.1331 -19.8935 -19.7551 -19.6441 -19.5794 -19.3498 -19.0764 -18.9662
   -18.8485 -18.6447 -18.5273 -18.3453 -18.3433 -18.1693 -18.1320 -17.8628
   -17.6222 -17.6025 -17.4507 -17.3222 -17.1373 -17.0304 -16.9865 -16.8736
   -16.7879 -16.6373 -16.5938 -16.4789 -16.2665 -16.2472 -15.9539 -15.7620
   -15.5593 -15.5428 -14.9380 -14.8903 -14.7341 -14.6883 -14.6051 -14.4364
   -14.3130 -14.2006 -14.1235 -14.0337 -13.8628 -13.8492 -13.6780 -13.5900
   -13.4915 -13.1609 -13.0670 -12.8557 -12.8532 -12.6027 -12.4862 -12.4243
   -12.3253 -12.0814 -12.0290 -11.8922 -11.8076 -11.7432 -11.5427 -11.2652
   -11.2550 -11.2384 -11.2150 -11.1243 -10.9395 -10.8784 -10.6917 -10.6553
   -10.5529 -10.4266 -10.3991 -10.2565 -10.0584 -10.0055  -9.9443  -9.7954
    -9.7921  -9.6965  -9.5122  -9.4518  -9.4263  -9.4227  -9.3205  -9.2738
    -9.2532  -9.2137  -9.1681  -9.1433  -9.0237  -8.9413  -8.9358  -8.8903
    -8.8206  -8.8122  -8.7692  -8.6968  -8.6706  -8.5914  -8.5622  -8.5533
    -8.5502  -8.5151  -8.4485  -8.3777  -8.3142  -8.2817  -8.2478  -8.1607
    -8.1372  -8.0281  -7.9937  -7.9504  -7.8579  -7.8523  -7.7338  -7.6733
    -7.6211  -7.6053  -7.5509  -7.5334  -7.4293  -7.3811  -7.3638  -7.2997
    -7.2463  -7.1889  -7.0776  -7.0654  -6.9876  -6.8541  -6.8241  -6.7168
    -6.7081  -6.6349  -6.6153  -6.6045  -6.4239  -6.3558  -6.2490  -6.2431
    -6.1744  -6.0257  -5.9881  -5.8980  -5.8680  -5.8595  -5.8426  -5.5897
    -5.5382  -5.5247  -5.2613  -5.1833  -5.1436  -5.0902  -4.9088  -4.8089
    -4.6746  -4.5855  -4.4472  -4.4155  -4.3901  -4.3504  -4.1073  -3.8930
    -3.5353  -3.4348  -3.0710  -3.0215  -1.3250  -1.2457  -1.0886  -0.9287
    -0.5917  -0.5328  -0.3665  -0.2957  -0.1557  -0.0600   0.1123   0.1450
     0.2010   0.2821   0.5005   0.7254   0.7895   0.8300   0.8684   0.9961
     1.0398   1.0687   1.1316   1.2135   1.3718   1.4256   1.4508   1.4922
     1.5974   1.6245   1.6768   1.7422   1.7712   1.8259   1.9151   1.9264
     1.9815   1.9896   2.1504   2.1565   2.2695   2.2895   2.3078   2.3400
     2.4039   2.4173   2.4930   2.5127   2.5573   2.6120   2.6234   2.7029
     2.7152   2.7693   2.8006   2.8049   2.8252   2.8901   2.8966   2.9495
     2.9748   3.0219   3.0220   3.0717   3.0920   3.1943   3.1988   3.1993
     3.2146   3.2282   3.2711   3.2983   3.3938   3.4178   3.4309   3.4326
     3.4890   3.4934   3.5592   3.6032   3.6468   3.6535   3.7229   3.7385
     3.7632   3.8554   3.8574   3.8589   3.8688   3.9307   3.9448   3.9455
     3.9725   3.9873   4.0126   4.0640   4.1023   4.1168   4.1866   4.1907
     4.1915   4.2005   4.2567   4.3485   4.3614   4.3706   4.3858   4.4131
     4.4430   4.4761   4.5093   4.5294   4.5385   4.5409   4.6366   4.6463
     4.6817   4.7093   4.7118   4.7452   4.7554   4.7738   4.8001   4.8336
     4.8743   4.8895   4.9209   4.9317   4.9600   4.9906   5.0381   5.0707
     5.0783   5.0787   5.0824   5.1523   5.1818   5.2026   5.2157   5.2317
     5.2490   5.2994   5.3178   5.3455   5.3710   5.4148   5.4313   5.4399
     5.4874   5.5008   5.5071   5.5332   5.5427   5.5539   5.5805   5.5940
     5.6154   5.6829   5.6870   5.6993   5.7110   5.7291   5.7582   5.7690
     5.7877   5.8095   5.8271   5.8438   5.8612   5.9046   5.9228   5.9358
     5.9377   5.9473   5.9811   6.0034   6.0401   6.0452   6.1207   6.1373
     6.1604   6.1636   6.1706   6.2242   6.2404   6.2552   6.2680   6.2878
     6.2914   6.3104   6.3284   6.3379   6.3782   6.3831   6.4203   6.4204
     6.4263   6.4374   6.4519   6.4684   6.4850   6.5032   6.5079   6.5185
     6.5614   6.5653   6.6045   6.6097   6.6108   6.6562   6.6611   6.6780
     6.7004   6.7116   6.7654   6.7883   6.7971   6.8108   6.8465   6.8493
     6.8722   6.8793   6.8829   6.8939   6.8963   6.9452   6.9453   7.0001
     7.0063   7.0231   7.0392   7.0659   7.0846   7.0864   7.1201   7.1439
     7.1660   7.1729   7.1985   7.1995   7.2152   7.2538   7.2619   7.2721
     7.3093   7.3260   7.3357   7.3674   7.3709   7.3711   7.4212   7.4445
     7.4756   7.5119   7.5177   7.5243   7.5465   7.5739   7.5789   7.5955
     7.5985   7.6141   7.6590   7.6719   7.6892   7.7203   7.7501   7.7772
     7.7948   7.8075   7.8150   7.8354   7.8620   7.8656   7.8799   7.9156
     7.9209   7.9225   7.9397   7.9528   7.9605   7.9635   7.9807   7.9915
     7.9917   8.0238   8.0580   8.0602   8.0744   8.0746   8.0799   8.1119
     8.1884   8.1994   8.2194   8.2406   8.2538   8.2694   8.2907   8.2949
     8.3376   8.3560   8.3591   8.3775   8.3865   8.3920   8.3926   8.4136
     8.4708   8.5183   8.5402   8.5411   8.5474   8.5782   8.6056   8.6089
     8.6178   8.6250   8.6700   8.6720

          k = 0.0000 0.0000 0.0119 (142464 PWs)   bands (ev):

   -21.3853 -21.2393 -21.0185 -20.8276 -20.6112 -20.6023 -20.2620 -20.1424
   -20.1341 -19.9015 -19.7502 -19.6312 -19.5830 -19.3527 -19.0729 -18.9702
   -18.8406 -18.6508 -18.5216 -18.3494 -18.3444 -18.1889 -18.1247 -17.8688
   -17.6200 -17.5913 -17.4419 -17.3189 -17.1418 -17.0382 -16.9817 -16.8666
   -16.7922 -16.6381 -16.5867 -16.4788 -16.2696 -16.2491 -15.9566 -15.7744
   -15.5722 -15.5429 -14.9086 -14.8850 -14.7369 -14.6932 -14.6030 -14.4408
   -14.3137 -14.1927 -14.1214 -14.0218 -13.8617 -13.8533 -13.6809 -13.5884
   -13.5086 -13.1815 -13.0651 -12.8624 -12.8564 -12.6129 -12.4642 -12.4127
   -12.3136 -12.0834 -12.0343 -11.8933 -11.8012 -11.7337 -11.5514 -11.2573
   -11.2526 -11.2418 -11.2302 -11.1338 -10.9487 -10.8648 -10.6831 -10.6594
   -10.5420 -10.4300 -10.3930 -10.2648 -10.0456 -10.0280  -9.9534  -9.7850
    -9.7842  -9.7005  -9.4967  -9.4493  -9.4302  -9.4198  -9.3127  -9.2805
    -9.2621  -9.2082  -9.1747  -9.1450  -9.0169  -8.9556  -8.9467  -8.8972
    -8.8278  -8.8166  -8.7696  -8.6925  -8.6712  -8.5888  -8.5586  -8.5557
    -8.5472  -8.5157  -8.4409  -8.3699  -8.3186  -8.2729  -8.2434  -8.1659
    -8.1346  -8.0196  -8.0044  -7.9470  -7.8508  -7.8454  -7.7440  -7.6732
    -7.6177  -7.6116  -7.5458  -7.5354  -7.4143  -7.3884  -7.3677  -7.2976
    -7.2506  -7.1873  -7.0874  -7.0708  -6.9832  -6.8561  -6.8188  -6.7180
    -6.7018  -6.6364  -6.6105  -6.6074  -6.4247  -6.3623  -6.2473  -6.2462
    -6.1780  -6.0261  -5.9915  -5.8875  -5.8618  -5.8573  -5.8503  -5.5942
    -5.5431  -5.5326  -5.2597  -5.1841  -5.1332  -5.0802  -4.9115  -4.8129
    -4.6722  -4.5874  -4.4447  -4.4130  -4.3887  -4.3523  -4.1042  -3.8983
    -3.5321  -3.4276  -3.0843  -3.0283  -1.3212  -1.2392  -1.0820  -0.9264
    -0.5900  -0.5336  -0.3669  -0.3032  -0.1506  -0.0581   0.1064   0.1498
     0.1947   0.2893   0.4847   0.7202   0.7920   0.8315   0.8512   0.9922
     1.0513   1.0683   1.1231   1.2104   1.3735   1.4176   1.4545   1.4789
     1.6053   1.6520   1.6743   1.7525   1.7845   1.8316   1.9216   1.9248
     1.9804   1.9886   2.1559   2.1659   2.2626   2.2892   2.3132   2.3299
     2.4078   2.4270   2.4940   2.5189   2.5453   2.6056   2.6214   2.6840
     2.7010   2.7784   2.7966   2.8046   2.8210   2.8711   2.9033   2.9478
     2.9544   3.0153   3.0195   3.0738   3.1012   3.1911   3.1935   3.2076
     3.2253   3.2390   3.2743   3.2869   3.3877   3.4069   3.4354   3.4513
     3.4967   3.4990   3.5470   3.6254   3.6502   3.6675   3.7198   3.7448
     3.7654   3.8523   3.8609   3.8634   3.8758   3.9322   3.9497   3.9723
     3.9727   3.9847   4.0179   4.0616   4.0951   4.0999   4.1709   4.1743
     4.1774   4.1898   4.2630   4.3537   4.3618   4.3643   4.3764   4.3929
     4.4464   4.4530   4.5050   4.5381   4.5441   4.5502   4.6414   4.6588
     4.6602   4.7256   4.7256   4.7293   4.7647   4.7889   4.8020   4.8382
     4.8789   4.8949   4.9337   4.9486   4.9502   4.9906   5.0304   5.0589
     5.0684   5.0915   5.1063   5.1566   5.1604   5.1982   5.2238   5.2418
     5.2776   5.2853   5.3078   5.3446   5.3765   5.3877   5.4138   5.4546
     5.4890   5.4976   5.5094   5.5219   5.5265   5.5648   5.5820   5.5879
     5.6150   5.6609   5.6798   5.6887   5.7179   5.7253   5.7422   5.7822
     5.7844   5.8038   5.8199   5.8304   5.8518   5.9082   5.9270   5.9315
     5.9564   5.9576   5.9835   6.0173   6.0431   6.0437   6.1376   6.1411
     6.1619   6.1656   6.1728   6.2341   6.2420   6.2522   6.2612   6.2911
     6.2998   6.3082   6.3533   6.3541   6.3779   6.3842   6.3915   6.4186
     6.4231   6.4291   6.4580   6.4692   6.4740   6.4949   6.4989   6.5164
     6.5558   6.5724   6.6011   6.6200   6.6264   6.6523   6.6619   6.6748
     6.7030   6.7118   6.7583   6.7865   6.7905   6.7999   6.8492   6.8528
     6.8548   6.8658   6.8760   6.9001   6.9041   6.9331   6.9636   7.0013
     7.0068   7.0102   7.0455   7.0578   7.0796   7.0995   7.1279   7.1379
     7.1575   7.1644   7.1829   7.1862   7.1876   7.2638   7.2730   7.2805
     7.3163   7.3264   7.3321   7.3586   7.3637   7.3682   7.4164   7.4627
     7.4793   7.5112   7.5117   7.5408   7.5646   7.5760   7.5948   7.5957
     7.6213   7.6314   7.6633   7.6818   7.6934   7.7123   7.7601   7.7776
     7.7860   7.7957   7.8039   7.8541   7.8580   7.8805   7.8958   7.9089
     7.9171   7.9242   7.9264   7.9523   7.9734   7.9743   7.9920   7.9948
     7.9957   8.0247   8.0335   8.0496   8.0916   8.0952   8.0993   8.1237
     8.1834   8.2057   8.2219   8.2447   8.2543   8.2802   8.2926   8.3201
     8.3344   8.3383   8.3565   8.3627   8.3901   8.3917   8.4031   8.4068
     8.4383   8.5228   8.5349   8.5387   8.5555   8.5743   8.6068   8.6250
     8.6342   8.6412   8.6594   8.6738

          k = 0.0000 0.0000 0.0130 (142482 PWs)   bands (ev):

   -21.3830 -21.2455 -21.0116 -20.8320 -20.6080 -20.5998 -20.2663 -20.1521
   -20.1267 -19.9096 -19.7450 -19.6181 -19.5869 -19.3560 -19.0690 -18.9739
   -18.8327 -18.6569 -18.5161 -18.3534 -18.3456 -18.2087 -18.1171 -17.8753
   -17.6175 -17.5815 -17.4319 -17.3151 -17.1466 -17.0465 -16.9764 -16.8589
   -16.7966 -16.6391 -16.5793 -16.4787 -16.2729 -16.2512 -15.9595 -15.7891
   -15.5819 -15.5431 -14.8806 -14.8791 -14.7397 -14.6980 -14.6012 -14.4455
   -14.3125 -14.1845 -14.1191 -14.0098 -13.8607 -13.8579 -13.6842 -13.5861
   -13.5272 -13.2029 -13.0629 -12.8718 -12.8552 -12.6231 -12.4436 -12.4006
   -12.3023 -12.0860 -12.0389 -11.8942 -11.7944 -11.7241 -11.5589 -11.2610
   -11.2531 -11.2447 -11.2334 -11.1438 -10.9560 -10.8513 -10.6742 -10.6637
   -10.5340 -10.4338 -10.3838 -10.2730 -10.0510 -10.0326  -9.9618  -9.7774
    -9.7745  -9.7030  -9.4844  -9.4466  -9.4341  -9.4151  -9.3044  -9.2874
    -9.2724  -9.2018  -9.1831  -9.1463  -9.0098  -8.9720  -8.9527  -8.9054
    -8.8358  -8.8213  -8.7684  -8.6883  -8.6720  -8.5864  -8.5588  -8.5548
    -8.5440  -8.5174  -8.4330  -8.3643  -8.3226  -8.2638  -8.2380  -8.1706
    -8.1324  -8.0157  -8.0110  -7.9418  -7.8435  -7.8385  -7.7542  -7.6727
    -7.6183  -7.6143  -7.5404  -7.5376  -7.3992  -7.3964  -7.3718  -7.2959
    -7.2550  -7.1858  -7.0974  -7.0767  -6.9786  -6.8582  -6.8132  -6.7189
    -6.6963  -6.6368  -6.6166  -6.5992  -6.4262  -6.3691  -6.2510  -6.2433
    -6.1817  -6.0266  -5.9945  -5.8815  -5.8765  -5.8462  -5.8407  -5.5992
    -5.5485  -5.5411  -5.2579  -5.1856  -5.1222  -5.0697  -4.9145  -4.8173
    -4.6696  -4.5894  -4.4421  -4.4102  -4.3873  -4.3542  -4.1008  -3.9040
    -3.5284  -3.4202  -3.0982  -3.0356  -1.3171  -1.2334  -1.0740  -0.9240
    -0.5882  -0.5345  -0.3672  -0.3103  -0.1459  -0.0556   0.1000   0.1549
     0.1876   0.2970   0.4682   0.7110   0.7947   0.8331   0.8388   0.9879
     1.0638   1.0676   1.1146   1.2078   1.3729   1.4115   1.4580   1.4655
     1.6142   1.6717   1.6780   1.7611   1.7974   1.8380   1.9250   1.9293
     1.9795   1.9870   2.1616   2.1752   2.2551   2.2897   2.3196   2.3203
     2.4121   2.4367   2.4953   2.5241   2.5330   2.5991   2.6187   2.6653
     2.6869   2.7882   2.7894   2.8006   2.8204   2.8554   2.9093   2.9371
     2.9429   3.0119   3.0120   3.0782   3.1069   3.1879   3.1903   3.2169
     3.2366   3.2511   3.2753   3.2764   3.3765   3.3987   3.4376   3.4688
     3.5063   3.5104   3.5385   3.6399   3.6534   3.6867   3.7195   3.7419
     3.7607   3.8549   3.8634   3.8730   3.8808   3.9206   3.9695   3.9743
     3.9810   4.0007   4.0270   4.0570   4.0761   4.0943   4.1547   4.1614
     4.1648   4.1803   4.2719   4.3377   4.3427   4.3640   4.3685   4.4051
     4.4285   4.4497   4.5001   4.5363   4.5599   4.5663   4.6374   4.6480
     4.6508   4.7258   4.7396   4.7468   4.7676   4.7903   4.8040   4.8426
     4.8707   4.9151   4.9328   4.9555   4.9626   5.0040   5.0245   5.0438
     5.0570   5.1003   5.1324   5.1396   5.1632   5.1957   5.2219   5.2537
     5.2726   5.3070   5.3097   5.3436   5.3609   5.3754   5.3924   5.4748
     5.4929   5.4940   5.5089   5.5121   5.5122   5.5708   5.5714   5.5806
     5.6157   5.6450   5.6730   5.6758   5.7225   5.7229   5.7406   5.7778
     5.7995   5.8018   5.8060   5.8167   5.8506   5.9053   5.9321   5.9326
     5.9666   5.9741   5.9885   6.0142   6.0472   6.0616   6.1430   6.1510
     6.1571   6.1610   6.1811   6.2336   6.2432   6.2448   6.2519   6.2835
     6.2930   6.3179   6.3622   6.3691   6.3720   6.3844   6.3924   6.4081
     6.4113   6.4157   6.4684   6.4716   6.4755   6.4995   6.5002   6.5182
     6.5484   6.5798   6.6001   6.6317   6.6445   6.6502   6.6658   6.6706
     6.6924   6.7224   6.7496   6.7602   6.7816   6.8115   6.8305   6.8399
     6.8541   6.8580   6.8752   6.9112   6.9170   6.9209   6.9764   6.9807
     7.0112   7.0169   7.0268   7.0701   7.0825   7.1023   7.1401   7.1428
     7.1495   7.1501   7.1589   7.1748   7.1790   7.2685   7.2714   7.2961
     7.3010   7.3244   7.3425   7.3528   7.3571   7.3834   7.4192   7.4694
     7.4930   7.5006   7.5103   7.5535   7.5689   7.5786   7.5945   7.6166
     7.6487   7.6494   7.6551   7.6878   7.7024   7.7203   7.7550   7.7633
     7.7826   7.7879   7.7947   7.8453   7.8566   7.8825   7.8837   7.9122
     7.9180   7.9337   7.9480   7.9619   7.9746   7.9939   7.9950   7.9955
     8.0061   8.0088   8.0411   8.0490   8.1143   8.1151   8.1171   8.1275
     8.1753   8.2119   8.2188   8.2462   8.2628   8.2883   8.2941   8.3172
     8.3335   8.3444   8.3481   8.3608   8.3998   8.4008   8.4048   8.4129
     8.4130   8.5233   8.5301   8.5363   8.5667   8.5708   8.6036   8.6342
     8.6358   8.6448   8.6473   8.6542

          k = 0.0000 0.0000 0.0142 (142484 PWs)   bands (ev):

   -21.3805 -21.2518 -21.0047 -20.8367 -20.6047 -20.5973 -20.2703 -20.1619
   -20.1193 -19.9176 -19.7396 -19.6050 -19.5911 -19.3597 -19.0650 -18.9773
   -18.8248 -18.6628 -18.5107 -18.3571 -18.3469 -18.2285 -18.1093 -17.8824
   -17.6148 -17.5732 -17.4206 -17.3107 -17.1519 -17.0553 -16.9707 -16.8506
   -16.8013 -16.6404 -16.5718 -16.4787 -16.2763 -16.2536 -15.9625 -15.8054
   -15.5887 -15.5434 -14.8728 -14.8543 -14.7425 -14.7025 -14.5997 -14.4504
   -14.3091 -14.1762 -14.1166 -13.9980 -13.8635 -13.8591 -13.6880 -13.5831
   -13.5471 -13.2248 -13.0604 -12.8814 -12.8523 -12.6333 -12.4243 -12.3881
   -12.2917 -12.0894 -12.0427 -11.8949 -11.7871 -11.7146 -11.5652 -11.2698
   -11.2582 -11.2545 -11.2222 -11.1542 -10.9609 -10.8377 -10.6683 -10.6654
   -10.5287 -10.4380 -10.3715 -10.2809 -10.0741 -10.0193  -9.9700  -9.7692
    -9.7677  -9.7025  -9.4764  -9.4436  -9.4380  -9.4082  -9.2960  -9.2944
    -9.2839  -9.1952  -9.1921  -9.1475  -9.0025  -8.9850  -8.9592  -8.9145
    -8.8446  -8.8263  -8.7658  -8.6842  -8.6729  -8.5843  -8.5623  -8.5510
    -8.5406  -8.5198  -8.4251  -8.3606  -8.3258  -8.2559  -8.2310  -8.1748
    -8.1305  -8.0273  -8.0024  -7.9347  -7.8361  -7.8315  -7.7642  -7.6718
    -7.6252  -7.6107  -7.5399  -7.5348  -7.4050  -7.3841  -7.3763  -7.2946
    -7.2595  -7.1845  -7.1072  -7.0832  -6.9737  -6.8604  -6.8072  -6.7196
    -6.6918  -6.6357  -6.6229  -6.5909  -6.4287  -6.3761  -6.2540  -6.2402
    -6.1855  -6.0273  -5.9973  -5.9013  -5.8653  -5.8346  -5.8310  -5.6046
    -5.5543  -5.5501  -5.2560  -5.1874  -5.1112  -5.0586  -4.9178  -4.8221
    -4.6669  -4.5915  -4.4394  -4.4073  -4.3860  -4.3564  -4.0969  -3.9100
    -3.5243  -3.4128  -3.1123  -3.0434  -1.3127  -1.2288  -1.0646  -0.9216
    -0.5862  -0.5355  -0.3676  -0.3172  -0.1415  -0.0525   0.0931   0.1604
     0.1798   0.3053   0.4513   0.6974   0.7977   0.8316   0.8347   0.9833
     1.0667   1.0768   1.1062   1.2057   1.3692   1.4084   1.4520   1.4612
     1.6240   1.6693   1.7020   1.7679   1.8096   1.8449   1.9272   1.9384
     1.9792   1.9849   2.1672   2.1842   2.2475   2.2911   2.3115   2.3268
     2.4167   2.4465   2.4968   2.5205   2.5277   2.5932   2.6154   2.6471
     2.6732   2.7834   2.7880   2.7986   2.8200   2.8470   2.9138   2.9233
     2.9358   3.0023   3.0115   3.0807   3.1080   3.1852   3.1901   3.2272
     3.2477   3.2645   3.2653   3.2767   3.3632   3.3942   3.4398   3.4786
     3.5167   3.5258   3.5387   3.6430   3.6565   3.7121   3.7215   3.7304
     3.7511   3.8605   3.8676   3.8837   3.8859   3.9119   3.9737   3.9810
     3.9889   4.0284   4.0386   4.0505   4.0604   4.0865   4.1442   4.1478
     4.1542   4.1728   4.2818   4.3133   4.3228   4.3491   4.3743   4.4052
     4.4269   4.4526   4.4948   4.5354   4.5759   4.5839   4.6141   4.6262
     4.6570   4.7425   4.7497   4.7611   4.7636   4.7828   4.8063   4.8466
     4.8618   4.9286   4.9362   4.9607   4.9752   5.0207   5.0295   5.0317
     5.0451   5.1039   5.1220   5.1505   5.1777   5.1955   5.2110   5.2633
     5.2727   5.3091   5.3361   5.3378   5.3431   5.3707   5.3783   5.4836
     5.4874   5.4910   5.5036   5.5037   5.5153   5.5539   5.5717   5.5728
     5.6175   5.6395   5.6616   5.6667   5.7036   5.7198   5.7693   5.7720
     5.7957   5.7978   5.8070   5.8137   5.8527   5.8995   5.9357   5.9391
     5.9714   5.9906   5.9953   6.0102   6.0505   6.0841   6.1418   6.1457
     6.1576   6.1617   6.1858   6.2255   6.2304   6.2405   6.2520   6.2630
     6.2983   6.3185   6.3525   6.3605   6.3672   6.3903   6.3974   6.3986
     6.4040   6.4148   6.4712   6.4750   6.4805   6.5111   6.5196   6.5274
     6.5448   6.5889   6.6022   6.6392   6.6539   6.6585   6.6652   6.6770
     6.6808   6.7317   6.7332   6.7392   6.7705   6.8118   6.8122   6.8223
     6.8514   6.8603   6.8882   6.9097   6.9162   6.9286   6.9613   6.9812
     7.0113   7.0133   7.0272   7.0664   7.0979   7.1051   7.1063   7.1420
     7.1491   7.1501   7.1683   7.1707   7.1810   7.2618   7.2671   7.2843
     7.3095   7.3224   7.3515   7.3534   7.3570   7.4035   7.4290   7.4714
     7.4869   7.5070   7.5117   7.5577   7.5582   7.5894   7.5952   7.6314
     7.6492   7.6645   7.6776   7.6932   7.6997   7.7289   7.7500   7.7569
     7.7696   7.7739   7.7967   7.8331   7.8612   7.8625   7.8751   7.9233
     7.9237   7.9394   7.9468   7.9477   7.9920   8.0036   8.0095   8.0149
     8.0174   8.0226   8.0622   8.0633   8.1131   8.1249   8.1258   8.1325
     8.1837   8.2062   8.2126   8.2461   8.2805   8.2821   8.2881   8.3129
     8.3274   8.3524   8.3666   8.3764   8.3920   8.3942   8.4177   8.4183
     8.4213   8.5149   8.5259   8.5403   8.5642   8.5676   8.6011   8.6089
     8.6334   8.6338   8.6371   8.6578

          k = 0.0000 0.0000 0.0154 (142500 PWs)   bands (ev):

   -21.3777 -21.2581 -20.9976 -20.8416 -20.6014 -20.5947 -20.2738 -20.1720
   -20.1118 -19.9257 -19.7341 -19.5956 -19.5918 -19.3638 -19.0608 -18.9804
   -18.8170 -18.6686 -18.5054 -18.3605 -18.3483 -18.2480 -18.1012 -17.8898
   -17.6120 -17.5666 -17.4081 -17.3056 -17.1575 -17.0645 -16.9647 -16.8415
   -16.8063 -16.6421 -16.5642 -16.4786 -16.2798 -16.2564 -15.9654 -15.8229
   -15.5930 -15.5439 -14.8661 -14.8303 -14.7451 -14.7068 -14.5984 -14.4556
   -14.3033 -14.1679 -14.1141 -13.9862 -13.8694 -13.8579 -13.6923 -13.5794
   -13.5681 -13.2468 -13.0574 -12.8911 -12.8482 -12.6434 -12.4064 -12.3753
   -12.2819 -12.0937 -12.0453 -11.8955 -11.7792 -11.7054 -11.5702 -11.2847
   -11.2633 -11.2585 -11.2130 -11.1650 -10.9629 -10.8243 -10.6732 -10.6569
   -10.5256 -10.4424 -10.3565 -10.2886 -10.0970 -10.0057  -9.9783  -9.7652
    -9.7604  -9.6975  -9.4728  -9.4417  -9.4403  -9.3996  -9.3015  -9.2965
    -9.2878  -9.2030  -9.1862  -9.1486  -8.9951  -8.9947  -8.9666  -8.9240
    -8.8543  -8.8315  -8.7622  -8.6800  -8.6740  -8.5823  -8.5662  -8.5470
    -8.5372  -8.5227  -8.4173  -8.3584  -8.3282  -8.2503  -8.2223  -8.1786
    -8.1290  -8.0392  -7.9937  -7.9257  -7.8288  -7.8245  -7.7741  -7.6704
    -7.6323  -7.6072  -7.5422  -7.5290  -7.4143  -7.3810  -7.3690  -7.2937
    -7.2639  -7.1834  -7.1167  -7.0901  -6.9685  -6.8628  -6.8011  -6.7202
    -6.6888  -6.6328  -6.6292  -6.5824  -6.4320  -6.3833  -6.2562  -6.2369
    -6.1894  -6.0283  -5.9999  -5.9210  -5.8539  -5.8226  -5.8210  -5.6105
    -5.5606  -5.5595  -5.2539  -5.1895  -5.1003  -5.0471  -4.9214  -4.8272
    -4.6640  -4.5937  -4.4366  -4.4042  -4.3846  -4.3586  -4.0926  -3.9164
    -3.5197  -3.4055  -3.1264  -3.0518  -1.3080  -1.2252  -1.0540  -0.9192
    -0.5842  -0.5366  -0.3680  -0.3236  -0.1372  -0.0486   0.0857   0.1664
     0.1711   0.3141   0.4340   0.6805   0.8008   0.8289   0.8364   0.9783
     1.0653   1.0905   1.0980   1.2044   1.3623   1.4083   1.4384   1.4639
     1.6342   1.6670   1.7236   1.7728   1.8208   1.8523   1.9315   1.9488
     1.9795   1.9822   2.1725   2.1923   2.2404   2.2931   2.3037   2.3346
     2.4217   2.4562   2.4985   2.5079   2.5290   2.5883   2.6112   2.6294
     2.6599   2.7708   2.7786   2.8096   2.8136   2.8484   2.9132   2.9149
     2.9295   2.9917   3.0136   3.0788   3.1041   3.1831   3.1929   3.2385
     3.2571   3.2587   3.2749   3.2790   3.3505   3.3938   3.4427   3.4774
     3.5271   3.5435   3.5508   3.6382   3.6596   3.7132   3.7211   3.7389
     3.7423   3.8598   3.8756   3.8838   3.8995   3.9124   3.9684   3.9869
     4.0058   4.0447   4.0485   4.0517   4.0546   4.0780   4.1332   4.1394
     4.1463   4.1680   4.2831   4.2917   4.3089   4.3320   4.3814   4.3842
     4.4484   4.4548   4.4892   4.5355   4.5913   4.5918   4.5966   4.6018
     4.6687   4.7411   4.7535   4.7644   4.7708   4.7867   4.8086   4.8473
     4.8543   4.9212   4.9537   4.9551   5.0038   5.0166   5.0175   5.0367
[...]
    -6.6906  -6.6777  -6.5567  -6.5043  -6.4969  -6.4536  -6.2462  -6.2246
    -6.1829  -6.1083  -6.0126  -6.0123  -5.7506  -5.7238  -5.7185  -5.6737
    -5.6557  -5.6363  -5.2310  -5.2135  -5.0136  -4.9681  -4.9444  -4.8887
    -4.6352  -4.6168  -4.4085  -4.3891  -4.3795  -4.3734  -4.0339  -3.9839
    -3.4535  -3.3966  -3.1873  -3.1403  -1.2617  -1.2345  -0.9465  -0.9125
    -0.5646  -0.5520  -0.3684  -0.3609  -0.0782  -0.0052   0.0093   0.0679
     0.2345   0.2963   0.4159   0.5073   0.8311   0.8429   0.8775   0.9221
     1.0456   1.0470   1.2228   1.2287   1.2743   1.3117   1.4419   1.4634
     1.6686   1.6849   1.8160   1.8267   1.8523   1.8760   1.9765   1.9946
     2.0274   2.0422   2.1576   2.1657   2.3035   2.3163   2.3420   2.3960
     2.3979   2.4336   2.4867   2.5166   2.5261   2.5480   2.5504   2.5618
     2.5725   2.6019   2.7879   2.8011   2.8280   2.8745   2.9039   2.9188
     2.9329   2.9444   2.9652   2.9936   3.0856   3.1231   3.1541   3.1556
     3.2975   3.3497   3.3768   3.3781   3.4484   3.4674   3.4773   3.4995
     3.5100   3.5523   3.5813   3.5935   3.6300   3.6464   3.6732   3.7114
     3.7782   3.7941   3.8722   3.9153   3.9413   3.9671   4.0190   4.0437
     4.0448   4.0551   4.0755   4.1011   4.1049   4.1141   4.1154   4.1755
     4.1971   4.2380   4.2620   4.2726   4.2752   4.2766   4.2940   4.3413
     4.3591   4.4346   4.4639   4.4739   4.5189   4.5235   4.5638   4.6133
     4.6183   4.7132   4.7439   4.7521   4.7767   4.8222   4.8407   4.8413
     4.8723   4.9271   4.9296   4.9878   4.9908   5.0202   5.0343   5.0905
     5.1490   5.1502   5.1665   5.1684   5.2159   5.2190   5.2202   5.2241
     5.2738   5.3201   5.3317   5.3356   5.3417   5.3857   5.4005   5.4176
     5.4448   5.4646   5.4893   5.4985   5.5432   5.5437   5.5882   5.5967
     5.6145   5.6337   5.6622   5.6699   5.6806   5.6863   5.7189   5.7284
     5.8129   5.8235   5.8235   5.8441   5.8661   5.8909   5.9274   5.9358
     5.9774   6.0280   6.0364   6.0372   6.0716   6.0837   6.0957   6.1267
     6.1284   6.1342   6.1459   6.1604   6.1702   6.1782   6.1876   6.1880
     6.2547   6.2708   6.3324   6.3369   6.3415   6.3437   6.3901   6.4294
     6.4349   6.4362   6.4482   6.4674   6.5114   6.5270   6.5275   6.5578
     6.5671   6.5793   6.5919   6.6016   6.6075   6.6389   6.6671   6.7045
     6.7107   6.7175   6.7188   6.7557   6.7727   6.7859   6.8086   6.8217
     6.8871   6.8911   6.9137   6.9227   6.9753   6.9825   6.9967   6.9981
     7.0103   7.0215   7.0540   7.0806   7.1023   7.1075   7.1128   7.1220
     7.1454   7.1532   7.1598   7.1649   7.2328   7.2452   7.3028   7.3111
     7.3160   7.3209   7.3413   7.3578   7.3760   7.3853   7.4215   7.4294
     7.5016   7.5150   7.5302   7.5557   7.5735   7.5910   7.6197   7.6217
     7.6233   7.6451   7.6511   7.6723   7.6951   7.7046   7.7192   7.7622
     7.7796   7.7854   7.7972   7.8134   7.8386   7.8397   7.9053   7.9217
     7.9492   7.9678   7.9932   8.0087   8.0142   8.0170   8.0338   8.0608
     8.0701   8.1174   8.1175   8.1337   8.1742   8.1746   8.1985   8.2157
     8.2331   8.2355   8.2501   8.2745   8.2978   8.3048   8.3227   8.3258
     8.3451   8.3544   8.3806   8.4254   8.4340   8.4548   8.4803   8.4834
     8.4908   8.5137   8.5190   8.5289   8.5485   8.5508   8.5549   8.5876
     8.6215   8.6322   8.6514   8.6561

          k = 0.0000 0.0000 0.0273 (142408 PWs)   bands (ev):

   -21.3391 -21.3185 -20.9265 -20.8998 -20.5764 -20.5752 -20.2779 -20.2591
   -20.0356 -20.0046 -19.6738 -19.6495 -19.4699 -19.4306 -19.0182 -19.0057
   -18.7456 -18.7224 -18.4482 -18.4098 -18.3704 -18.3644 -18.0130 -17.9762
   -17.5774 -17.5641 -17.2732 -17.2324 -17.2210 -17.1744 -16.8948 -16.8665
   -16.7302 -16.6903 -16.4986 -16.4853 -16.3040 -16.2964 -15.9782 -15.9615
   -15.5758 -15.5625 -14.7872 -14.7656 -14.7530 -14.7386 -14.5487 -14.5179
   -14.1110 -14.1057 -14.0979 -14.0060 -13.8864 -13.8596 -13.7450 -13.7448
   -13.4954 -13.4385 -13.0088 -12.9803 -12.7751 -12.7395 -12.2921 -12.2704
   -12.2343 -12.1847 -11.9876 -11.9439 -11.6757 -11.6553 -11.5323 -11.4701
   -11.2785 -11.2618 -11.2545 -11.2363 -10.8422 -10.7781 -10.6918 -10.6555
   -10.4971 -10.4824 -10.3187 -10.2838 -10.1607 -10.0921  -9.8747  -9.8341
    -9.6375  -9.5720  -9.5358  -9.4731  -9.4390  -9.4300  -9.3950  -9.3710
    -9.2159  -9.1821  -9.1323  -9.0806  -9.0716  -9.0192  -8.9899  -8.9627
    -8.9208  -8.8929  -8.7118  -8.6958  -8.6356  -8.6152  -8.5659  -8.5565
    -8.5155  -8.5132  -8.3755  -8.3680  -8.2919  -8.2661  -8.1754  -8.1500
    -8.1489  -8.1354  -7.9050  -7.8686  -7.8014  -7.7878  -7.7446  -7.7074
    -7.6119  -7.5729  -7.5721  -7.5431  -7.4652  -7.4391  -7.3019  -7.2996
    -7.2295  -7.1823  -7.1764  -7.1718  -6.9140  -6.8955  -6.7421  -6.7288
    -6.6898  -6.6812  -6.5465  -6.5065  -6.4957  -6.4619  -6.2429  -6.2285
    -6.1728  -6.1228  -6.0130  -6.0130  -5.7402  -5.7140  -5.7125  -5.6760
    -5.6670  -5.6462  -5.2281  -5.2164  -5.0053  -4.9750  -4.9343  -4.8972
    -4.6320  -4.6198  -4.4052  -4.3921  -4.3779  -4.3739  -4.0257  -3.9922
    -3.4437  -3.4047  -3.1825  -3.1502  -1.2567  -1.2384  -0.9379  -0.9153
    -0.5624  -0.5540  -0.3678  -0.3629  -0.0674  -0.0180   0.0178   0.0568
     0.2436   0.2846   0.4297   0.4905   0.8340   0.8419   0.8850   0.9148
     1.0442   1.0450   1.2350   1.2378   1.2655   1.2971   1.4461   1.4606
     1.6713   1.6830   1.8263   1.8323   1.8495   1.8677   1.9820   1.9957
     2.0338   2.0447   2.1552   2.1616   2.3137   2.3220   2.3502   2.3875
     2.3967   2.4206   2.4952   2.5219   2.5252   2.5488   2.5524   2.5545
     2.5665   2.5880   2.7931   2.8117   2.8198   2.8626   2.9092   2.9218
     2.9382   2.9493   2.9563   2.9821   3.0967   3.1207   3.1418   3.1436
     3.3067   3.3433   3.3918   3.3985   3.4569   3.4663   3.4801   3.4963
     3.5145   3.5497   3.5702   3.5882   3.6289   3.6438   3.6616   3.6961
     3.7990   3.8150   3.8624   3.9159   3.9173   3.9563   4.0206   4.0471
     4.0473   4.0492   4.1024   4.1052   4.1093   4.1219   4.1262   4.1758
     4.2199   4.2365   4.2433   4.2684   4.2688   4.2707   4.3148   4.3443
     4.3542   4.4364   4.4445   4.4782   4.5137   4.5172   4.5413   4.5878
     4.6369   4.7246   4.7293   4.7672   4.7845   4.8251   4.8263   4.8382
     4.8642   4.9110   4.9467   5.0108   5.0134   5.0225   5.0374   5.0961
     5.1330   5.1335   5.1408   5.1553   5.2222   5.2260   5.2295   5.2395
     5.2731   5.3175   5.3249   5.3280   5.3366   5.3754   5.4214   5.4266
     5.4421   5.4899   5.4929   5.4965   5.5351   5.5690   5.5931   5.5981
     5.6150   5.6437   5.6488   5.6639   5.6650   5.6786   5.7205   5.7213
     5.8162   5.8216   5.8297   5.8441   5.8669   5.8919   5.9154   5.9257
     5.9811   6.0258   6.0370   6.0418   6.0722   6.0745   6.1009   6.1204
     6.1236   6.1271   6.1517   6.1678   6.1788   6.1791   6.1827   6.1880
     6.2541   6.2655   6.3375   6.3412   6.3463   6.3465   6.3792   6.4115
     6.4327   6.4438   6.4515   6.4801   6.5033   6.5141   6.5366   6.5524
     6.5614   6.5698   6.5855   6.5893   6.6137   6.6341   6.6724   6.7023
     6.7122   6.7196   6.7258   6.7519   6.7605   6.7769   6.8217   6.8377
     6.8838   6.8922   6.9167   6.9263   6.9715   6.9886   6.9982   7.0011
     7.0319   7.0347   7.0553   7.0832   7.1030   7.1112   7.1133   7.1195
     7.1385   7.1561   7.1790   7.1912   7.2353   7.2449   7.2871   7.2927
     7.2985   7.3032   7.3295   7.3476   7.3840   7.3889   7.4235   7.4277
     7.4916   7.5056   7.5270   7.5526   7.5711   7.5993   7.6284   7.6301
     7.6364   7.6463   7.6528   7.6918   7.6959   7.7090   7.7294   7.7610
     7.7693   7.7766   7.8007   7.8057   7.8547   7.8647   7.8826   7.9240
     7.9335   7.9447   8.0032   8.0085   8.0114   8.0203   8.0304   8.0381
     8.0658   8.0789   8.1322   8.1549   8.1665   8.1879   8.2024   8.2242
     8.2345   8.2449   8.2621   8.2694   8.2960   8.3086   8.3164   8.3214
     8.3659   8.3767   8.3946   8.4340   8.4497   8.4616   8.4698   8.4826
     8.4925   8.5137   8.5188   8.5325   8.5380   8.5598   8.5683   8.5741
     8.6170   8.6217   8.6495   8.6600

          k = 0.0000 0.0000 0.0285 (142430 PWs)   bands (ev):

   -21.3342 -21.3239 -20.9197 -20.9063 -20.5755 -20.5749 -20.2744 -20.2650
   -20.0279 -20.0124 -19.6677 -19.6555 -19.4594 -19.4398 -19.0147 -19.0085
   -18.7395 -18.7279 -18.4400 -18.4208 -18.3692 -18.3662 -18.0038 -17.9854
   -17.5738 -17.5671 -17.2621 -17.2418 -17.2097 -17.1862 -16.8876 -16.8734
   -16.7193 -16.6993 -16.4944 -16.4878 -16.3033 -16.2995 -15.9758 -15.9676
   -15.5724 -15.5657 -14.7803 -14.7695 -14.7507 -14.7433 -14.5408 -14.5254
   -14.1029 -14.0998 -14.0828 -14.0306 -13.8786 -13.8649 -13.7484 -13.7477
   -13.4823 -13.4539 -13.0022 -12.9879 -12.7664 -12.7486 -12.2854 -12.2742
   -12.2222 -12.1971 -11.9764 -11.9543 -11.6679 -11.6577 -11.5189 -11.4876
   -11.2755 -11.2668 -11.2515 -11.2420 -10.8250 -10.7926 -10.6822 -10.6638
   -10.4929 -10.4856 -10.3130 -10.2955 -10.1424 -10.1081  -9.8638  -9.8435
    -9.6212  -9.5877  -9.5195  -9.4866  -9.4407  -9.4353  -9.3893  -9.3772
    -9.2065  -9.1895  -9.1193  -9.0935  -9.0580  -9.0316  -8.9843  -8.9708
    -8.9137  -8.8998  -8.7074  -8.6994  -8.6306  -8.6204  -8.5638  -8.5591
    -8.5142  -8.5130  -8.3736  -8.3698  -8.2850  -8.2720  -8.1701  -8.1568
    -8.1457  -8.1384  -7.8959  -7.8777  -7.7958  -7.7891  -7.7347  -7.7160
    -7.6005  -7.5797  -7.5678  -7.5544  -7.4587  -7.4456  -7.3022  -7.3010
    -7.2172  -7.1936  -7.1756  -7.1734  -6.9091  -6.8998  -6.7380  -6.7314
    -6.6885  -6.6842  -6.5364  -6.5163  -6.4871  -6.4702  -6.2395  -6.2322
    -6.1617  -6.1367  -6.0134  -6.0134  -5.7305  -5.7157  -5.7011  -5.6784
    -5.6726  -5.6560  -5.2252  -5.2193  -4.9973  -4.9821  -4.9245  -4.9059
    -4.6289  -4.6227  -4.4019  -4.3953  -4.3765  -4.3745  -4.0174  -4.0006
    -3.4336  -3.4139  -3.1760  -3.1596  -1.2518  -1.2426  -0.9304  -0.9192
    -0.5603  -0.5561  -0.3670  -0.3646  -0.0557  -0.0308   0.0268   0.0462
     0.2531   0.2736   0.4440   0.4744   0.8365   0.8405   0.8925   0.9075
     1.0434   1.0437   1.2419   1.2527   1.2572   1.2824   1.4501   1.4574
     1.6743   1.6804   1.8371   1.8374   1.8460   1.8582   1.9873   1.9946
     2.0391   2.0448   2.1547   2.1582   2.3215   2.3256   2.3589   2.3775
     2.3981   2.4097   2.5037   2.5196   2.5292   2.5463   2.5514   2.5584
     2.5610   2.5761   2.7989   2.8123   2.8236   2.8496   2.9145   2.9222
     2.9425   2.9501   2.9554   2.9719   3.1081   3.1213   3.1317   3.1319
     3.3161   3.3348   3.4086   3.4190   3.4422   3.4596   3.4843   3.5113
     3.5150   3.5437   3.5667   3.5796   3.6318   3.6402   3.6593   3.6798
     3.8185   3.8392   3.8505   3.8902   3.9224   3.9429   4.0256   4.0396
     4.0498   4.0514   4.1110   4.1120   4.1121   4.1250   4.1462   4.1905
     4.2111   4.2285   4.2405   4.2621   4.2631   4.2666   4.3308   4.3479
     4.3633   4.4158   4.4458   4.4875   4.4971   4.5142   4.5366   4.5641
     4.6584   4.7030   4.7474   4.7802   4.7821   4.8117   4.8284   4.8349
     4.8660   4.8941   4.9669   5.0056   5.0300   5.0318   5.0583   5.1017
     5.1176   5.1178   5.1195   5.1408   5.2245   5.2267   5.2428   5.2566
     5.2719   5.3061   5.3167   5.3220   5.3446   5.3647   5.4263   5.4373
     5.4494   5.4823   5.5059   5.5191   5.5256   5.5755   5.5959   5.5978
     5.6219   5.6401   5.6479   5.6579   5.6658   5.6807   5.6967   5.7072
     5.8316   5.8334   5.8336   5.8498   5.8688   5.8793   5.9041   5.9131
     5.9895   6.0128   6.0460   6.0535   6.0633   6.0747   6.1061   6.1111
     6.1146   6.1177   6.1594   6.1754   6.1762   6.1865   6.1873   6.1877
     6.2547   6.2607   6.3380   6.3395   6.3523   6.3582   6.3688   6.3898
     6.4403   6.4527   6.4544   6.4790   6.4939   6.5154   6.5424   6.5462
     6.5600   6.5668   6.5761   6.5790   6.6195   6.6293   6.6789   6.6941
     6.7190   6.7213   6.7331   6.7500   6.7516   6.7665   6.8348   6.8484
     6.8789   6.8896   6.9203   6.9249   6.9713   6.9812   7.0090   7.0093
     7.0407   7.0527   7.0579   7.0848   7.0947   7.0980   7.1156   7.1289
     7.1344   7.1545   7.1981   7.2187   7.2447   7.2477   7.2679   7.2717
     7.2799   7.3061   7.3116   7.3336   7.3942   7.4013   7.4249   7.4267
     7.4775   7.4833   7.5316   7.5470   7.5763   7.5968   7.6372   7.6428
     7.6471   7.6482   7.6597   7.6937   7.7045   7.7066   7.7407   7.7586
     7.7727   7.7729   7.7883   7.8200   7.8473   7.8601   7.8927   7.9048
     7.9389   7.9442   8.0056   8.0062   8.0086   8.0122   8.0213   8.0404
     8.0439   8.0610   8.1439   8.1598   8.1798   8.2055   8.2066   8.2158
     8.2364   8.2377   8.2588   8.2891   8.2989   8.3040   8.3162   8.3199
     8.3745   8.3921   8.4099   8.4331   8.4616   8.4688   8.4704   8.4825
     8.4828   8.4877   8.5272   8.5425   8.5462   8.5481   8.5731   8.5755
     8.6163   8.6270   8.6480   8.6535

          k = 0.0000 0.0000-0.0296 (142440 PWs)   bands (ev):

   -21.3292 -21.3291 -20.9130 -20.9129 -20.5750 -20.5750 -20.2701 -20.2701
   -20.0201 -20.0201 -19.6616 -19.6616 -19.4494 -19.4494 -19.0115 -19.0115
   -18.7336 -18.7336 -18.4308 -18.4308 -18.3678 -18.3678 -17.9946 -17.9946
   -17.5704 -17.5704 -17.2517 -17.2517 -17.1980 -17.1980 -16.8805 -16.8804
   -16.7090 -16.7090 -16.4908 -16.4907 -16.3018 -16.3017 -15.9724 -15.9723
   -15.5690 -15.5689 -14.7744 -14.7744 -14.7474 -14.7474 -14.5330 -14.5330
   -14.1009 -14.1009 -14.0564 -14.0564 -13.8714 -13.8714 -13.7491 -13.7491
   -13.4685 -13.4685 -12.9952 -12.9952 -12.7576 -12.7575 -12.2793 -12.2793
   -12.2096 -12.2096 -11.9652 -11.9652 -11.6619 -11.6619 -11.5039 -11.5039
   -11.2715 -11.2715 -11.2472 -11.2471 -10.8084 -10.8084 -10.6728 -10.6727
   -10.4891 -10.4890 -10.3053 -10.3053 -10.1248 -10.1248  -9.8534  -9.8533
    -9.6044  -9.6044  -9.5026  -9.5026  -9.4391  -9.4390  -9.3834  -9.3833
    -9.1976  -9.1976  -9.1064  -9.1064  -9.0446  -9.0446  -8.9779  -8.9779
    -8.9067  -8.9067  -8.7032  -8.7032  -8.6255  -8.6255  -8.5616  -8.5615
    -8.5133  -8.5133  -8.3717  -8.3717  -8.2784  -8.2783  -8.1639  -8.1639
    -8.1419  -8.1418  -7.8869  -7.8868  -7.7917  -7.7917  -7.7251  -7.7251
    -7.5892  -7.5892  -7.5624  -7.5624  -7.4521  -7.4521  -7.3019  -7.3019
    -7.2052  -7.2052  -7.1747  -7.1746  -6.9043  -6.9043  -6.7344  -6.7344
    -6.6866  -6.6866  -6.5263  -6.5263  -6.4787  -6.4786  -6.2359  -6.2359
    -6.1496  -6.1496  -6.0135  -6.0135  -5.7219  -5.7219  -5.6898  -5.6898
    -5.6652  -5.6652  -5.2223  -5.2223  -4.9896  -4.9895  -4.9150  -4.9150
    -4.6258  -4.6257  -4.3986  -4.3985  -4.3754  -4.3754  -4.0091  -4.0090
    -3.4236  -3.4236  -3.1683  -3.1682  -1.2471  -1.2471  -0.9242  -0.9242
    -0.5582  -0.5582  -0.3659  -0.3659  -0.0435  -0.0435   0.0362   0.0362
     0.2631   0.2631   0.4589   0.4589   0.8387   0.8387   0.9000   0.9001
     1.0432   1.0432   1.2493   1.2493   1.2676   1.2676   1.4538   1.4539
     1.6774   1.6774   1.8419   1.8419   1.8478   1.8478   1.9916   1.9917
     2.0429   2.0429   2.1557   2.1558   2.3256   2.3257   2.3680   2.3680
     2.4020   2.4020   2.5120   2.5120   2.5376   2.5376   2.5558   2.5558
     2.5663   2.5663   2.8053   2.8053   2.8364   2.8364   2.9193   2.9193
     2.9461   2.9461   2.9629   2.9629   3.1198   3.1198   3.1250   3.1250
     3.3255   3.3256   3.4256   3.4256   3.4394   3.4394   3.4999   3.4999
     3.5316   3.5316   3.5712   3.5713   3.6360   3.6360   3.6664   3.6664
     3.8359   3.8359   3.8645   3.8645   3.9310   3.9311   4.0322   4.0323
     4.0515   4.0515   4.1131   4.1132   4.1181   4.1181   4.1783   4.1783
     4.2109   4.2110   4.2567   4.2568   4.2601   4.2602   4.3410   4.3410
     4.3883   4.3883   4.4642   4.4642   4.5079   4.5080   4.5454   4.5454
     4.6807   4.6807   4.7656   4.7656   4.7970   4.7970   4.8317   4.8317
     4.8780   4.8780   4.9868   4.9869   5.0392   5.0392   5.0820   5.0820
     5.1104   5.1104   5.1266   5.1266   5.2262   5.2262   5.2539   5.2539
     5.2865   5.2866   5.3181   5.3182   5.3542   5.3542   5.4317   5.4318
     5.4679   5.4679   5.5158   5.5158   5.5504   5.5505   5.5970   5.5970
     5.6340   5.6340   5.6641   5.6641   5.6650   5.6651   5.6915   5.6915
     5.8346   5.8346   5.8577   5.8577   5.8624   5.8624   5.9032   5.9032
     6.0003   6.0003   6.0548   6.0548   6.0674   6.0674   6.1078   6.1078
     6.1117   6.1117   6.1678   6.1678   6.1824   6.1824   6.1911   6.1911
     6.2569   6.2569   6.3386   6.3386   6.3597   6.3597   6.3718   6.3718
     6.4556   6.4556   6.4570   6.4571   6.5074   6.5074   6.5447   6.5447
     6.5634   6.5635   6.5728   6.5728   6.6246   6.6246   6.6862   6.6863
     6.7218   6.7218   6.7410   6.7410   6.7570   6.7570   6.8460   6.8460
     6.8827   6.8827   6.9226   6.9227   6.9751   6.9751   7.0132   7.0133
     7.0477   7.0477   7.0791   7.0791   7.0878   7.0878   7.1212   7.1213
     7.1476   7.1476   7.2159   7.2159   7.2497   7.2497   7.2694   7.2694
     7.2787   7.2787   7.3207   7.3207   7.4039   7.4039   7.4259   7.4259
     7.4712   7.4712   7.5390   7.5390   7.5871   7.5871   7.6422   7.6422
     7.6500   7.6501   7.6845   7.6845   7.7000   7.7001   7.7504   7.7504
     7.7766   7.7766   7.8105   7.8105   7.8388   7.8388   7.9052   7.9053
     7.9438   7.9438   8.0068   8.0068   8.0113   8.0113   8.0141   8.0141
     8.0540   8.0540   8.1526   8.1526   8.2045   8.2045   8.2139   8.2139
     8.2231   8.2231   8.2817   8.2817   8.3093   8.3093   8.3107   8.3107
     8.3813   8.3813   8.4429   8.4429   8.4516   8.4517   8.4795   8.4795
     8.4795   8.4796   8.5365   8.5365   8.5482   8.5482   8.5749   8.5750
     8.6238   8.6238   8.6487   8.6487

     the Fermi energy is    -2.9145 ev

     Writing output data file V9_m1.save/

     init_run     :     23.05s CPU     23.62s WALL (       1 calls)
     electrons    :  10943.67s CPU  11053.66s WALL (       1 calls)

     Called by init_run:
     wfcinit      :      0.00s CPU      0.01s WALL (       1 calls)
     potinit      :      1.36s CPU      1.49s WALL (       1 calls)
     hinit0       :     17.72s CPU     17.83s WALL (       1 calls)

     Called by electrons:
     c_bands      :  10943.66s CPU  11053.63s WALL (       1 calls)
     v_of_rho     :      1.05s CPU      1.11s WALL (       1 calls)
     newd         :      1.11s CPU      1.38s WALL (       1 calls)

     Called by c_bands:
     init_us_2    :      1.42s CPU      1.58s WALL (      26 calls)
     cegterg      :  10679.86s CPU  10777.23s WALL (      73 calls)

     Called by sum_band:

     Called by *egterg:
     h_psi        :   3762.28s CPU   3808.57s WALL (    1169 calls)
     s_psi        :    467.04s CPU    469.87s WALL (    1169 calls)
     g_psi        :     16.87s CPU     16.94s WALL (    1070 calls)
     cdiaghg      :   3105.59s CPU   3118.02s WALL (    1096 calls)

     Called by h_psi:
     h_psi:pot    :   3744.74s CPU   3785.23s WALL (    1169 calls)
     h_psi:calbec :    441.82s CPU    446.66s WALL (    1169 calls)
     vloc_psi     :   2837.93s CPU   2871.04s WALL (    1169 calls)
     add_vuspsi   :    464.97s CPU    467.50s WALL (    1169 calls)

     General routines
     calbec       :    441.81s CPU    446.62s WALL (    1169 calls)
     fft          :      0.98s CPU      1.06s WALL (      14 calls)
     ffts         :      0.01s CPU      0.01s WALL (       1 calls)
     fftw         :   2372.95s CPU   2400.02s WALL (  555418 calls)
     interpolate  :      0.08s CPU      0.08s WALL (       1 calls)
     davcio       :      0.00s CPU      9.37s WALL (      52 calls)

     Parallel routines
     fft_scatt_xy :    362.82s CPU    366.59s WALL (  555433 calls)
     fft_scatt_yz :    741.95s CPU    752.09s WALL (  555433 calls)

     PWSCF        :     3h 3m CPU        3h 3m WALL

      11h

   This run was terminated on:  22: 3:12  21Apr2021            

=------------------------------------------------------------------------------=
   JOB DONE.
=------------------------------------------------------------------------------=
