
     Program PWSCF v.6.3 starts on 20Apr2021 at 15:35:16 

     This program is part of the open-source Quantum ESPRESSO suite
     for quantum simulation of materials; please cite
         "P. Giannozzi et al., J. Phys.:Condens. Matter 21 395502 (2009);
         "P. Giannozzi et al., J. Phys.:Condens. Matter 29 465901 (2017);
          URL http://www.quantum-espresso.org", 
     in publications or presentations arising from this work. More details at
     http://www.quantum-espresso.org/quote

     Parallel version (MPI), running on    16 processors
     R & G space division:  proc/nbgrp/npool/nimage =      16
     Waiting for input...
     Reading input from standard input
     Message from routine read_cards :
     DEPRECATED: no units specified in CELL_PARAMETERS card

     Current dimensions of program PWSCF are:
     Max number of different atomic species (ntypx) = 10
     Max number of k-points (npk) =  40000
     Max angular momentum in pseudopotentials (lmaxx) =  3

     Atomic positions and unit cell read from directory:
     /home/zfwang/scratch/GNRDATASET/AGNR/V9_9/V9_9.save/


     Subspace diagonalization in iterative solution of the eigenvalue problem:
     a serial algorithm will be used


     Parallelization info
     --------------------
     sticks:   dense  smooth     PW     G-vecs:    dense   smooth      PW
     Min        2497     832    214               407725    78465   10232
     Max        2498     833    215               407728    78467   10235
     Sum       39953   13323   3431              6523617  1255459  163725



     bravais-lattice index     =            0
     lattice parameter (alat)  =       1.8897  a.u.
     unit-cell volume          =   36737.4077 (a.u.)^3
     number of atoms/cell      =          108
     number of atomic types    =            2
     number of electrons       =       360.00
     number of Kohn-Sham states=          500
     kinetic-energy cutoff     =      40.0000  Ry
     charge density cutoff     =     480.0000  Ry
     Exchange-correlation      = PBE ( 1  4  3  4 0 0)

     celldm(1)=  18.897261  celldm(2)=   2.931000  celldm(3)=   1.857360
     celldm(4)=   0.000000  celldm(5)=   0.000000  celldm(6)=   0.000000

     crystal axes: (cart. coord. in units of alat)
               a(1) = (  10.000000   0.000000   0.000000 )  
               a(2) = (   0.000000  29.310000   0.000000 )  
               a(3) = (   0.000000   0.000000  18.573600 )  

     reciprocal axes: (cart. coord. in units 2 pi/alat)
               b(1) = (  0.100000  0.000000  0.000000 )  
               b(2) = (  0.000000  0.034118  0.000000 )  
               b(3) = (  0.000000  0.000000  0.053840 )  


     PseudoPot. # 1 for C  read from file:
     /home/zfwang/hp_home/MySoftware/qe-6.3/pseudo/C.pbe-n-rrkjus_psl.0.1.UPF
     MD5 check sum: fff530ed632a789b3b184014e67dd7f1
     Pseudo is Ultrasoft + core correction, Zval =  4.0
     Generated using "atomic" code by A. Dal Corso v.5.0.2 svn rev. 9415
     Using radial grid of 1073 points,  4 beta functions with: 
                l(1) =   0
                l(2) =   0
                l(3) =   1
                l(4) =   1
     Q(r) pseudized with 0 coefficients 


     PseudoPot. # 2 for H  read from file:
     /home/zfwang/hp_home/MySoftware/qe-6.3/pseudo/H.pbe-rrkjus_psl.0.1.UPF
     MD5 check sum: e164a6907b691c6980f16942be34de84
     Pseudo is Ultrasoft, Zval =  1.0
     Generated using "atomic" code by A. Dal Corso v.5.0.2 svn rev. 9415
     Using radial grid of  929 points,  2 beta functions with: 
                l(1) =   0
                l(2) =   0
     Q(r) pseudized with 0 coefficients 


     atomic species   valence    mass     pseudopotential
        C              4.00    12.01070     C ( 1.00)
        H              1.00     1.00794     H ( 1.00)

     No symmetry found



   Cartesian axes

     site n.     atom                  positions (alat units)
         1           C   tau(   1) = (   5.0000004   6.1446026   2.8163135  )
         2           C   tau(   2) = (   5.0000002   6.1669125  17.1401123  )
         3           C   tau(   3) = (   5.0000007   7.3402536   3.5121133  )
         4           C   tau(   4) = (   5.0000003   7.3752722  17.8503805  )
         5           C   tau(   5) = (   4.9999999   6.1669544   1.4335514  )
         6           C   tau(   6) = (   4.9999999   6.1446501  15.7572078  )
         7           C   tau(   7) = (   5.0000003   8.5767045   2.8449937  )
         8           C   tau(   8) = (   5.0000005   8.6145778  17.1502910  )
         9           C   tau(   9) = (   4.9999998   9.8180814   3.5881466  )
        10           C   tau(  10) = (   5.0000032   9.7856861  13.5814594  )
        11           C   tau(  11) = (   5.0000003   9.8787363  17.8573729  )
        12           C   tau(  12) = (   5.0000002   7.3752261   0.7232036  )
        13           C   tau(  13) = (   5.0000001   7.3402156  15.0615504  )
        14           C   tau(  14) = (   5.0000002   8.6146048   1.4233474  )
        15           C   tau(  15) = (   5.0000008   8.5767028  15.7285675  )
        16           C   tau(  16) = (   4.9999999  11.0719573   2.9188738  )
        17           C   tau(  17) = (   5.0000024  10.9243554  12.8170087  )
        18           C   tau(  18) = (   4.9999999  11.1137079  17.1214072  )
        19           C   tau(  19) = (   5.0000000  12.2685781   3.7197593  )
        20           C   tau(  20) = (   5.0000001  12.2020314  13.3876972  )
        21           C   tau(  21) = (   4.9999994  12.3594406  17.8356827  )
        22           C   tau(  22) = (   5.0000002   9.8787291   0.7162220  )
        23           C   tau(  23) = (   4.9999991   9.7857448   4.9921573  )
        24           C   tau(  24) = (   5.0000013   9.8181042  14.9854667  )
        25           C   tau(  25) = (   4.9999999  11.1137040   1.4521994  )
        26           C   tau(  26) = (   4.9999992  10.9243058   5.7565603  )
        27           C   tau(  27) = (   5.0000001  11.0719353  15.6547208  )
        28           C   tau(  28) = (   5.0000000  13.5272118   3.0221003  )
        29           C   tau(  29) = (   4.9999998  13.3355539   7.5550569  )
        30           C   tau(  30) = (   4.9999992  13.3810051  12.4881309  )
        31           C   tau(  31) = (   4.9999989  13.5885423  17.0474054  )
        32           C   tau(  32) = (   5.0000002  14.6858345   3.8844823  )
        33           C   tau(  33) = (   4.9999997  14.4467864   8.4642303  )
        34           C   tau(  34) = (   4.9999985  14.6241623  13.1712589  )
        35           C   tau(  35) = (   4.9999987  14.8632209  17.7510133  )
        36           C   tau(  36) = (   4.9999996  12.3594435   0.7379172  )
        37           C   tau(  37) = (   4.9999998  12.2020447   5.1859056  )
        38           C   tau(  38) = (   4.9999995  12.2685889  14.8538364  )
        39           C   tau(  39) = (   4.9999997  13.5885429   1.5261949  )
        40           C   tau(  40) = (   4.9999999  13.3810126   6.0854680  )
        41           C   tau(  41) = (   4.9999994  13.3355561  11.0185431  )
        42           C   tau(  42) = (   4.9999987  13.5272138  15.5515010  )
        43           C   tau(  43) = (   5.0000004  15.9289784   3.2013644  )
        44           C   tau(  44) = (   5.0000001  15.7214560   7.7606155  )
        45           C   tau(  45) = (   4.9999983  15.7827852  12.3088786  )
        46           C   tau(  46) = (   4.9999979  15.9744383  16.8418321  )
        47           C   tau(  47) = (   5.0000010  17.1079723   4.1009169  )
        48           C   tau(  48) = (   5.0000000  16.9505626   8.5488916  )
        49           C   tau(  49) = (   4.9999983  17.0413798  13.0065473  )
        50           C   tau(  50) = (   4.9999994  14.8632177   0.8225869  )
        51           C   tau(  51) = (   5.0000003  14.6241526   5.4023448  )
        52           C   tau(  52) = (   4.9999993  14.4467846  10.1093712  )
        53           C   tau(  53) = (   4.9999983  14.6858234  14.6891159  )
        54           C   tau(  54) = (   4.9999999  15.9744407   1.7317714  )
        55           C   tau(  55) = (   5.0000004  15.7827850   6.2647214  )
        56           C   tau(  56) = (   4.9999990  15.7214541  10.8129864  )
        57           C   tau(  57) = (   4.9999979  15.9289869  15.3722381  )
        58           C   tau(  58) = (   5.0000016  18.3856203   3.5302411  )
        59           C   tau(  59) = (   5.0000005  18.1962932   7.8346124  )
        60           C   tau(  60) = (   4.9999990  18.2381169  12.2056862  )
        61           C   tau(  61) = (   5.0000018  19.5243345   4.2946685  )
        62           C   tau(  62) = (   5.0000004  19.4312910   8.5705723  )
        63           C   tau(  63) = (   4.9999996  19.4918262  12.8748639  )
        64           C   tau(  64) = (   5.0000008  17.0414028   5.5670624  )
        65           C   tau(  65) = (   4.9999994  16.9505693  10.0247111  )
        66           C   tau(  66) = (   4.9999981  17.1080018  14.4726820  )
        67           C   tau(  67) = (   5.0000010  18.2380724   6.3679295  )
        68           C   tau(  68) = (   4.9999994  18.1962860  10.7389760  )
        69           C   tau(  69) = (   4.9999988  18.3855190  15.0434207  )
        70           C   tau(  70) = (   5.0000005  20.6953716   7.8634980  )
        71           C   tau(  71) = (   5.0000000  20.7333663  12.1319357  )
        72           C   tau(  72) = (   5.0000000  21.9348187   8.5635592  )
        73           C   tau(  73) = (   5.0000004  21.9697535  12.7987232  )
        74           C   tau(  74) = (   5.0000014  19.4918743   5.6987074  )
        75           C   tau(  75) = (   4.9999999  19.4312764  10.0030415  )
        76           C   tau(  76) = (   4.9999997  19.5244531  14.2789042  )
        77           C   tau(  77) = (   5.0000010  20.7333578   6.4417521  )
        78           C   tau(  78) = (   5.0000000  20.6954239  10.7100230  )
        79           C   tau(  79) = (   4.9999989  23.1430220   7.8533532  )
        80           C   tau(  80) = (   5.0000008  23.1653615  12.1033626  )
        81           C   tau(  81) = (   5.0000006  21.9696840   5.7747456  )
        82           C   tau(  82) = (   5.0000003  21.9347320  10.0100792  )
        83           C   tau(  83) = (   4.9999994  23.1654521   6.4704082  )
        84           C   tau(  84) = (   5.0000008  23.1431008  10.7201128  )
        85           H   tau(  85) = (   5.0000004   5.1939013   3.3504749  )
        86           H   tau(  86) = (   5.0000003   5.2198379  17.6711393  )
        87           H   tau(  87) = (   5.0000014   7.2999223   4.5970094  )
        88           H   tau(  88) = (   4.9999995   5.2198175   0.9024489  )
        89           H   tau(  89) = (   4.9999995   5.1938979  15.2231300  )
        90           H   tau(  90) = (   5.0000058   8.8333810  13.0602437  )
        91           H   tau(  91) = (   4.9999996   7.2999225  13.9765693  )
        92           H   tau(  92) = (   5.0000042  10.8143872  11.7341952  )
        93           H   tau(  93) = (   4.9999983   8.8333662   5.5133630  )
        94           H   tau(  94) = (   4.9999986  10.8143885   6.8394158  )
        95           H   tau(  95) = (   4.9999995  12.3392899   7.9983105  )
        96           H   tau(  96) = (   4.9999997  12.3392893  10.5752904  )
        97           H   tau(  97) = (   4.9999972  16.9707132  17.2850556  )
        98           H   tau(  98) = (   4.9999997  16.9707124   1.2885453  )
        99           H   tau(  99) = (   5.0000021  18.4956152   2.4474269  )
       100           H   tau( 100) = (   5.0000023  20.4766092   3.7734784  )
       101           H   tau( 101) = (   4.9999989  18.4956181  16.1261550  )
       102           H   tau( 102) = (   5.0000004  22.0100892  13.8838674  )
       103           H   tau( 103) = (   5.0000006  20.4765780  14.8001106  )
       104           H   tau( 104) = (   4.9999976  24.0901796   8.3843483  )
       105           H   tau( 105) = (   5.0000011  24.1160745  12.6372360  )
       106           H   tau( 106) = (   5.0000012  22.0100905   4.6897808  )
       107           H   tau( 107) = (   4.9999987  24.1160712   5.9363563  )
       108           H   tau( 108) = (   5.0000010  24.0901390  10.1892799  )

     number of k points=    26  Marzari-Vanderbilt smearing, width (Ry)=  0.0100
                       cart. coord. in units 2pi/alat
        k(    1) = (   0.0000000   0.0000000   0.0000000), wk =   0.0400000
        k(    2) = (   0.0000000   0.0000000   0.0010768), wk =   0.0800000
        k(    3) = (   0.0000000   0.0000000   0.0021536), wk =   0.0800000
        k(    4) = (   0.0000000   0.0000000   0.0032304), wk =   0.0800000
        k(    5) = (   0.0000000   0.0000000   0.0043072), wk =   0.0800000
        k(    6) = (   0.0000000   0.0000000   0.0053840), wk =   0.0800000
        k(    7) = (   0.0000000   0.0000000   0.0064608), wk =   0.0800000
        k(    8) = (   0.0000000   0.0000000   0.0075376), wk =   0.0800000
        k(    9) = (   0.0000000   0.0000000   0.0086144), wk =   0.0800000
        k(   10) = (   0.0000000   0.0000000   0.0096912), wk =   0.0800000
        k(   11) = (   0.0000000   0.0000000   0.0107680), wk =   0.0800000
        k(   12) = (   0.0000000   0.0000000   0.0118448), wk =   0.0800000
        k(   13) = (   0.0000000   0.0000000   0.0129216), wk =   0.0800000
        k(   14) = (   0.0000000   0.0000000   0.0139984), wk =   0.0800000
        k(   15) = (   0.0000000   0.0000000   0.0150752), wk =   0.0800000
        k(   16) = (   0.0000000   0.0000000   0.0161520), wk =   0.0800000
        k(   17) = (   0.0000000   0.0000000   0.0172288), wk =   0.0800000
        k(   18) = (   0.0000000   0.0000000   0.0183056), wk =   0.0800000
        k(   19) = (   0.0000000   0.0000000   0.0193823), wk =   0.0800000
        k(   20) = (   0.0000000   0.0000000   0.0204591), wk =   0.0800000
        k(   21) = (   0.0000000   0.0000000   0.0215359), wk =   0.0800000
        k(   22) = (   0.0000000   0.0000000   0.0226127), wk =   0.0800000
        k(   23) = (   0.0000000   0.0000000   0.0236895), wk =   0.0800000
        k(   24) = (   0.0000000   0.0000000   0.0247663), wk =   0.0800000
        k(   25) = (   0.0000000   0.0000000   0.0258431), wk =   0.0800000
        k(   26) = (   0.0000000   0.0000000  -0.0269199), wk =   0.0400000

     Dense  grid:  6523617 G-vectors     FFT dimensions: ( 135, 400, 250)

     Smooth grid:  1255459 G-vectors     FFT dimensions: (  80, 225, 144)

     Estimated max dynamical RAM per process >       1.36 GB

     Estimated total dynamical RAM >      21.81 GB

     The potential is recalculated from file :
     /home/zfwang/scratch/GNRDATASET/AGNR/V9_9/V9_9.save/charge-density.dat


     negative rho (up, down):  3.125E-04 0.000E+00
     Starting wfcs are  360 randomized atomic wfcs +  140 random wfcs

     Band Structure Calculation
     Davidson diagonalization with overlap

     ethr =  2.78E-09,  avg # of iterations = 40.5

     total cpu time spent up to now is    11794.3 secs

     End of band structure calculation

          k = 0.0000 0.0000 0.0000 (156795 PWs)   bands (ev):

   -21.2076 -21.1349 -20.8912 -20.7244 -20.6289 -20.4243 -20.2311 -20.0668
   -19.9838 -19.8170 -19.7411 -19.6014 -19.4681 -19.3581 -18.9579 -18.9124
   -18.8512 -18.5615 -18.3713 -18.3623 -18.3206 -18.2291 -18.0253 -17.8607
   -17.7813 -17.6841 -17.4602 -17.3111 -17.0742 -17.0698 -16.9842 -16.9527
   -16.7726 -16.7676 -16.5904 -16.4805 -16.2089 -16.2079 -16.1036 -16.0475
   -15.6940 -15.3792 -14.9019 -14.8919 -14.7982 -14.6518 -14.5988 -14.5501
   -14.2274 -14.2064 -14.1974 -14.1403 -14.0124 -13.8319 -13.7512 -13.6929
   -13.4435 -13.1927 -13.1204 -12.9517 -12.9355 -12.8263 -12.6246 -12.3855
   -12.2977 -12.2251 -12.0167 -11.9849 -11.9754 -11.6560 -11.6256 -11.3797
   -11.3701 -11.2595 -11.1640 -11.0702 -11.0341 -10.9420 -10.7415 -10.7316
   -10.6239 -10.5648 -10.5034 -10.3231 -10.1169 -10.0533 -10.0233  -9.9683
    -9.8934  -9.8898  -9.6470  -9.5218  -9.5214  -9.4028  -9.3318  -9.3281
    -9.2911  -9.2791  -9.2190  -9.2017  -9.0852  -9.0733  -9.0471  -8.9750
    -8.9705  -8.9381  -8.8965  -8.8047  -8.7682  -8.7175  -8.6959  -8.6212
    -8.5835  -8.5260  -8.4941  -8.4551  -8.4412  -8.3178  -8.2357  -8.1811
    -8.1635  -8.0457  -8.0298  -7.9423  -7.9184  -7.8778  -7.7872  -7.7812
    -7.6554  -7.6540  -7.6297  -7.6149  -7.5437  -7.3450  -7.3422  -7.3265
    -7.3244  -7.3199  -7.1657  -7.1520  -7.0997  -7.0150  -6.9362  -6.8345
    -6.8206  -6.7488  -6.7217  -6.7140  -6.6207  -6.5092  -6.3052  -6.2466
    -6.1298  -6.0740  -6.0717  -6.0702  -6.0539  -5.9843  -5.9172  -5.8456
    -5.6496  -5.6166  -5.5206  -5.4075  -5.1962  -5.1618  -5.0008  -4.8895
    -4.8396  -4.7426  -4.6314  -4.5184  -4.4867  -4.4174  -4.1554  -3.9082
    -3.7747  -3.7726  -3.3911  -3.0244  -1.7747  -1.4257  -1.3663  -1.0857
    -0.8067  -0.8001  -0.5710  -0.4953  -0.4244  -0.3334  -0.1915  -0.0511
    -0.0453   0.0016   0.2926   0.4719   0.5288   0.6840   0.6936   0.7270
     0.7385   0.7910   0.9392   1.0088   1.1080   1.1633   1.1666   1.3362
     1.4491   1.4571   1.4581   1.4611   1.5525   1.5566   1.6480   1.7382
     1.7880   1.8046   1.8243   1.8511   1.9339   2.0547   2.1173   2.2074
     2.2255   2.2643   2.2668   2.3341   2.3981   2.4735   2.4873   2.5049
     2.5213   2.5677   2.5697   2.5822   2.5825   2.5912   2.6123   2.6219
     2.6941   2.7097   2.7816   2.8324   2.8761   2.8774   2.8856   2.9023
     2.9124   2.9669   2.9726   3.0107   3.0540   3.0810   3.0841   3.0947
     3.0964   3.1570   3.2617   3.2947   3.3002   3.3267   3.3436   3.3515
     3.3920   3.4373   3.4454   3.4666   3.4825   3.5041   3.5547   3.5639
     3.5649   3.6993   3.7304   3.7553   3.7797   3.8001   3.8457   3.8558
     3.8745   3.8857   3.8901   3.8944   3.9896   4.0039   4.0228   4.0276
     4.0367   4.0423   4.0584   4.0711   4.1372   4.1381   4.1765   4.1777
     4.2420   4.2689   4.2949   4.3014   4.3132   4.3188   4.3368   4.3691
     4.3903   4.4044   4.4452   4.4592   4.5037   4.5536   4.5587   4.5962
     4.5962   4.6366   4.6397   4.6492   4.6544   4.6556   4.7054   4.7234
     4.7883   4.8018   4.8019   4.8056   4.8107   4.8480   4.8783   4.9745
     4.9847   5.0218   5.0259   5.0332   5.0482   5.0528   5.0702   5.1175
     5.1199   5.1292   5.1502   5.1634   5.1751   5.2874   5.3091   5.3229
     5.3241   5.3248   5.3274   5.3312   5.3425   5.3624   5.4201   5.4341
     5.4830   5.4836   5.4970   5.5081   5.5344   5.5372   5.5387   5.5533
     5.5648   5.6107   5.6156   5.6480   5.6488   5.6737   5.6738   5.6977
     5.7001   5.7836   5.7937   5.8001   5.8406   5.8445   5.8599   5.9123
     5.9415   5.9444   5.9597   5.9934   6.0115   6.0235   6.0458   6.0461
     6.0468   6.0703   6.0906   6.1133   6.1273   6.1296   6.1488   6.1978
     6.2172   6.2430   6.2745   6.3083   6.3118   6.3206   6.3242   6.3490
     6.3652   6.3781   6.4485   6.4497   6.4647   6.4666   6.4921   6.5143
     6.5284   6.5293   6.5341   6.5363   6.5644   6.5652   6.5700   6.6112
     6.6329   6.6535   6.6557   6.7055   6.7194   6.7225   6.7406   6.7810
     6.7863   6.7904   6.8176   6.8230   6.8482   6.8717   6.9249   6.9301
     6.9311   6.9369   6.9499   6.9501   6.9565   6.9804   6.9804   7.0106
     7.0672   7.0916   7.1104   7.1325   7.1340   7.1477   7.1478   7.1695
     7.1814   7.2183   7.2221   7.2528   7.2596   7.2656   7.3181   7.3181
     7.3939   7.4023   7.4028   7.4364   7.4465   7.4793   7.4945   7.5053
     7.5200   7.5435   7.5572   7.5580   7.5631   7.5863   7.5907   7.6058
     7.6126   7.6261   7.6326   7.6486   7.6529   7.6562   7.6652   7.7056
     7.7330   7.7722   7.7836   7.8053   7.8078   7.8147   7.8418   7.8430
     7.8632   7.8796   7.9103   7.9139   7.9537   7.9602   7.9885   8.0044
     8.0331   8.0475   8.0620   8.0977

          k = 0.0000 0.0000 0.0011 (156779 PWs)   bands (ev):

   -21.2076 -21.1350 -20.8911 -20.7248 -20.6285 -20.4245 -20.2309 -20.0666
   -19.9842 -19.8174 -19.7408 -19.6008 -19.4685 -19.3581 -18.9578 -18.9129
   -18.8504 -18.5618 -18.3714 -18.3620 -18.3213 -18.2283 -18.0265 -17.8607
   -17.7805 -17.6840 -17.4599 -17.3112 -17.0739 -17.0702 -16.9874 -16.9496
   -16.7731 -16.7676 -16.5899 -16.4805 -16.2089 -16.2080 -16.1037 -16.0478
   -15.6937 -15.3794 -14.9013 -14.8918 -14.7984 -14.6512 -14.5997 -14.5498
   -14.2275 -14.2101 -14.1941 -14.1391 -14.0122 -13.8323 -13.7516 -13.6927
   -13.4444 -13.1946 -13.1193 -12.9545 -12.9356 -12.8216 -12.6254 -12.3847
   -12.2973 -12.2248 -12.0226 -11.9788 -11.9756 -11.6577 -11.6243 -11.3806
   -11.3688 -11.2597 -11.1663 -11.0733 -11.0298 -10.9428 -10.7416 -10.7309
   -10.6238 -10.5643 -10.5034 -10.3233 -10.1178 -10.0539 -10.0240  -9.9670
    -9.9081  -9.8730  -9.6479  -9.5295  -9.5133  -9.4038  -9.3317  -9.3290
    -9.2904  -9.2782  -9.2192  -9.2034  -9.0852  -9.0744  -9.0458  -8.9748
    -8.9683  -8.9406  -8.8944  -8.8050  -8.7686  -8.7175  -8.6955  -8.6208
    -8.5840  -8.5273  -8.4925  -8.4549  -8.4413  -8.3182  -8.2355  -8.1812
    -8.1636  -8.0453  -8.0307  -7.9428  -7.9176  -7.8776  -7.7870  -7.7814
    -7.6557  -7.6552  -7.6289  -7.6159  -7.5422  -7.3453  -7.3425  -7.3352
    -7.3242  -7.3117  -7.1696  -7.1481  -7.1000  -7.0142  -6.9362  -6.8344
    -6.8205  -6.7499  -6.7219  -6.7125  -6.6207  -6.5087  -6.3062  -6.2459
    -6.1299  -6.0847  -6.0702  -6.0611  -6.0548  -5.9831  -5.9181  -5.8457
    -5.6497  -5.6161  -5.5205  -5.4073  -5.1964  -5.1614  -5.0012  -4.8901
    -4.8389  -4.7424  -4.6314  -4.5187  -4.4866  -4.4173  -4.1553  -3.9091
    -3.7739  -3.7726  -3.3910  -3.0249  -1.7742  -1.4250  -1.3666  -1.0857
    -0.8067  -0.8001  -0.5711  -0.4961  -0.4245  -0.3325  -0.1922  -0.0513
    -0.0446   0.0012   0.2915   0.4700   0.5290   0.6842   0.6936   0.7271
     0.7392   0.7942   0.9390   1.0075   1.1092   1.1559   1.1742   1.3353
     1.4439   1.4461   1.4655   1.4710   1.5523   1.5566   1.6476   1.7366
     1.7888   1.8020   1.8261   1.8539   1.9335   2.0547   2.1168   2.2057
     2.2257   2.2644   2.2687   2.3344   2.3974   2.4711   2.4866   2.5047
     2.5206   2.5642   2.5690   2.5811   2.5815   2.5921   2.6164   2.6238
     2.6933   2.7092   2.7792   2.8334   2.8691   2.8852   2.8867   2.9010
     2.9146   2.9671   2.9734   3.0120   3.0552   3.0645   3.0949   3.0975
     3.1009   3.1569   3.2583   3.2898   3.3035   3.3300   3.3317   3.3650
     3.3923   3.4371   3.4457   3.4641   3.4797   3.5041   3.5580   3.5614
     3.5707   3.6940   3.7357   3.7531   3.7765   3.8011   3.8470   3.8563
     3.8747   3.8866   3.8903   3.8931   3.9842   3.9991   4.0180   4.0236
     4.0392   4.0473   4.0649   4.0719   4.1364   4.1427   4.1792   4.1795
     4.2354   4.2696   4.2898   4.3009   4.3131   4.3251   4.3275   4.3799
     4.3845   4.4161   4.4405   4.4587   4.5050   4.5531   4.5591   4.5847
     4.5939   4.6348   4.6366   4.6550   4.6574   4.6672   4.7041   4.7231
     4.7744   4.7848   4.7981   4.8140   4.8339   4.8481   4.8790   4.9712
     4.9759   5.0144   5.0334   5.0395   5.0479   5.0518   5.0761   5.1175
     5.1245   5.1255   5.1506   5.1553   5.1854   5.2830   5.3084   5.3221
     5.3232   5.3237   5.3305   5.3311   5.3415   5.3658   5.4245   5.4310
     5.4741   5.4821   5.4940   5.5044   5.5335   5.5376   5.5412   5.5555
     5.5731   5.6116   5.6152   5.6439   5.6483   5.6731   5.6774   5.6998
     5.7040   5.7792   5.7958   5.8072   5.8414   5.8459   5.8593   5.9062
     5.9394   5.9510   5.9552   5.9995   5.9996   6.0051   6.0422   6.0451
     6.0492   6.0909   6.0936   6.1165   6.1298   6.1300   6.1477   6.2001
     6.2164   6.2405   6.2706   6.2869   6.3071   6.3279   6.3289   6.3543
     6.3753   6.3771   6.4347   6.4637   6.4651   6.4653   6.4927   6.5134
     6.5290   6.5304   6.5359   6.5371   6.5562   6.5653   6.5802   6.6092
     6.6257   6.6519   6.6632   6.7033   6.7172   6.7198   6.7365   6.7851
     6.7877   6.7881   6.8199   6.8290   6.8526   6.8698   6.9200   6.9261
     6.9304   6.9323   6.9497   6.9503   6.9619   6.9815   6.9839   7.0086
     7.0737   7.0921   7.1151   7.1205   7.1297   7.1450   7.1622   7.1649
     7.1833   7.2183   7.2268   7.2551   7.2608   7.2676   7.3183   7.3196
     7.3787   7.4000   7.4182   7.4341   7.4426   7.4806   7.4902   7.5046
     7.5209   7.5428   7.5464   7.5605   7.5615   7.5813   7.5834   7.6031
     7.6176   7.6223   7.6277   7.6335   7.6613   7.6656   7.6852   7.7078
     7.7362   7.7721   7.7742   7.7979   7.8092   7.8177   7.8412   7.8430
     7.8642   7.8860   7.9115   7.9194   7.9538   7.9592   7.9899   8.0005
     8.0393   8.0495   8.0568   8.0953

          k = 0.0000 0.0000 0.0022 (156793 PWs)   bands (ev):

   -21.2074 -21.1353 -20.8906 -20.7258 -20.6274 -20.4252 -20.2304 -20.0660
   -19.9855 -19.8186 -19.7399 -19.5990 -19.4695 -19.3581 -18.9577 -18.9144
   -18.8483 -18.5628 -18.3717 -18.3612 -18.3233 -18.2257 -18.0301 -17.8606
   -17.7780 -17.6836 -17.4589 -17.3113 -17.0727 -17.0714 -16.9948 -16.9427
   -16.7744 -16.7676 -16.5885 -16.4804 -16.2091 -16.2084 -16.1042 -16.0488
   -15.6928 -15.3802 -14.8995 -14.8913 -14.7991 -14.6493 -14.6022 -14.5489
   -14.2278 -14.2163 -14.1892 -14.1355 -14.0116 -13.8336 -13.7527 -13.6920
   -13.4472 -13.2001 -13.1163 -12.9617 -12.9359 -12.8091 -12.6274 -12.3826
   -12.2963 -12.2237 -12.0343 -11.9762 -11.9663 -11.6623 -11.6211 -11.3825
   -11.3657 -11.2603 -11.1729 -11.0801 -11.0198 -10.9450 -10.7418 -10.7287
   -10.6234 -10.5627 -10.5034 -10.3239 -10.1206 -10.0559 -10.0258  -9.9634
    -9.9215  -9.8532  -9.6505  -9.5371  -9.5045  -9.4069  -9.3315  -9.3314
    -9.2884  -9.2758  -9.2197  -9.2083  -9.0852  -9.0775  -9.0423  -8.9742
    -8.9623  -8.9469  -8.8892  -8.8059  -8.7696  -8.7174  -8.6943  -8.6198
    -8.5853  -8.5306  -8.4885  -8.4544  -8.4416  -8.3193  -8.2347  -8.1815
    -8.1639  -8.0440  -8.0335  -7.9444  -7.9152  -7.8772  -7.7864  -7.7818
    -7.6605  -7.6546  -7.6266  -7.6190  -7.5380  -7.3466  -7.3458  -7.3433
    -7.3238  -7.3016  -7.1768  -7.1410  -7.1008  -7.0120  -6.9362  -6.8341
    -6.8201  -6.7528  -6.7226  -6.7085  -6.6208  -6.5074  -6.3089  -6.2439
    -6.1303  -6.0966  -6.0700  -6.0574  -6.0496  -5.9796  -5.9208  -5.8460
    -5.6503  -5.6147  -5.5201  -5.4069  -5.1968  -5.1602  -5.0026  -4.8918
    -4.8369  -4.7420  -4.6315  -4.5196  -4.4863  -4.4170  -4.1549  -3.9118
    -3.7724  -3.7717  -3.3907  -3.0263  -1.7728  -1.4232  -1.3675  -1.0856
    -0.8067  -0.8001  -0.5713  -0.4985  -0.4249  -0.3296  -0.1944  -0.0517
    -0.0427   0.0003   0.2880   0.4646   0.5299   0.6846   0.6933   0.7274
     0.7415   0.8035   0.9387   1.0040   1.1129   1.1476   1.1835   1.3325
     1.4299   1.4415   1.4740   1.4840   1.5516   1.5569   1.6464   1.7321
     1.7914   1.7956   1.8311   1.8609   1.9324   2.0547   2.1153   2.2013
     2.2262   2.2647   2.2740   2.3352   2.3952   2.4644   2.4845   2.5040
     2.5189   2.5555   2.5670   2.5785   2.5796   2.5948   2.6260   2.6292
     2.6912   2.7077   2.7728   2.8362   2.8624   2.8901   2.8941   2.8974
     2.9203   2.9679   2.9760   3.0154   3.0471   3.0587   3.0954   3.1010
     3.1193   3.1567   3.2501   3.2796   3.3111   3.3132   3.3419   3.3815
     3.3930   3.4366   3.4464   3.4576   3.4724   3.5039   3.5590   3.5664
     3.5820   3.6829   3.7466   3.7471   3.7685   3.8026   3.8502   3.8578
     3.8752   3.8889   3.8889   3.8907   3.9724   3.9884   4.0085   4.0142
     4.0425   4.0580   4.0738   4.0800   4.1328   4.1570   4.1846   4.1859
     4.2208   4.2715   4.2742   4.2903   4.3140   4.3270   4.3412   4.3663
     4.4089   4.4277   4.4337   4.4571   4.5090   4.5523   4.5559   4.5622
     4.5920   4.6309   4.6366   4.6559   4.6691   4.6899   4.7010   4.7222
     4.7463   4.7777   4.7886   4.8212   4.8480   4.8645   4.8809   4.9581
     4.9618   5.0067   5.0337   5.0462   5.0551   5.0574   5.0868   5.1141
     5.1173   5.1367   5.1472   5.1534   5.2014   5.2707   5.3073   5.3175
     5.3203   5.3236   5.3283   5.3371   5.3423   5.3753   5.4220   5.4352
     5.4545   5.4795   5.4864   5.4936   5.5319   5.5366   5.5492   5.5611
     5.5931   5.6123   5.6134   5.6362   5.6463   5.6732   5.6879   5.7033
     5.7114   5.7769   5.8014   5.8188   5.8437   5.8503   5.8575   5.8963
     5.9327   5.9478   5.9614   5.9629   5.9887   6.0116   6.0329   6.0449
     6.0539   6.0920   6.1237   6.1298   6.1312   6.1343   6.1465   6.2062
     6.2135   6.2316   6.2538   6.2644   6.2974   6.3344   6.3354   6.3653
     6.3731   6.3936   6.4237   6.4614   6.4625   6.4793   6.4943   6.5125
     6.5269   6.5361   6.5401   6.5421   6.5490   6.5657   6.5929   6.5992
     6.6221   6.6419   6.6777   6.6927   6.7115   6.7214   6.7247   6.7729
     6.7946   6.8032   6.8265   6.8420   6.8569   6.8711   6.9029   6.9168
     6.9276   6.9358   6.9449   6.9492   6.9633   6.9852   6.9979   7.0090
     7.0800   7.0935   7.1089   7.1206   7.1281   7.1426   7.1574   7.1799
     7.1857   7.2184   7.2383   7.2608   7.2645   7.2728   7.3190   7.3236
     7.3620   7.3923   7.4276   7.4303   7.4390   7.4809   7.4821   7.5030
     7.5201   7.5256   7.5408   7.5534   7.5628   7.5631   7.5741   7.5919
     7.6067   7.6122   7.6363   7.6491   7.6676   7.6815   7.7032   7.7151
     7.7478   7.7526   7.7725   7.7856   7.8116   7.8263   7.8388   7.8465
     7.8515   7.9077   7.9125   7.9346   7.9539   7.9560   7.9912   7.9949
     8.0451   8.0520   8.0548   8.0733

          k = 0.0000 0.0000 0.0032 (156817 PWs)   bands (ev):

   -21.2071 -21.1358 -20.8899 -20.7275 -20.6255 -20.4262 -20.2294 -20.0649
   -19.9877 -19.8206 -19.7385 -19.5961 -19.4712 -19.3581 -18.9576 -18.9165
   -18.8449 -18.5643 -18.3721 -18.3597 -18.3264 -18.2218 -18.0357 -17.8608
   -17.7740 -17.6829 -17.4574 -17.3115 -17.0734 -17.0708 -17.0040 -16.9343
   -16.7766 -16.7675 -16.5862 -16.4803 -16.2095 -16.2090 -16.1050 -16.0504
   -15.6912 -15.3815 -14.8966 -14.8905 -14.8002 -14.6463 -14.6061 -14.5478
   -14.2283 -14.2225 -14.1851 -14.1296 -14.0105 -13.8358 -13.7545 -13.6908
   -13.4517 -13.2088 -13.1120 -12.9705 -12.9364 -12.7912 -12.6308 -12.3791
   -12.2947 -12.2220 -12.0473 -11.9771 -11.9520 -11.6689 -11.6169 -11.3846
   -11.3618 -11.2612 -11.1832 -11.0878 -11.0074 -10.9485 -10.7421 -10.7252
   -10.6229 -10.5603 -10.5032 -10.3249 -10.1251 -10.0600 -10.0282  -9.9580
    -9.9311  -9.8324  -9.6546  -9.5447  -9.4952  -9.4118  -9.3349  -9.3311
    -9.2853  -9.2724  -9.2206  -9.2157  -9.0856  -9.0817  -9.0368  -8.9731
    -8.9553  -8.9531  -8.8826  -8.8073  -8.7712  -8.7172  -8.6922  -8.6180
    -8.5876  -8.5349  -8.4829  -8.4536  -8.4420  -8.3210  -8.2336  -8.1819
    -8.1644  -8.0419  -8.0378  -7.9469  -7.9115  -7.8763  -7.7855  -7.7825
    -7.6672  -7.6536  -7.6240  -7.6235  -7.5314  -7.3581  -7.3470  -7.3446
    -7.3232  -7.2922  -7.1845  -7.1334  -7.1021  -7.0082  -6.9363  -6.8335
    -6.8196  -6.7566  -6.7237  -6.7028  -6.6209  -6.5053  -6.3130  -6.2410
    -6.1308  -6.1087  -6.0696  -6.0613  -6.0384  -5.9743  -5.9251  -5.8464
    -5.6512  -5.6125  -5.5194  -5.4063  -5.1976  -5.1581  -5.0048  -4.8943
    -4.8338  -4.7413  -4.6318  -4.5211  -4.4857  -4.4165  -4.1542  -3.9161
    -3.7722  -3.7683  -3.3903  -3.0287  -1.7705  -1.4202  -1.3690  -1.0854
    -0.8066  -0.8000  -0.5716  -0.5023  -0.4255  -0.3249  -0.1980  -0.0520
    -0.0401  -0.0013   0.2823   0.4560   0.5315   0.6852   0.6930   0.7280
     0.7456   0.8181   0.9380   0.9985   1.1186   1.1396   1.1931   1.3280
     1.4155   1.4380   1.4840   1.4966   1.5504   1.5572   1.6446   1.7255
     1.7875   1.7955   1.8386   1.8701   1.9306   2.0547   2.1126   2.1955
     2.2271   2.2653   2.2814   2.3364   2.3917   2.4545   2.4805   2.5030
     2.5172   2.5441   2.5636   2.5736   2.5779   2.5986   2.6370   2.6376
     2.6879   2.7053   2.7639   2.8404   2.8568   2.8918   2.8954   2.9032
     2.9270   2.9696   2.9817   3.0203   3.0304   3.0643   3.0963   3.1069
     3.1379   3.1564   3.2398   3.2681   3.2965   3.3206   3.3533   3.3941
     3.3970   3.4367   3.4475   3.4491   3.4629   3.5037   3.5558   3.5779
     3.5975   3.6702   3.7386   3.7575   3.7591   3.8033   3.8537   3.8602
     3.8760   3.8816   3.8912   3.8916   3.9596   3.9760   3.9978   4.0031
     4.0446   4.0706   4.0761   4.0985   4.1292   4.1762   4.1923   4.1946
     4.2038   4.2591   4.2638   4.2749   4.3292   4.3310   4.3542   4.3571
     4.4093   4.4326   4.4521   4.4544   4.5152   4.5379   4.5436   4.5523
     4.5962   4.6295   4.6366   4.6547   4.6780   4.6991   4.7134   4.7200
     4.7210   4.7710   4.7775   4.8297   4.8459   4.8838   4.8955   4.9391
     4.9484   4.9979   5.0343   5.0456   5.0603   5.0714   5.0987   5.0988
     5.1170   5.1440   5.1457   5.1678   5.2189   5.2533   5.3064   5.3124
     5.3150   5.3238   5.3244   5.3370   5.3505   5.3903   5.4067   5.4342
     5.4458   5.4746   5.4760   5.4793   5.5316   5.5380   5.5589   5.5681
     5.6039   5.6144   5.6173   5.6321   5.6420   5.6759   5.7032   5.7054
     5.7163   5.7832   5.8089   5.8295   5.8473   5.8546   5.8574   5.8903
     5.9215   5.9232   5.9412   5.9667   5.9737   6.0154   6.0308   6.0457
     6.0606   6.0942   6.1303   6.1336   6.1349   6.1502   6.1648   6.2059
     6.2142   6.2186   6.2189   6.2612   6.2874   6.3397   6.3416   6.3641
     6.3769   6.4076   6.4172   6.4566   6.4641   6.4828   6.4967   6.5191
     6.5233   6.5445   6.5454   6.5461   6.5515   6.5665   6.5851   6.6047
     6.6246   6.6285   6.6762   6.6890   6.7084   6.7097   6.7250   6.7591
     6.8067   6.8200   6.8364   6.8515   6.8552   6.8835   6.8870   6.8995
     6.9267   6.9351   6.9411   6.9487   6.9612   6.9915   7.0141   7.0173
     7.0655   7.0955   7.1050   7.1179   7.1417   7.1468   7.1521   7.1877
     7.1981   7.2184   7.2519   7.2677   7.2703   7.2796   7.3204   7.3282
     7.3484   7.3809   7.4188   7.4196   7.4509   7.4694   7.4817   7.5009
     7.5025   7.5136   7.5298   7.5374   7.5435   7.5633   7.5702   7.5783
     7.6075   7.6098   7.6411   7.6659   7.6706   7.7000   7.7072   7.7294
     7.7299   7.7634   7.7748   7.7758   7.8145   7.8258   7.8390   7.8465
     7.8523   7.9082   7.9260   7.9508   7.9541   7.9561   7.9849   7.9998
     8.0321   8.0504   8.0518   8.0762

          k = 0.0000 0.0000 0.0043 (156823 PWs)   bands (ev):

   -21.2068 -21.1365 -20.8890 -20.7299 -20.6230 -20.4276 -20.2281 -20.0635
   -19.9907 -19.8234 -19.7364 -19.5921 -19.4735 -19.3582 -18.9574 -18.9193
   -18.8405 -18.5665 -18.3727 -18.3578 -18.3303 -18.2166 -18.0431 -17.8616
   -17.7682 -17.6820 -17.4552 -17.3116 -17.0762 -17.0682 -17.0139 -16.9255
   -16.7796 -16.7673 -16.5830 -16.4802 -16.2100 -16.2098 -16.1061 -16.0526
   -15.6890 -15.3834 -14.8926 -14.8894 -14.8015 -14.6423 -14.6111 -14.5467
   -14.2291 -14.2280 -14.1821 -14.1215 -14.0091 -13.8388 -13.7570 -13.6893
   -13.4580 -13.2202 -13.1068 -12.9789 -12.9371 -12.7700 -12.6354 -12.3745
   -12.2924 -12.2195 -12.0605 -11.9785 -11.9370 -11.6768 -11.6121 -11.3866
   -11.3574 -11.2625 -11.1965 -11.0958 -10.9938 -10.9530 -10.7426 -10.7207
   -10.6221 -10.5572 -10.5024 -10.3265 -10.1310 -10.0664 -10.0307  -9.9512
    -9.9365  -9.8113  -9.6598  -9.5525  -9.4853  -9.4181  -9.3390  -9.3305
    -9.2816  -9.2684  -9.2252  -9.2218  -9.0865  -9.0862  -9.0298  -8.9716
    -8.9648  -8.9416  -8.8756  -8.8092  -8.7735  -8.7169  -8.6894  -8.6157
    -8.5905  -8.5397  -8.4763  -8.4528  -8.4425  -8.3233  -8.2320  -8.1826
    -8.1650  -8.0435  -8.0390  -7.9505  -7.9068  -7.8752  -7.7842  -7.7837
    -7.6754  -7.6522  -7.6308  -7.6197  -7.5230  -7.3695  -7.3483  -7.3464
    -7.3224  -7.2839  -7.1922  -7.1258  -7.1040  -7.0029  -6.9364  -6.8328
    -6.8188  -6.7608  -6.7252  -6.6961  -6.6212  -6.5024  -6.3183  -6.2374
    -6.1315  -6.1207  -6.0691  -6.0659  -6.0275  -5.9677  -5.9308  -5.8469
    -5.6524  -5.6102  -5.5179  -5.4054  -5.1986  -5.1554  -5.0078  -4.8975
    -4.8299  -4.7404  -4.6321  -4.5231  -4.4849  -4.4159  -4.1533  -3.9217
    -3.7719  -3.7639  -3.3897  -3.0320  -1.7673  -1.4162  -1.3709  -1.0851
    -0.8065  -0.7999  -0.5720  -0.5072  -0.4265  -0.3188  -0.2030  -0.0519
    -0.0369  -0.0034   0.2748   0.4448   0.5338   0.6862   0.6925   0.7287
     0.7514   0.8369   0.9371   0.9917   1.1256   1.1320   1.2029   1.3222
     1.4010   1.4359   1.4947   1.5086   1.5485   1.5577   1.6425   1.7176
     1.7787   1.8006   1.8478   1.8804   1.9282   2.0547   2.1088   2.1893
     2.2283   2.2659   2.2899   2.3376   2.3869   2.4425   2.4743   2.5015
     2.5164   2.5316   2.5589   2.5669   2.5759   2.6030   2.6461   2.6500
     2.6838   2.7018   2.7546   2.8455   2.8522   2.8847   2.9026   2.9121
     2.9330   2.9724   2.9912   3.0147   3.0259   3.0717   3.0975   3.1150
     3.1558   3.1569   3.2285   3.2567   3.2800   3.3311   3.3644   3.3953
     3.4087   3.4398   3.4403   3.4488   3.4527   3.5041   3.5515   3.5912
     3.6159   3.6571   3.7292   3.7442   3.7719   3.8027   3.8563   3.8631
     3.8711   3.8772   3.8915   3.8931   3.9488   3.9631   3.9877   3.9932
     4.0455   4.0781   4.0834   4.1175   4.1269   4.1871   4.1965   4.2015
     4.2034   4.2378   4.2459   4.2799   4.3371   4.3435   4.3454   4.3713
     4.3873   4.4500   4.4532   4.4703   4.5152   4.5230   4.5258   4.5555
     4.6018   4.6297   4.6351   4.6505   4.6809   4.6966   4.7012   4.7201
     4.7299   4.7699   4.7703   4.8393   4.8395   4.8876   4.9213   4.9267
     4.9332   4.9892   5.0351   5.0453   5.0648   5.0651   5.0956   5.1120
     5.1165   5.1460   5.1493   5.1937   5.2337   5.2368   5.3056   5.3075
     5.3079   5.3188   5.3241   5.3378   5.3585   5.3854   5.4090   5.4168
     5.4427   5.4644   5.4682   5.4743   5.5336   5.5429   5.5695   5.5751
     5.5917   5.6119   5.6327   5.6365   5.6424   5.6815   5.7056   5.7193
     5.7214   5.7931   5.8148   5.8402   5.8511   5.8527   5.8671   5.8817
     5.8915   5.9143   5.9351   5.9424   5.9817   6.0026   6.0445   6.0474
     6.0676   6.0985   6.1315   6.1340   6.1397   6.1560   6.1722   6.1885
     6.2072   6.2119   6.2226   6.2603   6.2795   6.3439   6.3472   6.3493
     6.3854   6.4127   6.4162   6.4518   6.4694   6.4765   6.5010   6.5194
     6.5304   6.5468   6.5540   6.5540   6.5608   6.5706   6.5725   6.6133
     6.6158   6.6293   6.6604   6.6905   6.6929   6.7091   6.7297   6.7492
     6.8202   6.8355   6.8455   6.8485   6.8584   6.8801   6.8820   6.8967
     6.9247   6.9260   6.9449   6.9518   6.9613   6.9989   7.0174   7.0386
     7.0477   7.0848   7.0980   7.1304   7.1439   7.1503   7.1683   7.1898
     7.2175   7.2182   7.2631   7.2742   7.2781   7.2861   7.3226   7.3292
     7.3384   7.3682   7.4094   7.4114   7.4529   7.4539   7.4764   7.4784
     7.4926   7.5040   7.5097   7.5327   7.5355   7.5633   7.5665   7.5674
     7.6070   7.6114   7.6475   7.6734   7.6766   7.6991   7.7033   7.7223
     7.7519   7.7688   7.7730   7.7831   7.8065   7.8223   7.8406   7.8537
     7.8607   7.9162   7.9209   7.9438   7.9541   7.9661   7.9803   8.0197
     8.0203   8.0461   8.0507   8.0877

          k = 0.0000 0.0000 0.0054 (156829 PWs)   bands (ev):

   -21.2063 -21.1374 -20.8877 -20.7327 -20.6200 -20.4294 -20.2264 -20.0617
   -19.9944 -19.8269 -19.7336 -19.5872 -19.4764 -19.3583 -18.9572 -18.9223
   -18.8353 -18.5692 -18.3734 -18.3554 -18.3349 -18.2105 -18.0518 -17.8633
   -17.7608 -17.6808 -17.4526 -17.3117 -17.0799 -17.0650 -17.0240 -16.9166
   -16.7832 -16.7672 -16.5792 -16.4801 -16.2111 -16.2104 -16.1075 -16.0555
   -15.6862 -15.3858 -14.8881 -14.8875 -14.8029 -14.6375 -14.6167 -14.5460
   -14.2326 -14.2299 -14.1801 -14.1117 -14.0073 -13.8427 -13.7600 -13.6875
   -13.4657 -13.2341 -13.1012 -12.9856 -12.9380 -12.7471 -12.6411 -12.3687
   -12.2897 -12.2163 -12.0733 -11.9801 -11.9217 -11.6857 -11.6070 -11.3884
   -11.3528 -11.2643 -11.2121 -11.1039 -10.9797 -10.9581 -10.7434 -10.7155
   -10.6210 -10.5539 -10.5008 -10.3285 -10.1384 -10.0749 -10.0330  -9.9435
    -9.9377  -9.7901  -9.6659  -9.5605  -9.4750  -9.4256  -9.3431  -9.3298
    -9.2778  -9.2642  -9.2360  -9.2233  -9.0907  -9.0876  -9.0219  -8.9746
    -8.9697  -8.9286  -8.8689  -8.8114  -8.7763  -8.7165  -8.6858  -8.6128
    -8.5941  -8.5446  -8.4691  -8.4518  -8.4433  -8.3261  -8.2300  -8.1835
    -8.1657  -8.0502  -8.0354  -7.9549  -7.9014  -7.8737  -7.7853  -7.7825
    -7.6843  -7.6504  -7.6392  -7.6154  -7.5133  -7.3806  -7.3500  -7.3487
    -7.3215  -7.2768  -7.1997  -7.1184  -7.1065  -6.9961  -6.9366  -6.8319
    -6.8178  -6.7649  -6.7271  -6.6887  -6.6215  -6.4986  -6.3244  -6.2336
    -6.1328  -6.1325  -6.0709  -6.0684  -6.0171  -5.9602  -5.9378  -5.8475
    -5.6540  -5.6082  -5.5155  -5.4043  -5.1998  -5.1519  -5.0117  -4.9012
    -4.8254  -4.7392  -4.6324  -4.5255  -4.4839  -4.4151  -4.1521  -3.9282
    -3.7715  -3.7589  -3.3887  -3.0362  -1.7632  -1.4114  -1.3730  -1.0848
    -0.8065  -0.7998  -0.5726  -0.5130  -0.4276  -0.3114  -0.2094  -0.0514
    -0.0331  -0.0061   0.2658   0.4319   0.5368   0.6873   0.6918   0.7297
     0.7588   0.8591   0.9359   0.9841   1.1250   1.1336   1.2127   1.3152
     1.3861   1.4351   1.5059   1.5200   1.5461   1.5584   1.6405   1.7090
     1.7699   1.8065   1.8580   1.8912   1.9255   2.0547   2.1038   2.1834
     2.2299   2.2667   2.2990   2.3383   2.3811   2.4298   2.4662   2.4995
     2.5168   2.5187   2.5530   2.5585   2.5733   2.6074   2.6556   2.6627
     2.6790   2.6969   2.7465   2.8485   2.8509   2.8768   2.9114   2.9203
     2.9378   2.9763   3.0004   3.0045   3.0318   3.0807   3.0991   3.1252
     3.1560   3.1751   3.2168   3.2459   3.2637   3.3420   3.3745   3.3959
     3.4131   3.4319   3.4433   3.4497   3.4499   3.5054   3.5457   3.6052
     3.6362   3.6439   3.7198   3.7292   3.7848   3.8006   3.8571   3.8577
     3.8658   3.8785   3.8919   3.8922   3.9413   3.9503   3.9792   3.9854
     4.0456   4.0799   4.0954   4.1266   4.1342   4.1732   4.2043   4.2096
     4.2107   4.2211   4.2417   4.2870   4.3369   4.3451   4.3602   4.3630
     4.3816   4.4452   4.4668   4.4877   4.4972   4.5059   4.5305   4.5642
     4.6028   4.6281   4.6315   4.6482   4.6785   4.6785   4.7073   4.7192
     4.7306   4.7690   4.7828   4.8278   4.8508   4.8918   4.9048   4.9182
     4.9580   4.9819   5.0361   5.0441   5.0444   5.0683   5.1002   5.1158
     5.1227   5.1530   5.1551   5.2148   5.2223   5.2539   5.2986   5.3032
     5.3050   5.3118   5.3253   5.3412   5.3606   5.3659   5.4017   5.4244
     5.4269   5.4539   5.4615   5.4801   5.5376   5.5514   5.5773   5.5798
     5.5840   5.6032   5.6332   5.6359   5.6662   5.6892   5.7046   5.7233
     5.7405   5.7974   5.8157   5.8434   5.8477   5.8571   5.8598   5.8780
     5.8987   5.9089   5.9182   5.9303   5.9869   5.9881   6.0500   6.0594
     6.0713   6.1060   6.1295   6.1349   6.1365   6.1461   6.1600   6.1686
     6.2076   6.2296   6.2337   6.2605   6.2758   6.3298   6.3416   6.3582
     6.3882   6.4091   6.4201   6.4482   6.4678   6.4763   6.5082   6.5165
     6.5350   6.5555   6.5562   6.5569   6.5634   6.5698   6.5849   6.6108
     6.6164   6.6354   6.6493   6.6728   6.6877   6.7094   6.7293   6.7513
     6.8283   6.8418   6.8474   6.8518   6.8615   6.8618   6.8916   6.9017
     6.9199   6.9295   6.9447   6.9609   6.9661   7.0052   7.0055   7.0437
     7.0607   7.0623   7.1007   7.1398   7.1487   7.1522   7.1891   7.1920
     7.2175   7.2370   7.2706   7.2780   7.2875   7.2912   7.3232   7.3262
     7.3302   7.3569   7.4029   7.4048   7.4380   7.4452   7.4543   7.4698
     7.4725   7.4970   7.4991   7.5273   7.5372   7.5570   7.5619   7.5657
     7.6056   7.6140   7.6554   7.6739   7.6798   7.6836   7.6960   7.7266
     7.7649   7.7781   7.7797   7.7891   7.7987   7.8237   7.8345   7.8677
     7.8693   7.9109   7.9320   7.9350   7.9435   7.9536   7.9978   8.0124
     8.0364   8.0469   8.0609   8.0740

          k = 0.0000 0.0000 0.0065 (156811 PWs)   bands (ev):

   -21.2057 -21.1384 -20.8862 -20.7359 -20.6164 -20.4315 -20.2243 -20.0595
   -19.9988 -19.8312 -19.7302 -19.5815 -19.4799 -19.3586 -18.9569 -18.9254
   -18.8296 -18.5725 -18.3743 -18.3526 -18.3397 -18.2036 -18.0616 -17.8660
   -17.7522 -17.6794 -17.4495 -17.3115 -17.0846 -17.0611 -17.0342 -16.9079
   -16.7874 -16.7670 -16.5747 -16.4799 -16.2124 -16.2111 -16.1092 -16.0588
   -15.6828 -15.3887 -14.8864 -14.8816 -14.8042 -14.6320 -14.6230 -14.5458
   -14.2361 -14.2309 -14.1790 -14.1007 -14.0051 -13.8474 -13.7635 -13.6854
   -13.4750 -13.2500 -13.0955 -12.9899 -12.9390 -12.7231 -12.6477 -12.3621
   -12.2866 -12.2123 -12.0856 -11.9820 -11.9063 -11.6956 -11.6016 -11.3900
   -11.3481 -11.2666 -11.2292 -11.1125 -10.9654 -10.9635 -10.7444 -10.7098
   -10.6198 -10.5509 -10.4977 -10.3312 -10.1473 -10.0846 -10.0346  -9.9355
    -9.9352  -9.7694  -9.6723  -9.5689  -9.4643  -9.4340  -9.3471  -9.3289
    -9.2748  -9.2601  -9.2469  -9.2251  -9.0944  -9.0892  -9.0142  -8.9838
    -8.9674  -8.9146  -8.8628  -8.8139  -8.7796  -8.7160  -8.6814  -8.6093
    -8.5982  -8.5495  -8.4614  -8.4511  -8.4442  -8.3292  -8.2275  -8.1847
    -8.1663  -8.0577  -8.0311  -7.9601  -7.8955  -7.8719  -7.7877  -7.7806
    -7.6939  -7.6490  -7.6482  -7.6105  -7.5026  -7.3914  -7.3518  -7.3514
    -7.3206  -7.2713  -7.2069  -7.1111  -7.1095  -6.9877  -6.9369  -6.8309
    -6.8166  -6.7688  -6.7293  -6.6808  -6.6221  -6.4941  -6.3311  -6.2296
    -6.1448  -6.1337  -6.0759  -6.0675  -6.0072  -5.9519  -5.9457  -5.8481
    -5.6560  -5.6070  -5.5116  -5.4030  -5.2013  -5.1477  -5.0163  -4.9051
    -4.8205  -4.7379  -4.6329  -4.5285  -4.4827  -4.4144  -4.1506  -3.9356
    -3.7710  -3.7535  -3.3875  -3.0412  -1.7583  -1.4065  -1.3746  -1.0845
    -0.8064  -0.7998  -0.5732  -0.5194  -0.4291  -0.3030  -0.2172  -0.0505
    -0.0289  -0.0092   0.2554   0.4176   0.5403   0.6888   0.6910   0.7308
     0.7678   0.8839   0.9344   0.9758   1.1187   1.1421   1.2227   1.3073
     1.3711   1.4355   1.5173   1.5308   1.5430   1.5592   1.6387   1.7001
     1.7614   1.8127   1.8691   1.9022   1.9228   2.0548   2.0976   2.1781
     2.2318   2.2676   2.3083   2.3377   2.3744   2.4177   2.4565   2.4970
     2.5055   2.5183   2.5459   2.5486   2.5701   2.6118   2.6647   2.6740
     2.6754   2.6901   2.7408   2.8454   2.8563   2.8685   2.9215   2.9272
     2.9418   2.9814   2.9882   3.0203   3.0379   3.0910   3.1009   3.1373
     3.1561   3.1932   3.2052   3.2363   3.2477   3.3533   3.3833   3.3948
     3.4115   3.4246   3.4361   3.4503   3.4648   3.5084   3.5384   3.6193
     3.6309   3.6575   3.7115   3.7126   3.7971   3.7973   3.8420   3.8557
     3.8670   3.8795   3.8891   3.8933   3.9364   3.9378   3.9731   3.9801
     4.0450   4.0818   4.1053   4.1284   4.1430   4.1678   4.1846   4.2041
     4.2188   4.2273   4.2568   4.2959   4.3330   4.3371   4.3547   4.3756
     4.3841   4.4389   4.4739   4.4853   4.4883   4.5035   4.5347   4.5788
     4.5956   4.6159   4.6338   4.6499   4.6690   4.6759   4.7161   4.7177
     4.7223   4.7738   4.7997   4.8113   4.8660   4.8887   4.8958   4.9047
     4.9755   4.9891   5.0231   5.0374   5.0423   5.0709   5.1015   5.1149
     5.1261   5.1624   5.1642   5.2009   5.2488   5.2690   5.2870   5.3004
     5.3039   5.3048   5.3300   5.3348   5.3475   5.3732   5.3873   5.4034
     5.4305   5.4554   5.4556   5.4847   5.5426   5.5613   5.5697   5.5887
     5.5888   5.5910   5.6325   5.6409   5.6868   5.6982   5.7032   5.7299
     5.7560   5.7956   5.8102   5.8106   5.8456   5.8675   5.8808   5.8869
     5.8960   5.9080   5.9083   5.9302   5.9743   5.9902   6.0536   6.0702
     6.0737   6.0980   6.1133   6.1240   6.1388   6.1526   6.1544   6.1612
     6.2044   6.2343   6.2567   6.2616   6.2779   6.3071   6.3354   6.3716
     6.3840   6.4007   6.4266   6.4461   6.4596   6.4814   6.5159   6.5185
     6.5356   6.5481   6.5496   6.5625   6.5636   6.5779   6.6057   6.6155
     6.6180   6.6420   6.6439   6.6568   6.6760   6.7112   6.7281   6.7593
     6.8218   6.8397   6.8412   6.8535   6.8623   6.8739   6.8966   6.9065
     6.9176   6.9435   6.9443   6.9725   6.9765   6.9831   7.0083   7.0393
     7.0483   7.0828   7.1036   7.1436   7.1575   7.1582   7.1941   7.2054
     7.2157   7.2512   7.2738   7.2778   7.2942   7.2980   7.3141   7.3215
     7.3305   7.3521   7.3820   7.4070   7.4327   7.4360   7.4385   7.4578
     7.4590   7.4849   7.4874   7.5215   7.5393   7.5521   7.5588   7.5654
     7.6105   7.6128   7.6602   7.6642   7.6680   7.6889   7.6910   7.7249
     7.7540   7.7844   7.7950   7.7977   7.8057   7.8211   7.8403   7.8734
     7.8776   7.9003   7.9249   7.9258   7.9523   7.9541   8.0097   8.0111
     8.0303   8.0335   8.0470   8.0840

          k = 0.0000 0.0000 0.0075 (156807 PWs)   bands (ev):

   -21.2049 -21.1396 -20.8844 -20.7395 -20.6125 -20.4340 -20.2219 -20.0569
   -20.0038 -19.8361 -19.7262 -19.5751 -19.4838 -19.3591 -18.9565 -18.9286
   -18.8233 -18.5762 -18.3754 -18.3500 -18.3441 -18.1961 -18.0720 -17.8698
   -17.7424 -17.6777 -17.4459 -17.3111 -17.0902 -17.0566 -17.0443 -16.8994
   -16.7920 -16.7668 -16.5698 -16.4797 -16.2139 -16.2118 -16.1111 -16.0627
   -15.6787 -15.3921 -14.8846 -14.8749 -14.8052 -14.6296 -14.6260 -14.5463
   -14.2384 -14.2319 -14.1783 -14.0887 -14.0026 -13.8530 -13.7674 -13.6829
   -13.4855 -13.2676 -13.0899 -12.9917 -12.9403 -12.6988 -12.6550 -12.3547
   -12.2833 -12.2075 -12.0970 -11.9841 -11.8908 -11.7063 -11.5959 -11.3915
   -11.3435 -11.2700 -11.2471 -11.1215 -10.9688 -10.9512 -10.7459 -10.7041
   -10.6183 -10.5486 -10.4927 -10.3344 -10.1579 -10.0944 -10.0355  -9.9306
    -9.9264  -9.7498  -9.6783  -9.5777  -9.4533  -9.4431  -9.3506  -9.3279
    -9.2758  -9.2562  -9.2547  -9.2272  -9.0972  -9.0913  -9.0103  -8.9891
    -8.9647  -8.9001  -8.8578  -8.8161  -8.7833  -8.7152  -8.6764  -8.6055
    -8.6025  -8.5541  -8.4533  -8.4505  -8.4453  -8.3327  -8.2247  -8.1862
    -8.1668  -8.0658  -8.0263  -7.9661  -7.8892  -7.8698  -7.7908  -7.7783
    -7.7039  -7.6596  -7.6457  -7.6051  -7.4912  -7.4018  -7.3547  -7.3537
    -7.3195  -7.2673  -7.2138  -7.1130  -7.1039  -6.9780  -6.9372  -6.8296
    -6.8153  -6.7725  -6.7319  -6.6725  -6.6229  -6.4890  -6.3383  -6.2257
    -6.1568  -6.1352  -6.0809  -6.0665  -5.9979  -5.9544  -5.9430  -5.8485
    -5.6583  -5.6070  -5.5063  -5.4014  -5.2029  -5.1430  -5.0216  -4.9092
    -4.8153  -4.7363  -4.6334  -4.5318  -4.4813  -4.4136  -4.1489  -3.9435
    -3.7704  -3.7482  -3.3858  -3.0471  -1.7525  -1.4029  -1.3746  -1.0842
    -0.8064  -0.7997  -0.5740  -0.5261  -0.4307  -0.2938  -0.2263  -0.0491
    -0.0242  -0.0127   0.2442   0.4026   0.5444   0.6900   0.6905   0.7321
     0.7781   0.9106   0.9326   0.9672   1.1129   1.1510   1.2326   1.2990
     1.3558   1.4370   1.5287   1.5392   1.5406   1.5602   1.6374   1.6912
     1.7535   1.8184   1.8806   1.9132   1.9206   2.0550   2.0905   2.1735
     2.2340   2.2685   2.3174   2.3344   2.3669   2.4079   2.4458   2.4923
     2.4939   2.5208   2.5375   2.5378   2.5663   2.6159   2.6690   2.6720
     2.6825   2.6880   2.7379   2.8425   2.8601   2.8614   2.9320   2.9326
     2.9459   2.9790   2.9875   3.0373   3.0441   3.1022   3.1031   3.1511
     3.1565   3.1943   3.2092   3.2299   3.2322   3.3649   3.3906   3.3907
     3.4072   3.4186   3.4326   3.4493   3.4819   3.5136   3.5297   3.6182
     3.6330   3.6786   3.6947   3.7057   3.7921   3.8089   3.8253   3.8522
     3.8657   3.8798   3.8851   3.8970   3.9259   3.9317   3.9696   3.9768
     4.0437   4.0841   4.1094   4.1316   4.1402   4.1680   4.1744   4.1918
     4.2247   4.2368   4.2779   4.3055   4.3114   4.3334   4.3656   4.3772
     4.3910   4.4313   4.4650   4.4759   4.4915   4.5143   4.5357   4.5812
     4.5908   4.6082   4.6350   4.6539   4.6713   4.6765   4.7112   4.7161
     4.7262   4.7814   4.7917   4.8134   4.8717   4.8862   4.8901   4.9026
     4.9660   5.0081   5.0196   5.0386   5.0388   5.0717   5.1001   5.1137
     5.1239   5.1678   5.1713   5.1990   5.2670   5.2730   5.2807   5.2955
     5.2998   5.3058   5.3093   5.3430   5.3556   5.3732   5.3810   5.3839
     5.4207   5.4512   5.4661   5.4856   5.5477   5.5648   5.5656   5.5848
     5.5945   5.5951   5.6341   5.6474   5.7022   5.7024   5.7074   5.7388
     5.7495   5.7926   5.7996   5.8013   5.8467   5.8742   5.8780   5.8907
     5.9071   5.9114   5.9157   5.9359   5.9644   5.9923   6.0569   6.0599
     6.0662   6.0866   6.1132   6.1147   6.1451   6.1529   6.1594   6.1597
     6.2030   6.2377   6.2638   6.2733   6.2828   6.2848   6.3268   6.3705
     6.3744   6.4060   6.4324   6.4445   6.4538   6.4826   6.5185   6.5273
     6.5332   6.5350   6.5475   6.5618   6.5634   6.5853   6.6165   6.6242
     6.6313   6.6407   6.6436   6.6495   6.6677   6.7143   6.7287   6.7670
     6.8094   6.8245   6.8427   6.8561   6.8709   6.8842   6.8899   6.9188
     6.9264   6.9452   6.9592   6.9600   6.9857   6.9914   7.0066   7.0184
     7.0514   7.0972   7.1130   7.1415   7.1644   7.1735   7.1944   7.2120
     7.2144   7.2559   7.2584   7.2821   7.2886   7.3087   7.3125   7.3186
     7.3314   7.3619   7.3621   7.4081   7.4182   7.4235   7.4408   7.4490
     7.4509   7.4757   7.4793   7.5159   7.5301   7.5547   7.5550   7.5654
     7.6056   7.6224   7.6419   7.6537   7.6734   7.6921   7.6934   7.7160
     7.7429   7.7868   7.7871   7.8019   7.8322   7.8328   7.8527   7.8717
     7.8804   7.8902   7.9143   7.9155   7.9502   7.9745   8.0019   8.0128
     8.0129   8.0262   8.0292   8.0786

          k = 0.0000 0.0000 0.0086 (156799 PWs)   bands (ev):

   -21.2041 -21.1410 -20.8824 -20.7434 -20.6082 -20.4369 -20.2192 -20.0540
   -20.0093 -19.8416 -19.7215 -19.5681 -19.4882 -19.3598 -18.9562 -18.9316
   -18.8167 -18.5803 -18.3766 -18.3516 -18.3441 -18.1882 -18.0829 -17.8745
   -17.7319 -17.6758 -17.4421 -17.3104 -17.0970 -17.0542 -17.0516 -16.8912
   -16.7969 -16.7667 -16.5645 -16.4794 -16.2155 -16.2127 -16.1132 -16.0670
   -15.6741 -15.3961 -14.8825 -14.8676 -14.8060 -14.6364 -14.6198 -14.5475
   -14.2393 -14.2330 -14.1782 -14.0761 -13.9997 -13.8594 -13.7715 -13.6803
   -13.4971 -13.2865 -13.0845 -12.9909 -12.9417 -12.6746 -12.6630 -12.3468
   -12.2800 -12.2019 -12.1074 -11.9864 -11.8752 -11.7177 -11.5900 -11.3930
   -11.3390 -11.2773 -11.2626 -11.1310 -10.9737 -10.9371 -10.7478 -10.6984
   -10.6164 -10.5472 -10.4856 -10.3384 -10.1703 -10.1034 -10.0355  -9.9241
    -9.9173  -9.7329  -9.6825  -9.5869  -9.4527  -9.4420  -9.3534  -9.3267
    -9.2847  -9.2555  -9.2526  -9.2295  -9.0989  -9.0938  -9.0153  -8.9855
    -8.9617  -8.8856  -8.8544  -8.8176  -8.7874  -8.7141  -8.6706  -8.6070
    -8.6012  -8.5584  -8.4504  -8.4467  -8.4448  -8.3365  -8.2214  -8.1881
    -8.1672  -8.0744  -8.0209  -7.9726  -7.8829  -7.8674  -7.7952  -7.7759
    -7.7140  -7.6707  -7.6427  -7.5992  -7.4793  -7.4118  -7.3583  -7.3557
    -7.3184  -7.2649  -7.2204  -7.1172  -7.0968  -6.9672  -6.9376  -6.8282
    -6.8137  -6.7758  -6.7347  -6.6638  -6.6239  -6.4831  -6.3458  -6.2220
    -6.1686  -6.1369  -6.0856  -6.0652  -5.9894  -5.9635  -5.9337  -5.8487
    -5.6610  -5.6085  -5.4993  -5.3996  -5.2047  -5.1377  -5.0276  -4.9135
    -4.8100  -4.7346  -4.6338  -4.5354  -4.4797  -4.4129  -4.1469  -3.9517
    -3.7697  -3.7429  -3.3837  -3.0538  -1.7460  -1.4023  -1.3710  -1.0839
    -0.8065  -0.7997  -0.5750  -0.5330  -0.4325  -0.2840  -0.2366  -0.0474
    -0.0190  -0.0166   0.2322   0.3870   0.5488   0.6889   0.6924   0.7336
     0.7895   0.9304   0.9390   0.9584   1.1079   1.1599   1.2424   1.2904
     1.3404   1.4395   1.5348   1.5396   1.5495   1.5614   1.6367   1.6826
     1.7464   1.8232   1.8925   1.9193   1.9240   2.0553   2.0827   2.1697
     2.2365   2.2691   2.3263   2.3272   2.3590   2.4017   2.4343   2.4790
     2.4902   2.5240   2.5253   2.5287   2.5618   2.6198   2.6644   2.6688
     2.6830   2.7001   2.7371   2.8388   2.8521   2.8665   2.9345   2.9445
     2.9502   2.9734   2.9945   3.0504   3.0545   3.1055   3.1139   3.1572
     3.1662   3.1850   3.2141   3.2171   3.2360   3.3764   3.3835   3.3963
     3.4014   3.4143   3.4328   3.4467   3.4999   3.5197   3.5213   3.6062
     3.6455   3.6757   3.6907   3.7108   3.7860   3.8090   3.8177   3.8465
     3.8638   3.8796   3.8817   3.9033   3.9148   3.9248   3.9683   3.9750
     4.0418   4.0870   4.1020   4.1344   4.1367   4.1644   4.1785   4.1820
     4.2273   4.2467   4.2843   4.2958   4.3169   4.3385   4.3668   4.3771
     4.4058   4.4230   4.4460   4.4755   4.5040   4.5098   4.5448   4.5629
     4.5802   4.6231   4.6347   4.6602   4.6788   4.6847   4.6989   4.7148
     4.7367   4.7710   4.7899   4.8223   4.8542   4.8797   4.9070   4.9109
     4.9496   5.0028   5.0329   5.0403   5.0489   5.0683   5.0971   5.1122
     5.1212   5.1653   5.1780   5.2061   5.2570   5.2744   5.2852   5.2866
     5.2870   5.3014   5.3095   5.3593   5.3613   5.3634   5.3731   5.3882
     5.4128   5.4485   5.4731   5.4822   5.5511   5.5581   5.5643   5.5889
     5.5953   5.6046   5.6391   5.6554   5.7020   5.7118   5.7155   5.7220
     5.7494   5.7860   5.7918   5.8144   5.8487   5.8694   5.8772   5.8938
     5.9148   5.9184   5.9326   5.9379   5.9686   5.9942   6.0237   6.0546
     6.0679   6.0971   6.1015   6.1092   6.1496   6.1583   6.1608   6.1666
     6.2049   6.2419   6.2580   6.2675   6.2844   6.2941   6.3165   6.3512
     6.3621   6.4263   6.4335   6.4433   6.4520   6.4806   6.5190   6.5226
     6.5268   6.5331   6.5540   6.5572   6.5633   6.5919   6.6145   6.6166
     6.6331   6.6400   6.6598   6.6612   6.6730   6.7179   6.7297   6.7739
     6.7965   6.8120   6.8440   6.8566   6.8792   6.8858   6.8908   6.9201
     6.9391   6.9481   6.9501   6.9728   6.9982   7.0000   7.0069   7.0095
     7.0494   7.0963   7.1350   7.1374   7.1669   7.1902   7.1924   7.2061
     7.2176   7.2421   7.2529   7.2738   7.2766   7.3184   7.3189   7.3243
     7.3308   7.3515   7.3844   7.3973   7.4069   7.4185   7.4315   7.4431
     7.4470   7.4693   7.4902   7.5110   7.5199   7.5508   7.5570   7.5656
     7.5918   7.6183   7.6352   7.6421   7.6829   7.6964   7.6975   7.7019
     7.7335   7.7793   7.7892   7.8070   7.8437   7.8564   7.8700   7.8702
     7.8759   7.8819   7.9044   7.9056   7.9479   7.9563   7.9906   8.0011
     8.0134   8.0350   8.0377   8.0659

          k = 0.0000 0.0000 0.0097 (156831 PWs)   bands (ev):

   -21.2032 -21.1425 -20.8802 -20.7475 -20.6036 -20.4400 -20.2161 -20.0507
   -20.0152 -19.8475 -19.7164 -19.5607 -19.4931 -19.3607 -18.9558 -18.9346
   -18.8099 -18.5848 -18.3779 -18.3564 -18.3406 -18.1799 -18.0941 -17.8800
   -17.7209 -17.6737 -17.4379 -17.3091 -17.1048 -17.0637 -17.0461 -16.8835
   -16.8020 -16.7665 -16.5589 -16.4792 -16.2172 -16.2136 -16.1156 -16.0717
   -15.6689 -15.4006 -14.8802 -14.8597 -14.8062 -14.6433 -14.6134 -14.5496
   -14.2389 -14.2340 -14.1783 -14.0630 -13.9966 -13.8667 -13.7759 -13.6773
   -13.5098 -13.3062 -13.0794 -12.9879 -12.9434 -12.6716 -12.6507 -12.3386
   -12.2769 -12.1956 -12.1164 -11.9886 -11.8598 -11.7296 -11.5838 -11.3945
   -11.3348 -11.2936 -11.2702 -11.1409 -10.9780 -10.9231 -10.7503 -10.6931
   -10.6142 -10.5465 -10.4763 -10.3430 -10.1842 -10.1114 -10.0345  -9.9163
    -9.9080  -9.7224  -9.6811  -9.5964  -9.4627  -9.4306  -9.3552  -9.3254
    -9.2979  -9.2528  -9.2494  -9.2321  -9.0994  -9.0966  -9.0252  -8.9774
    -8.9584  -8.8714  -8.8533  -8.8177  -8.7918  -8.7128  -8.6643  -8.6114
    -8.5966  -8.5622  -8.4507  -8.4483  -8.4361  -8.3403  -8.2176  -8.1903
    -8.1673  -8.0832  -8.0150  -7.9798  -7.8765  -7.8648  -7.8010  -7.7732
    -7.7244  -7.6817  -7.6395  -7.5929  -7.4670  -7.4214  -7.3624  -7.3577
    -7.3173  -7.2641  -7.2267  -7.1219  -7.0896  -6.9553  -6.9382  -6.8267
    -6.8121  -6.7788  -6.7377  -6.6550  -6.6252  -6.4767  -6.3537  -6.2186
    -6.1804  -6.1388  -6.0899  -6.0638  -5.9818  -5.9730  -5.9241  -5.8484
    -5.6640  -5.6114  -5.4908  -5.3976  -5.2066  -5.1319  -5.0342  -4.9179
    -4.8046  -4.7328  -4.6343  -4.5393  -4.4779  -4.4123  -4.1446  -3.9601
    -3.7689  -3.7380  -3.3809  -3.0613  -1.7387  -1.4050  -1.3637  -1.0837
    -0.8066  -0.7997  -0.5760  -0.5399  -0.4344  -0.2738  -0.2480  -0.0451
    -0.0207  -0.0134   0.2199   0.3711   0.5536   0.6875   0.6946   0.7353
     0.8019   0.9278   0.9496   0.9685   1.1036   1.1687   1.2522   1.2819
     1.3248   1.4427   1.5298   1.5499   1.5570   1.5628   1.6366   1.6745
     1.7406   1.8263   1.9047   1.9198   1.9343   2.0556   2.0746   2.1665
     2.2392   2.2694   2.3159   2.3348   2.3511   2.3993   2.4224   2.4658
     2.4860   2.5125   2.5188   2.5279   2.5566   2.6236   2.6588   2.6603
     2.6889   2.7117   2.7375   2.8337   2.8448   2.8717   2.9358   2.9546
     2.9572   2.9707   3.0024   3.0571   3.0712   3.1080   3.1248   3.1578
     3.1791   3.1824   3.2027   3.2110   3.2518   3.3744   3.3865   3.3945
     3.4006   3.4130   3.4358   3.4425   3.5090   3.5182   3.5311   3.5951
     3.6553   3.6558   3.6894   3.7310   3.7790   3.7950   3.8208   3.8389
     3.8655   3.8786   3.8794   3.9046   3.9115   3.9146   3.9684   3.9745
     4.0393   4.0843   4.0909   4.1368   4.1378   4.1653   4.1714   4.1866
     4.2229   4.2570   4.2630   4.2998   4.3248   4.3482   4.3663   4.3877
     4.4151   4.4189   4.4296   4.4743   4.4969   4.5219   4.5443   4.5600
     4.5653   4.6328   4.6393   4.6700   4.6807   4.6858   4.7059   4.7142
     4.7462   4.7510   4.7981   4.8277   4.8375   4.8714   4.9112   4.9296
     4.9383   5.0033   5.0245   5.0420   5.0595   5.0755   5.0932   5.1106
     5.1226   5.1628   5.1822   5.2124   5.2395   5.2639   5.2738   5.2784
     5.2871   5.3035   5.3139   5.3457   5.3581   5.3688   5.3879   5.3943
     5.4174   5.4475   5.4769   5.4771   5.5505   5.5533   5.5618   5.5889
     5.5916   5.6187   5.6486   5.6646   5.6951   5.7032   5.7167   5.7209
     5.7609   5.7716   5.7954   5.8280   5.8431   5.8755   5.8794   5.8988
     5.9126   5.9129   5.9407   5.9548   5.9850   5.9918   5.9961   6.0538
     6.0737   6.0845   6.1023   6.1079   6.1500   6.1609   6.1700   6.1740
     6.2114   6.2337   6.2475   6.2736   6.2917   6.3032   6.3052   6.3267
     6.3500   6.4307   6.4413   6.4425   6.4509   6.4773   6.5139   6.5219
     6.5263   6.5296   6.5546   6.5556   6.5637   6.6001   6.6015   6.6120
     6.6217   6.6437   6.6739   6.6838   6.6944   6.7211   6.7303   6.7801
     6.7840   6.8023   6.8434   6.8570   6.8849   6.8851   6.8933   6.9092
     6.9379   6.9530   6.9674   6.9753   6.9975   7.0065   7.0152   7.0305
     7.0404   7.0890   7.1333   7.1487   7.1587   7.1877   7.1979   7.2131
     7.2201   7.2325   7.2423   7.2624   7.2715   7.3237   7.3260   7.3278
     7.3310   7.3473   7.3787   7.4015   7.4140   7.4207   7.4215   7.4314
     7.4467   7.4704   7.5073   7.5100   7.5137   7.5464   7.5581   7.5659
     7.5715   7.5995   7.6166   7.6477   7.6920   7.6961   7.7013   7.7018
     7.7231   7.7802   7.7892   7.8093   7.8533   7.8660   7.8668   7.8697
     7.8718   7.8849   7.8943   7.9080   7.9350   7.9450   7.9652   7.9842
     8.0340   8.0437   8.0587   8.0618

          k = 0.0000 0.0000 0.0108 (156809 PWs)   bands (ev):

   -21.2022 -21.1442 -20.8777 -20.7518 -20.5988 -20.4434 -20.2127 -20.0471
   -20.0215 -19.8539 -19.7108 -19.5529 -19.4983 -19.3620 -18.9554 -18.9373
   -18.8027 -18.5897 -18.3794 -18.3614 -18.3364 -18.1712 -18.1054 -17.8863
   -17.7098 -17.6714 -17.4335 -17.3073 -17.1138 -17.0729 -17.0403 -16.8764
   -16.8070 -16.7664 -16.5531 -16.4789 -16.2190 -16.2146 -16.1180 -16.0768
   -15.6631 -15.4056 -14.8778 -14.8516 -14.8058 -14.6502 -14.6070 -14.5523
   -14.2370 -14.2350 -14.1788 -14.0497 -13.9933 -13.8748 -13.7805 -13.6741
   -13.5234 -13.3264 -13.0744 -12.9829 -12.9452 -12.6805 -12.6275 -12.3302
   -12.2743 -12.1885 -12.1236 -11.9907 -11.8445 -11.7420 -11.5774 -11.3960
   -11.3309 -11.3142 -11.2746 -11.1513 -10.9813 -10.9095 -10.7535 -10.6884
   -10.6116 -10.5463 -10.4653 -10.3482 -10.1994 -10.1183 -10.0326  -9.9080
    -9.8985  -9.7211  -9.6715  -9.6060  -9.4730  -9.4192  -9.3559  -9.3239
    -9.3127  -9.2493  -9.2465  -9.2348  -9.0999  -9.0987  -9.0363  -8.9683
    -8.9548  -8.8580  -8.8546  -8.8161  -8.7964  -8.7111  -8.6576  -8.6155
    -8.5917  -8.5656  -8.4516  -8.4501  -8.4272  -8.3443  -8.2133  -8.1930
    -8.1672  -8.0924  -8.0088  -7.9873  -7.8702  -7.8620  -7.8087  -7.7704
    -7.7348  -7.6920  -7.6358  -7.5861  -7.4544  -7.4308  -7.3669  -7.3597
    -7.3161  -7.2647  -7.2326  -7.1271  -7.0823  -6.9427  -6.9388  -6.8250
    -6.8102  -6.7814  -6.7410  -6.6459  -6.6269  -6.4698  -6.3618  -6.2154
    -6.1920  -6.1410  -6.0937  -6.0621  -5.9826  -5.9753  -5.9143  -5.8475
    -5.6674  -5.6157  -5.4812  -5.3954  -5.2085  -5.1257  -5.0414  -4.9224
    -4.7991  -4.7309  -4.6348  -4.5435  -4.4759  -4.4118  -4.1422  -3.9687
    -3.7679  -3.7335  -3.3776  -3.0695  -1.7307  -1.4099  -1.3539  -1.0835
    -0.8067  -0.7998  -0.5772  -0.5467  -0.4364  -0.2633  -0.2604  -0.0425
    -0.0251  -0.0073   0.2073   0.3551   0.5586   0.6861   0.6970   0.7371
     0.8152   0.9249   0.9409   0.9988   1.1001   1.1771   1.2618   1.2737
     1.3090   1.4468   1.5244   1.5592   1.5630   1.5644   1.6371   1.6671
     1.7362   1.8273   1.9171   1.9224   1.9438   2.0560   2.0666   2.1638
     2.2422   2.2689   2.3015   2.3427   2.3435   2.3998   2.4104   2.4527
     2.4811   2.4992   2.5084   2.5324   2.5507   2.6274   2.6482   2.6569
     2.6944   2.7222   2.7384   2.8266   2.8384   2.8773   2.9376   2.9585
     2.9692   2.9702   3.0110   3.0641   3.0865   3.1104   3.1325   3.1575
     3.1796   3.1892   3.1994   3.2095   3.2687   3.3644   3.3868   3.3916
     3.4037   3.4177   3.4367   3.4402   3.4984   3.5365   3.5427   3.5850
     3.6352   3.6604   3.6870   3.7531   3.7714   3.7857   3.8169   3.8302
     3.8732   3.8765   3.8781   3.8957   3.9010   3.9208   3.9692   3.9747
     4.0364   4.0629   4.0958   4.1405   4.1414   4.1524   4.1820   4.1885
     4.2062   4.2520   4.2677   4.2860   4.3274   4.3612   4.3817   4.3920
     4.4122   4.4176   4.4256   4.4733   4.4879   4.5284   4.5430   4.5516
     4.5769   4.6291   4.6503   4.6723   4.6802   4.6815   4.7140   4.7318
     4.7348   4.7522   4.8055   4.8259   4.8303   4.8655   4.9094   4.9145
     4.9670   5.0059   5.0126   5.0437   5.0491   5.0887   5.0969   5.1088
     5.1276   5.1611   5.1844   5.2163   5.2211   5.2482   5.2676   5.2697
     5.2845   5.3020   5.3140   5.3324   5.3630   5.3719   5.3841   5.4083
     5.4315   5.4480   5.4810   5.4812   5.5423   5.5528   5.5565   5.5745
     5.5919   5.6351   5.6610   5.6737   5.6760   5.7076   5.7197   5.7228
     5.7585   5.7727   5.8043   5.8333   5.8366   5.8713   5.8981   5.8985
     5.8997   5.9131   5.9500   5.9692   5.9724   5.9981   6.0045   6.0609
     6.0639   6.0779   6.0991   6.1125   6.1551   6.1592   6.1806   6.1817
     6.2115   6.2204   6.2542   6.2826   6.2936   6.2954   6.3006   6.3086
     6.3426   6.4266   6.4391   6.4425   6.4460   6.4734   6.5155   6.5251
     6.5267   6.5286   6.5456   6.5545   6.5650   6.5855   6.6074   6.6091
     6.6206   6.6490   6.6859   6.6949   6.7229   6.7303   6.7306   6.7722
     6.7843   6.7948   6.8439   6.8591   6.8746   6.8840   6.8924   6.9080
     6.9472   6.9584   6.9586   6.9863   6.9999   7.0237   7.0251   7.0306
     7.0547   7.0765   7.1156   7.1285   7.1812   7.1850   7.1885   7.2207
     7.2270   7.2279   7.2321   7.2659   7.2696   7.3122   7.3318   7.3319
     7.3357   7.3469   7.3606   7.3946   7.4101   7.4204   7.4315   7.4466
     7.4536   7.4720   7.5059   7.5120   7.5305   7.5421   7.5478   7.5566
     7.5666   7.5829   7.5998   7.6378   7.7003   7.7046   7.7059   7.7070
     7.7158   7.7855   7.7862   7.8097   7.8414   7.8532   7.8592   7.8600
     7.8698   7.8887   7.9159   7.9233   7.9256   7.9353   7.9470   7.9664
     8.0356   8.0533   8.0792   8.0826

          k = 0.0000 0.0000 0.0118 (156857 PWs)   bands (ev):

   -21.2011 -21.1459 -20.8750 -20.7562 -20.5939 -20.4471 -20.2090 -20.0432
   -20.0282 -19.8605 -19.7048 -19.5447 -19.5039 -19.3636 -18.9550 -18.9398
   -18.7954 -18.5948 -18.3809 -18.3664 -18.3318 -18.1623 -18.1167 -17.8932
   -17.6987 -17.6689 -17.4288 -17.3049 -17.1237 -17.0818 -17.0340 -16.8701
   -16.8118 -16.7663 -16.5472 -16.4787 -16.2207 -16.2157 -16.1207 -16.0821
   -15.6567 -15.4112 -14.8752 -14.8434 -14.8048 -14.6570 -14.6008 -14.5557
   -14.2358 -14.2337 -14.1795 -14.0362 -13.9897 -13.8838 -13.7851 -13.6707
   -13.5378 -13.3469 -13.0696 -12.9764 -12.9472 -12.6899 -12.6051 -12.3219
   -12.2724 -12.1809 -12.1287 -11.9926 -11.8294 -11.7548 -11.5708 -11.3978
   -11.3362 -11.3274 -11.2787 -11.1621 -10.9836 -10.8962 -10.7575 -10.6843
   -10.6085 -10.5462 -10.4528 -10.3541 -10.2154 -10.1243 -10.0296  -9.8995
    -9.8891  -9.7254  -9.6574  -9.6155  -9.4834  -9.4078  -9.3552  -9.3281
    -9.3223  -9.2459  -9.2440  -9.2378  -9.1034  -9.0970  -9.0479  -8.9594
    -8.9510  -8.8578  -8.8457  -8.8131  -8.8013  -8.7092  -8.6505  -8.6189
    -8.5866  -8.5683  -8.4530  -8.4522  -8.4181  -8.3482  -8.2085  -8.1961
    -8.1666  -8.1018  -8.0022  -7.9953  -7.8641  -7.8590  -7.8184  -7.7675
    -7.7452  -7.7012  -7.6318  -7.5791  -7.4415  -7.4398  -7.3718  -7.3616
    -7.3149  -7.2667  -7.2382  -7.1329  -7.0749  -6.9397  -6.9294  -6.8232
    -6.8082  -6.7837  -6.7445  -6.6366  -6.6290  -6.4625  -6.3701  -6.2126
    -6.2034  -6.1435  -6.0970  -6.0602  -5.9921  -5.9701  -5.9041  -5.8458
    -5.6711  -5.6211  -5.4707  -5.3930  -5.2104  -5.1192  -5.0491  -4.9272
    -4.7936  -4.7290  -4.6352  -4.5479  -4.4738  -4.4115  -4.1395  -3.9773
    -3.7668  -3.7296  -3.3736  -3.0784  -1.7221  -1.4162  -1.3424  -1.0836
    -0.8070  -0.8000  -0.5784  -0.5533  -0.4384  -0.2735  -0.2525  -0.0395
    -0.0297  -0.0008   0.1948   0.3391   0.5639   0.6844   0.6996   0.7389
     0.8291   0.9216   0.9323   1.0298   1.0974   1.1847   1.2662   1.2711
     1.2930   1.4514   1.5188   1.5662   1.5670   1.5670   1.6381   1.6609
     1.7337   1.8261   1.9274   1.9297   1.9521   2.0563   2.0595   2.1615
     2.2454   2.2673   2.2853   2.3368   2.3496   2.3987   2.4017   2.4398
     2.4758   2.4859   2.4975   2.5373   2.5442   2.6313   2.6380   2.6543
     2.6990   2.7314   2.7392   2.8175   2.8337   2.8837   2.9414   2.9615
     2.9677   2.9834   3.0202   3.0715   3.0995   3.1124   3.1367   3.1555
     3.1771   3.1880   3.2116   3.2171   3.2852   3.3544   3.3783   3.3906
     3.4059   3.4290   3.4297   3.4455   3.4888   3.5546   3.5551   3.5765
     3.6142   3.6592   3.6853   3.7637   3.7721   3.7832   3.8087   3.8235
     3.8722   3.8763   3.8847   3.8863   3.8889   3.9308   3.9701   3.9757
     4.0332   4.0414   4.1012   4.1399   4.1442   4.1460   4.1817   4.1894
     4.1933   4.2466   4.2641   4.2789   4.3236   4.3748   4.3861   4.4042
     4.4098   4.4176   4.4204   4.4731   4.4923   4.5181   4.5407   4.5660
     4.5948   4.6234   4.6576   4.6583   4.6788   4.6811   4.7140   4.7313
     4.7497   4.7607   4.8117   4.8255   4.8309   4.8621   4.8906   4.9159
     4.9958   4.9979   5.0085   5.0407   5.0453   5.0840   5.1069   5.1084
     5.1330   5.1599   5.1853   5.2025   5.2201   5.2429   5.2577   5.2612
     5.2799   5.2972   5.3074   5.3196   5.3726   5.3754   5.3837   5.4048
     5.4476   5.4497   5.4875   5.5017   5.5248   5.5492   5.5530   5.5556
     5.5930   5.6498   5.6671   5.6741   5.6801   5.7171   5.7216   5.7219
     5.7497   5.7841   5.8177   5.8237   5.8331   5.8640   5.8780   5.8934
     5.9203   5.9240   5.9615   5.9620   5.9855   6.0003   6.0243   6.0403
     6.0720   6.0812   6.0896   6.1245   6.1548   6.1658   6.1788   6.1936
     6.1995   6.2289   6.2606   6.2708   6.2807   6.2960   6.2996   6.3068
     6.3450   6.4212   6.4254   6.4383   6.4438   6.4695   6.5074   6.5195
     6.5289   6.5292   6.5506   6.5539   6.5676   6.5715   6.6054   6.6087
     6.6332   6.6541   6.6938   6.7044   6.7232   6.7319   6.7612   6.7680
     6.7851   6.7886   6.8484   6.8543   6.8644   6.8790   6.8893   6.9163
     6.9566   6.9596   6.9633   6.9706   7.0069   7.0219   7.0415   7.0455
     7.0605   7.0818   7.0821   7.1202   7.1727   7.1797   7.2008   7.2133
     7.2151   7.2385   7.2412   7.2744   7.2763   7.2969   7.3325   7.3329
     7.3435   7.3454   7.3523   7.3838   7.3986   7.4138   7.4459   7.4647
     7.4728   7.4763   7.5092   7.5113   7.5175   7.5384   7.5498   7.5538
     7.5679   7.5760   7.5865   7.6251   7.7058   7.7072   7.7073   7.7113
     7.7279   7.7771   7.7946   7.8033   7.8109   7.8391   7.8479   7.8573
     7.8780   7.8988   7.9133   7.9196   7.9356   7.9418   7.9466   7.9502
     8.0300   8.0636   8.0990   8.1058

          k = 0.0000 0.0000 0.0129 (156823 PWs)   bands (ev):

   -21.1998 -21.1478 -20.8721 -20.7608 -20.5887 -20.4510 -20.2051 -20.0389
   -20.0351 -19.8675 -19.6984 -19.5364 -19.5097 -19.3656 -18.9546 -18.9420
   -18.7879 -18.6003 -18.3826 -18.3712 -18.3270 -18.1532 -18.1279 -17.9006
   -17.6880 -17.6662 -17.4237 -17.3017 -17.1345 -17.0904 -17.0274 -16.8650
   -16.8160 -16.7663 -16.5412 -16.4785 -16.2225 -16.2168 -16.1234 -16.0875
   -15.6499 -15.4173 -14.8724 -14.8353 -14.8031 -14.6637 -14.5949 -14.5595
   -14.2364 -14.2291 -14.1805 -14.0227 -13.9859 -13.8935 -13.7896 -13.6669
   -13.5528 -13.3672 -13.0648 -12.9687 -12.9494 -12.6995 -12.5837 -12.3143
   -12.2711 -12.1730 -12.1314 -11.9938 -11.8145 -11.7678 -11.5641 -11.3997
   -11.3588 -11.3242 -11.2829 -11.1730 -10.9846 -10.8832 -10.7622 -10.6813
   -10.6047 -10.5458 -10.4391 -10.3605 -10.2319 -10.1298 -10.0257  -9.8911
    -9.8797  -9.7315  -9.6426  -9.6246  -9.4940  -9.3966  -9.3529  -9.3439
    -9.3205  -9.2427  -9.2416  -9.2409  -9.1073  -9.0943  -9.0598  -8.9510
    -8.9469  -8.8622  -8.8349  -8.8092  -8.8064  -8.7072  -8.6433  -8.6213
    -8.5813  -8.5703  -8.4550  -8.4545  -8.4088  -8.3521  -8.2031  -8.1997
    -8.1657  -8.1113  -8.0035  -7.9952  -7.8582  -7.8562  -7.8301  -7.7645
    -7.7557  -7.7090  -7.6275  -7.5718  -7.4487  -7.4286  -7.3770  -7.3633
    -7.3136  -7.2697  -7.2434  -7.1392  -7.0674  -6.9407  -6.9158  -6.8214
    -6.8060  -6.7856  -6.7481  -6.6316  -6.6272  -6.4547  -6.3786  -6.2146
    -6.2102  -6.1463  -6.0997  -6.0581  -6.0015  -5.9663  -5.8938  -5.8433
    -5.6752  -5.6275  -5.4596  -5.3905  -5.2123  -5.1123  -5.0573  -4.9320
    -4.7882  -4.7271  -4.6355  -4.5524  -4.4714  -4.4115  -4.1365  -3.9858
    -3.7656  -3.7264  -3.3688  -3.0878  -1.7129  -1.4234  -1.3297  -1.0839
    -0.8073  -0.8002  -0.5798  -0.5596  -0.4404  -0.2872  -0.2416  -0.0360
    -0.0345   0.0061   0.1823   0.3230   0.5693   0.6826   0.7025   0.7409
     0.8437   0.9179   0.9239   1.0611   1.0955   1.1910   1.2600   1.2769
     1.2801   1.4566   1.5129   1.5683   1.5686   1.5732   1.6394   1.6561
     1.7333   1.8229   1.9344   1.9424   1.9586   2.0538   2.0565   2.1596
     2.2487   2.2639   2.2683   2.3315   2.3546   2.3885   2.4038   2.4270
     2.4699   2.4732   2.4866   2.5372   2.5428   2.6284   2.6355   2.6525
     2.7024   2.7385   2.7399   2.8065   2.8312   2.8909   2.9471   2.9629
     2.9657   2.9966   3.0300   3.0794   3.1087   3.1131   3.1414   3.1517
     3.1674   3.2017   3.2172   3.2352   3.3006   3.3447   3.3692   3.3857
     3.4071   3.4220   3.4436   3.4512   3.4819   3.5642   3.5718   3.5738
     3.5934   3.6513   3.6846   3.7563   3.7798   3.7880   3.7988   3.8265
     3.8627   3.8652   3.8819   3.8845   3.8977   3.9411   3.9706   3.9770
     4.0208   4.0299   4.1059   4.1280   4.1456   4.1507   4.1567   4.1923
     4.2043   4.2393   4.2402   4.2907   4.3161   4.3771   4.3801   4.4031
     4.4145   4.4233   4.4288   4.4727   4.5078   4.5154   4.5348   4.5905
     4.6135   4.6154   4.6440   4.6609   4.6662   4.6798   4.7139   4.7269
     4.7510   4.7917   4.8161   4.8296   4.8369   4.8607   4.8741   4.9135
     4.9841   5.0101   5.0236   5.0350   5.0466   5.0795   5.1048   5.1069
     5.1351   5.1603   5.1846   5.1853   5.2253   5.2459   5.2508   5.2529
     5.2730   5.2921   5.2966   5.3077   5.3695   5.3754   5.3876   5.4081
     5.4517   5.4627   5.4960   5.5006   5.5247   5.5264   5.5423   5.5603
     5.6008   5.6603   5.6668   5.6826   5.6858   5.7188   5.7225   5.7262
     5.7531   5.7940   5.8004   5.8334   5.8338   5.8541   5.8563   5.8923
     5.9286   5.9494   5.9671   5.9747   5.9951   6.0034   6.0144   6.0427
     6.0736   6.0782   6.0939   6.1416   6.1493   6.1624   6.1794   6.2041
     6.2045   6.2352   6.2423   6.2642   6.2693   6.3004   6.3040   6.3111
     6.3533   6.4084   6.4122   6.4323   6.4465   6.4657   6.4948   6.5118
     6.5137   6.5273   6.5521   6.5564   6.5713   6.5786   6.6010   6.6174
     6.6430   6.6589   6.6965   6.7094   6.7220   6.7362   6.7516   6.7827
     6.7847   6.8069   6.8346   6.8538   6.8738   6.8739   6.8847   6.9206
     6.9473   6.9632   6.9658   6.9736   6.9915   7.0339   7.0427   7.0496
     7.0590   7.0691   7.1066   7.1118   7.1531   7.1736   7.2033   7.2118
     7.2181   7.2295   7.2624   7.2741   7.2846   7.2961   7.3296   7.3341
     7.3341   7.3517   7.3619   7.3718   7.3860   7.4127   7.4613   7.4670
     7.4717   7.4906   7.4920   7.5050   7.5348   7.5360   7.5448   7.5568
     7.5708   7.5794   7.5900   7.6169   7.7039   7.7086   7.7119   7.7141
     7.7456   7.7583   7.7790   7.8038   7.8058   7.8250   7.8352   7.8552
     7.8877   7.8918   7.8994   7.9305   7.9329   7.9373   7.9578   7.9665
     8.0244   8.0738   8.0838   8.1056

          k = 0.0000 0.0000 0.0140 (156839 PWs)   bands (ev):

   -21.1985 -21.1498 -20.8691 -20.7654 -20.5835 -20.4552 -20.2008 -20.0422
   -20.0344 -19.8746 -19.6918 -19.5278 -19.5158 -19.3679 -18.9543 -18.9441
   -18.7803 -18.6059 -18.3844 -18.3758 -18.3220 -18.1439 -18.1390 -17.9086
   -17.6777 -17.6634 -17.4184 -17.2978 -17.1461 -17.0989 -17.0205 -16.8617
   -16.8188 -16.7664 -16.5354 -16.4783 -16.2242 -16.2180 -16.1261 -16.0931
   -15.6425 -15.4238 -14.8695 -14.8277 -14.8007 -14.6700 -14.5893 -14.5637
   -14.2368 -14.2232 -14.1817 -14.0093 -13.9820 -13.9041 -13.7940 -13.6628
   -13.5684 -13.3873 -13.0599 -12.9601 -12.9518 -12.7093 -12.5634 -12.3082
   -12.2699 -12.1650 -12.1315 -11.9942 -11.8001 -11.7808 -11.5574 -11.4018
   -11.3818 -11.3214 -11.2874 -11.1841 -10.9843 -10.8707 -10.7677 -10.6793
   -10.6004 -10.5447 -10.4246 -10.3674 -10.2485 -10.1349 -10.0209  -9.8833
    -9.8704  -9.7380  -9.6346  -9.6272  -9.5047  -9.3857  -9.3599  -9.3487
    -9.3186  -9.2441  -9.2401  -9.2394  -9.1115  -9.0906  -9.0718  -8.9436
    -8.9425  -8.8668  -8.8258  -8.8116  -8.8049  -8.7055  -8.6361  -8.6222
    -8.5758  -8.5713  -8.4575  -8.4571  -8.3994  -8.3559  -8.2038  -8.1971
    -8.1644  -8.1209  -8.0120  -7.9880  -7.8553  -7.8526  -7.8419  -7.7661
    -7.7614  -7.7151  -7.6229  -7.5642  -7.4573  -7.4155  -7.3825  -7.3648
    -7.3123  -7.2737  -7.2484  -7.1461  -7.0599  -6.9419  -6.9021  -6.8194
    -6.8035  -6.7873  -6.7517  -6.6347  -6.6177  -6.4466  -6.3873  -6.2256
    -6.2082  -6.1493  -6.1017  -6.0557  -6.0106  -5.9640  -5.8834  -5.8397
    -5.6795  -5.6347  -5.4482  -5.3879  -5.2139  -5.1051  -5.0658  -4.9371
    -4.7828  -4.7253  -4.6356  -4.5571  -4.4689  -4.4116  -4.1333  -3.9942
    -3.7642  -3.7238  -3.3632  -3.0979  -1.7031  -1.4314  -1.3162  -1.0844
    -0.8078  -0.8007  -0.5813  -0.5655  -0.4423  -0.3013  -0.2307  -0.0394
    -0.0321   0.0134   0.1700   0.3071   0.5749   0.6805   0.7055   0.7429
     0.8587   0.9140   0.9158   1.0925   1.0944   1.1952   1.2559   1.2607
     1.2887   1.4622   1.5072   1.5676   1.5707   1.5774   1.6408   1.6527
     1.7353   1.8183   1.9431   1.9551   1.9625   2.0504   2.0564   2.1580
     2.2510   2.2521   2.2584   2.3283   2.3549   2.3824   2.4046   2.4145
     2.4619   2.4635   2.4758   2.5297   2.5486   2.6196   2.6401   2.6516
     2.7044   2.7409   2.7429   2.7944   2.8315   2.8985   2.9527   2.9626
     2.9649   3.0094   3.0403   3.0878   3.1115   3.1140   3.1464   3.1497
     3.1614   3.2178   3.2259   3.2531   3.3144   3.3360   3.3595   3.3775
     3.4054   3.4164   3.4569   3.4598   3.4790   3.5610   3.5700   3.5855
     3.5905   3.6387   3.6846   3.7496   3.7730   3.7886   3.7985   3.8417
     3.8426   3.8570   3.8814   3.8834   3.9109   3.9508   3.9705   3.9787
     4.0024   4.0266   4.1044   4.1168   4.1389   4.1450   4.1517   4.1998
     4.2135   4.2140   4.2303   4.3028   4.3090   4.3657   4.3681   4.3946
     4.4246   4.4267   4.4540   4.4706   4.5206   4.5287   4.5360   4.6056
[...]
    -6.7956  -6.7858  -6.7494  -6.6895  -6.5292  -6.4705  -6.3681  -6.3148
    -6.1976  -6.1824  -6.0939  -6.0716  -6.0215  -5.9897  -5.7852  -5.7783
    -5.7326  -5.7198  -5.3693  -5.3651  -5.2022  -5.1532  -5.0355  -4.9913
    -4.7403  -4.7233  -4.6234  -4.6001  -4.4420  -4.4245  -4.0954  -4.0610
    -3.7450  -3.7286  -3.2803  -3.2054  -1.5990  -1.5252  -1.1823  -1.1168
    -0.8129  -0.8096  -0.5967  -0.5959  -0.4437  -0.4121  -0.1397  -0.0924
     0.0208   0.0721   0.0978   0.1728   0.6251   0.6529   0.7381   0.7526
     0.8689   0.8759   1.0067   1.1096   1.1148   1.1501   1.3003   1.3262
     1.3542   1.4764   1.4831   1.4992   1.5839   1.6055   1.6252   1.6361
     1.7925   1.7994   1.9431   2.0020   2.0436   2.0724   2.0754   2.1535
     2.1562   2.1582   2.2781   2.2847   2.3111   2.3204   2.3574   2.3983
     2.4219   2.4263   2.4450   2.4556   2.6063   2.6120   2.6589   2.6594
     2.6733   2.7062   2.7253   2.7615   2.8830   2.8968   2.9177   2.9920
     3.0107   3.0680   3.1011   3.1251   3.1306   3.1776   3.1904   3.2077
     3.2183   3.2614   3.2656   3.2666   3.2752   3.2978   3.3395   3.3625
     3.4049   3.4171   3.4557   3.4919   3.5813   3.5822   3.5906   3.5999
     3.6287   3.6390   3.6575   3.7110   3.7280   3.7285   3.7533   3.7906
     3.7964   3.8331   3.8742   3.9251   3.9339   3.9361   3.9558   3.9816
     4.0116   4.0172   4.0490   4.0694   4.0915   4.0940   4.1183   4.1394
     4.1414   4.2022   4.2499   4.3050   4.3186   4.3381   4.3630   4.3802
     4.4068   4.4147   4.4669   4.4748   4.5375   4.5708   4.5928   4.5986
     4.6528   4.6547   4.6803   4.6826   4.7065   4.7476   4.7587   4.7649
     4.7820   4.8206   4.8235   4.8708   4.8776   4.8969   4.9092   4.9292
     4.9399   5.0056   5.0406   5.0524   5.0661   5.0668   5.0690   5.0889
     5.0992   5.1253   5.1341   5.1342   5.1876   5.2025   5.2051   5.2082
     5.2189   5.2284   5.2505   5.2999   5.3072   5.3388   5.3722   5.3806
     5.4271   5.4532   5.4535   5.4898   5.5413   5.5452   5.5563   5.5908
     5.6035   5.6266   5.6342   5.6529   5.6993   5.7125   5.7708   5.7925
     5.7930   5.8015   5.8469   5.8499   5.8573   5.9253   5.9349   5.9367
     5.9525   5.9750   5.9783   5.9978   6.0126   6.0367   6.0397   6.0886
     6.0997   6.1066   6.1311   6.1572   6.1637   6.1933   6.2211   6.2465
     6.2543   6.2580   6.2677   6.2960   6.2996   6.3240   6.3274   6.3659
     6.3705   6.3882   6.3937   6.4023   6.4326   6.4463   6.4500   6.4501
     6.4517   6.4912   6.5073   6.5107   6.5202   6.5655   6.5832   6.5995
     6.6266   6.6309   6.6685   6.6712   6.6831   6.7195   6.7281   6.7820
     6.7861   6.8006   6.8244   6.8265   6.8420   6.8559   6.8702   6.8750
     6.8910   6.9332   6.9487   6.9662   6.9870   6.9874   7.0539   7.0574
     7.1098   7.1159   7.1302   7.1448   7.1709   7.1769   7.2081   7.2114
     7.2448   7.2642   7.2706   7.2848   7.3017   7.3137   7.3284   7.3410
     7.3604   7.3656   7.3827   7.3841   7.4436   7.4808   7.4811   7.4998
     7.5007   7.5116   7.5214   7.5224   7.5295   7.5460   7.5963   7.6013
     7.6046   7.6125   7.6448   7.6525   7.6710   7.6747   7.6899   7.7094
     7.7145   7.7398   7.7612   7.7925   7.7949   7.8076   7.8414   7.8737
     7.8889   7.8959   7.9024   7.9151   7.9214   7.9506   7.9818   7.9942
     8.0448   8.0449   8.0496   8.0596

          k = 0.0000 0.0000 0.0248 (156890 PWs)   bands (ev):

   -21.1808 -21.1720 -20.8307 -20.8126 -20.5276 -20.5052 -20.1445 -20.1167
   -19.9763 -19.9484 -19.6174 -19.5866 -19.4431 -19.4143 -18.9525 -18.9524
   -18.7024 -18.6723 -18.4012 -18.4004 -18.2626 -18.2333 -18.0442 -18.0032
   -17.6337 -17.6286 -17.3302 -17.2784 -17.2261 -17.1889 -16.9440 -16.9129
   -16.7877 -16.7764 -16.4900 -16.4818 -16.2320 -16.2295 -16.1431 -16.1378
   -15.5508 -15.5105 -14.8304 -14.8128 -14.7472 -14.7213 -14.5809 -14.5719
   -14.2217 -14.2083 -14.1080 -14.0460 -13.9379 -13.9290 -13.7801 -13.7291
   -13.5959 -13.5515 -13.0074 -12.9876 -12.8560 -12.8132 -12.4163 -12.3728
   -12.1920 -12.1603 -12.0374 -11.9889 -11.8105 -11.7489 -11.5483 -11.5365
   -11.3936 -11.3596 -11.2941 -11.2747 -10.9164 -10.8716 -10.7537 -10.7195
   -10.5303 -10.5093 -10.4274 -10.3969 -10.2649 -10.2114  -9.9372  -9.8974
    -9.7952  -9.7790  -9.6356  -9.6027  -9.5469  -9.5089  -9.2924  -9.2791
    -9.2741  -9.2464  -9.2454  -9.2056  -9.1966  -9.1758  -9.0229  -8.9866
    -8.8910  -8.8681  -8.8373  -8.8177  -8.7576  -8.7369  -8.5897  -8.5833
    -8.5235  -8.5184  -8.4977  -8.4970  -8.3557  -8.3364  -8.2422  -8.2180
    -8.1247  -8.0967  -8.0957  -8.0326  -7.9041  -7.8665  -7.8209  -7.8195
    -7.7383  -7.7343  -7.5649  -7.5370  -7.4834  -7.4515  -7.3542  -7.3342
    -7.2953  -7.2866  -7.2856  -7.2396  -6.9902  -6.9696  -6.8051  -6.8011
    -6.7965  -6.7894  -6.7390  -6.6986  -6.5193  -6.4802  -6.3592  -6.3238
    -6.1959  -6.1857  -6.0910  -6.0762  -6.0164  -5.9950  -5.7741  -5.7704
    -5.7398  -5.7305  -5.3661  -5.3638  -5.1960  -5.1629  -5.0279  -4.9983
    -4.7367  -4.7252  -4.6202  -4.6045  -4.4388  -4.4271  -4.0902  -4.0673
    -3.7422  -3.7311  -3.2683  -3.2182  -1.5866  -1.5372  -1.1689  -1.1251
    -0.8129  -0.8106  -0.5976  -0.5969  -0.4408  -0.4199  -0.1310  -0.0995
     0.0286   0.0627   0.1093   0.1594   0.6302   0.6488   0.7415   0.7514
     0.8679   0.8729   1.0238   1.0925   1.1197   1.1434   1.3064   1.3242
     1.3782   1.4597   1.4853   1.4972   1.5895   1.6108   1.6184   1.6317
     1.7947   1.8013   1.9486   1.9903   2.0517   2.0736   2.0858   2.1399
     2.1558   2.1586   2.2771   2.2892   2.3004   2.3128   2.3636   2.3910
     2.4265   2.4284   2.4422   2.4485   2.6131   2.6198   2.6493   2.6516
     2.6781   2.7002   2.7326   2.7588   2.8804   2.8907   2.9300   2.9798
     3.0214   3.0608   3.1171   3.1304   3.1352   3.1876   3.1887   3.2063
     3.2194   3.2617   3.2630   3.2649   3.2670   3.2927   3.3469   3.3624
     3.3959   3.4056   3.4777   3.5069   3.5627   3.5727   3.5991   3.6117
     3.6402   3.6435   3.6482   3.7170   3.7292   3.7418   3.7457   3.7703
     3.7825   3.8490   3.8545   3.9303   3.9312   3.9385   3.9517   3.9639
     4.0220   4.0258   4.0474   4.0721   4.0867   4.0994   4.1163   4.1227
     4.1517   4.1934   4.2600   4.2973   4.3248   4.3446   4.3678   4.3823
     4.3925   4.4205   4.4546   4.4570   4.5437   4.5827   4.5873   4.6117
     4.6457   4.6600   4.6723   4.6812   4.7122   4.7520   4.7622   4.7688
     4.7985   4.8266   4.8325   4.8660   4.8781   4.9053   4.9167   4.9292
     4.9343   4.9880   5.0412   5.0416   5.0451   5.0632   5.0729   5.0906
     5.1020   5.1250   5.1309   5.1534   5.1905   5.1913   5.1959   5.2197
     5.2285   5.2289   5.2583   5.2958   5.3072   5.3264   5.3506   5.3518
     5.4306   5.4546   5.4745   5.4950   5.5512   5.5567   5.5618   5.5830
     5.5870   5.6167   5.6321   5.6504   5.6944   5.7265   5.7690   5.7845
     5.7952   5.8011   5.8489   5.8566   5.8580   5.9164   5.9385   5.9428
     5.9542   5.9779   5.9799   6.0064   6.0196   6.0369   6.0436   6.0832
     6.1024   6.1090   6.1286   6.1682   6.1706   6.1988   6.2154   6.2403
     6.2557   6.2701   6.2770   6.2861   6.3078   6.3289   6.3513   6.3629
     6.3765   6.3835   6.3902   6.4065   6.4243   6.4403   6.4426   6.4449
     6.4556   6.4777   6.4905   6.5016   6.5077   6.5582   6.5956   6.6101
     6.6310   6.6374   6.6626   6.6672   6.6876   6.7006   6.7322   6.7816
     6.7903   6.7936   6.8245   6.8351   6.8368   6.8431   6.8594   6.8895
     6.9038   6.9255   6.9540   6.9595   6.9816   6.9862   7.0280   7.0716
     7.0895   7.1166   7.1308   7.1336   7.1634   7.1727   7.2360   7.2385
     7.2458   7.2607   7.2774   7.2863   7.2954   7.3268   7.3365   7.3415
     7.3592   7.3806   7.3946   7.3998   7.4418   7.4819   7.4832   7.4833
     7.4947   7.5142   7.5152   7.5179   7.5322   7.5414   7.5921   7.5944
     7.6073   7.6242   7.6380   7.6532   7.6662   7.6734   7.6948   7.7120
     7.7219   7.7536   7.7569   7.7821   7.7891   7.8123   7.8276   7.8788
     7.8877   7.8926   7.9066   7.9177   7.9227   7.9496   7.9947   8.0086
     8.0300   8.0537   8.0699   8.0710

          k = 0.0000 0.0000 0.0258 (156900 PWs)   bands (ev):

   -21.1786 -21.1742 -20.8263 -20.8172 -20.5219 -20.5107 -20.1378 -20.1238
   -19.9695 -19.9555 -19.6097 -19.5943 -19.4355 -19.4211 -18.9525 -18.9525
   -18.6947 -18.6797 -18.4015 -18.4011 -18.2556 -18.2410 -18.0340 -18.0134
   -17.6317 -17.6290 -17.3178 -17.2918 -17.2169 -17.1983 -16.9362 -16.9206
   -16.7844 -16.7788 -16.4874 -16.4834 -16.2316 -16.2303 -16.1426 -16.1400
   -15.5407 -15.5205 -14.8258 -14.8168 -14.7405 -14.7274 -14.5786 -14.5739
   -14.2185 -14.2118 -14.0929 -14.0618 -13.9345 -13.9298 -13.7691 -13.7433
   -13.5859 -13.5637 -13.0022 -12.9923 -12.8453 -12.8239 -12.4051 -12.3834
   -12.1834 -12.1674 -12.0244 -11.9997 -11.7945 -11.7624 -11.5478 -11.5410
   -11.3860 -11.3687 -11.2900 -11.2803 -10.9055 -10.8829 -10.7447 -10.7276
   -10.5229 -10.5118 -10.4234 -10.4076 -10.2504 -10.2236  -9.9270  -9.9069
    -9.7904  -9.7824  -9.6279  -9.6113  -9.5391  -9.5202  -9.2892  -9.2825
    -9.2651  -9.2513  -9.2334  -9.2090  -9.1991  -9.1839  -9.0141  -8.9959
    -8.8853  -8.8739  -8.8318  -8.8219  -8.7525  -8.7422  -8.5871  -8.5836
    -8.5164  -8.5129  -8.5035  -8.5021  -8.3500  -8.3395  -8.2386  -8.2260
    -8.1182  -8.1042  -8.0813  -8.0496  -7.8949  -7.8761  -7.8198  -7.8190
    -7.7371  -7.7351  -7.5581  -7.5442  -7.4753  -7.4593  -7.3500  -7.3399
    -7.2931  -7.2883  -7.2745  -7.2510  -6.9846  -6.9742  -6.8009  -6.7998
    -6.7975  -6.7931  -6.7286  -6.7082  -6.5095  -6.4899  -6.3504  -6.3327
    -6.1938  -6.1887  -6.0878  -6.0803  -6.0112  -6.0004  -5.7631  -5.7625
    -5.7472  -5.7413  -5.3641  -5.3631  -5.1889  -5.1721  -5.0203  -5.0055
    -4.7333  -4.7276  -4.6166  -4.6088  -4.4357  -4.4298  -4.0847  -4.0733
    -3.7394  -3.7338  -3.2561  -3.2310  -1.5741  -1.5494  -1.1565  -1.1345
    -0.8127  -0.8115  -0.5981  -0.5976  -0.4371  -0.4267  -0.1227  -0.1069
     0.0366   0.0537   0.1212   0.1463   0.6352   0.6445   0.7446   0.7497
     0.8679   0.8705   1.0410   1.0753   1.1251   1.1370   1.3121   1.3211
     1.4008   1.4415   1.4881   1.4944   1.5962   1.6110   1.6162   1.6268
     1.7973   1.8012   1.9567   1.9783   2.0591   2.0702   2.0992   2.1263
     2.1564   2.1583   2.2791   2.2912   2.2941   2.3059   2.3701   2.3838
     2.4308   2.4319   2.4388   2.4421   2.6210   2.6277   2.6394   2.6436
     2.6832   2.6943   2.7404   2.7541   2.8801   2.8856   2.9425   2.9674
     3.0319   3.0518   3.1345   3.1349   3.1372   3.1715   3.1975   3.2149
     3.2193   3.2475   3.2630   3.2647   3.2738   3.2870   3.3530   3.3608
     3.3912   3.3966   3.4997   3.5231   3.5425   3.5572   3.6087   3.6228
     3.6308   3.6382   3.6717   3.7128   3.7321   3.7356   3.7541   3.7570
     3.7820   3.8235   3.8762   3.9171   3.9374   3.9412   3.9478   3.9517
     4.0279   4.0415   4.0439   4.0764   4.0778   4.0959   4.1093   4.1222
     4.1628   4.1839   4.2696   4.2885   4.3336   4.3533   4.3556   4.3779
     4.4014   4.4271   4.4388   4.4439   4.5529   4.5755   4.5972   4.6304
     4.6305   4.6640   4.6662   4.6689   4.7317   4.7555   4.7601   4.7648
     4.8133   4.8286   4.8475   4.8630   4.8725   4.8877   4.9332   4.9376
     4.9484   4.9691   5.0206   5.0277   5.0503   5.0595   5.0783   5.0884
     5.1059   5.1172   5.1379   5.1546   5.1859   5.1910   5.1957   5.2110
     5.2515   5.2545   5.2662   5.2915   5.3059   5.3173   5.3183   5.3268
     5.4352   5.4479   5.5017   5.5137   5.5462   5.5570   5.5686   5.5717
     5.5820   5.5974   5.6375   5.6468   5.7065   5.7399   5.7569   5.7622
     5.7990   5.8040   5.8598   5.8609   5.8630   5.8980   5.9458   5.9528
     5.9561   5.9768   5.9843   5.9968   6.0331   6.0372   6.0417   6.0866
     6.0906   6.1019   6.1532   6.1722   6.1801   6.2060   6.2097   6.2299
     6.2580   6.2717   6.2784   6.2818   6.3143   6.3255   6.3668   6.3792
     6.3839   6.3844   6.3861   6.4040   6.4143   6.4387   6.4403   6.4411
     6.4479   6.4605   6.4760   6.4935   6.5169   6.5459   6.6108   6.6258
     6.6315   6.6438   6.6565   6.6597   6.6854   6.6871   6.7406   6.7657
     6.7988   6.8052   6.8232   6.8289   6.8302   6.8315   6.8668   6.8930
     6.9142   6.9223   6.9581   6.9604   6.9761   6.9889   7.0125   7.0579
     7.0881   7.1190   7.1220   7.1293   7.1633   7.1696   7.2485   7.2550
     7.2567   7.2628   7.2828   7.2874   7.2907   7.3190   7.3396   7.3407
     7.3731   7.4018   7.4086   7.4174   7.4251   7.4634   7.4739   7.4740
     7.5018   7.5115   7.5117   7.5196   7.5339   7.5391   7.5803   7.5827
     7.6167   7.6340   7.6500   7.6523   7.6592   7.6675   7.7090   7.7165
     7.7242   7.7377   7.7719   7.7834   7.7845   7.8123   7.8204   7.8605
     7.8825   7.8893   7.9109   7.9214   7.9387   7.9500   8.0107   8.0142
     8.0202   8.0498   8.0658   8.0773

          k = 0.0000 0.0000-0.0269 (156906 PWs)   bands (ev):

   -21.1765 -21.1764 -20.8218 -20.8218 -20.5163 -20.5163 -20.1309 -20.1309
   -19.9626 -19.9626 -19.6020 -19.6019 -19.4282 -19.4281 -18.9525 -18.9525
   -18.6873 -18.6871 -18.4015 -18.4014 -18.2485 -18.2484 -18.0238 -18.0236
   -17.6301 -17.6300 -17.3050 -17.3049 -17.2079 -17.2075 -16.9285 -16.9281
   -16.7815 -16.7814 -16.4853 -16.4851 -16.2311 -16.2309 -16.1417 -16.1414
   -15.5306 -15.5305 -14.8213 -14.8211 -14.7339 -14.7337 -14.5763 -14.5762
   -14.2153 -14.2150 -14.0775 -14.0773 -13.9318 -13.9317 -13.7568 -13.7566
   -13.5754 -13.5750 -12.9973 -12.9971 -12.8348 -12.8343 -12.3942 -12.3940
   -12.1751 -12.1751 -12.0117 -12.0116 -11.7782 -11.7779 -11.5451 -11.5450
   -11.3777 -11.3776 -11.2854 -11.2853 -10.8944 -10.8941 -10.7361 -10.7359
   -10.5167 -10.5165 -10.4167 -10.4166 -10.2367 -10.2365  -9.9169  -9.9168
    -9.7862  -9.7860  -9.6198  -9.6196  -9.5304  -9.5301  -9.2859  -9.2859
    -9.2577  -9.2573  -9.2214  -9.2211  -9.1918  -9.1917  -9.0052  -9.0050
    -8.8796  -8.8796  -8.8267  -8.8265  -8.7476  -8.7472  -8.5852  -8.5848
    -8.5100  -8.5095  -8.5074  -8.5074  -8.3443  -8.3443  -8.2330  -8.2330
    -8.1114  -8.1114  -8.0661  -8.0657  -7.8855  -7.8855  -7.8194  -7.8189
    -7.7363  -7.7357  -7.5513  -7.5512  -7.4672  -7.4672  -7.3456  -7.3447
    -7.2911  -7.2904  -7.2627  -7.2626  -6.9794  -6.9790  -6.7986  -6.7986
    -6.7971  -6.7967  -6.7183  -6.7182  -6.4997  -6.4995  -6.3420  -6.3412
    -6.1915  -6.1914  -6.0842  -6.0842  -6.0062  -6.0055  -5.7549  -5.7546
    -5.7523  -5.7520  -5.3631  -5.3631  -5.1809  -5.1807  -5.0130  -5.0126
    -4.7303  -4.7302  -4.6130  -4.6126  -4.4328  -4.4326  -4.0792  -4.0790
    -3.7368  -3.7365  -3.2437  -3.2435  -1.5618  -1.5617  -1.1450  -1.1449
    -0.8124  -0.8120  -0.5982  -0.5979  -0.4324  -0.4323  -0.1150  -0.1142
     0.0449   0.0451   0.1332   0.1339   0.6399   0.6400   0.7474   0.7474
     0.8687   0.8688   1.0580   1.0584   1.1309   1.1309   1.3170   1.3170
     1.4218   1.4219   1.4912   1.4912   1.6035   1.6035   1.6215   1.6216
     1.7996   1.7996   1.9668   1.9668   2.0653   2.0653   2.1125   2.1129
     2.1575   2.1575   2.2839   2.2840   2.2997   2.2997   2.3769   2.3769
     2.4350   2.4350   2.4365   2.4365   2.6298   2.6298   2.6356   2.6357
     2.6886   2.6886   2.7478   2.7478   2.8819   2.8820   2.9549   2.9549
     3.0420   3.0421   3.1369   3.1369   3.1532   3.1532   3.2068   3.2069
     3.2332   3.2333   3.2640   3.2641   3.2806   3.2806   3.3576   3.3577
     3.3914   3.3915   3.5214   3.5214   3.5401   3.5402   3.6193   3.6193
     3.6321   3.6321   3.6954   3.6954   3.7321   3.7321   3.7552   3.7552
     3.7993   3.7993   3.8976   3.8976   3.9439   3.9439   3.9443   3.9443
     4.0345   4.0346   4.0629   4.0629   4.0831   4.0831   4.1175   4.1175
     4.1736   4.1737   4.2791   4.2792   4.3442   4.3442   4.3644   4.3645
     4.4202   4.4202   4.4347   4.4347   4.5638   4.5639   4.6135   4.6135
     4.6487   4.6487   4.6668   4.6668   4.7505   4.7506   4.7580   4.7581
     4.8242   4.8242   4.8656   4.8657   4.8669   4.8669   4.9487   4.9487
     4.9516   4.9517   5.0163   5.0163   5.0552   5.0552   5.0839   5.0839
     5.1108   5.1109   5.1463   5.1464   5.1875   5.1875   5.2027   5.2027
     5.2702   5.2703   5.2828   5.2828   5.2950   5.2950   5.3156   5.3157
     5.4409   5.4410   5.5276   5.5276   5.5357   5.5357   5.5763   5.5765
     5.5815   5.5815   5.6424   5.6425   5.7293   5.7293   5.7520   5.7520
     5.8025   5.8027   5.8616   5.8616   5.8800   5.8800   5.9498   5.9498
     5.9701   5.9701   5.9887   5.9888   6.0323   6.0323   6.0641   6.0641
     6.0977   6.0979   6.1677   6.1679   6.1980   6.1981   6.2153   6.2154
     6.2623   6.2623   6.2823   6.2823   6.3200   6.3200   6.3752   6.3755
     6.3918   6.3918   6.3942   6.3944   6.4202   6.4202   6.4392   6.4392
     6.4498   6.4501   6.4817   6.4818   6.5315   6.5317   6.6241   6.6241
     6.6438   6.6442   6.6502   6.6502   6.6834   6.6835   6.7519   6.7521
     6.8125   6.8127   6.8165   6.8165   6.8275   6.8276   6.8819   6.8821
     6.9211   6.9211   6.9617   6.9622   6.9774   6.9776   7.0295   7.0295
     7.1035   7.1036   7.1263   7.1263   7.1661   7.1662   7.2524   7.2524
     7.2666   7.2666   7.2870   7.2871   7.3007   7.3007   7.3402   7.3404
     7.3971   7.3971   7.4146   7.4147   7.4419   7.4419   7.4666   7.4666
     7.5115   7.5116   7.5130   7.5130   7.5364   7.5365   7.5770   7.5771
     7.6275   7.6275   7.6521   7.6521   7.6654   7.6654   7.7207   7.7207
     7.7215   7.7215   7.7803   7.7803   7.7961   7.7962   7.8367   7.8367
     7.8858   7.8860   7.9162   7.9162   7.9483   7.9484   8.0172   8.0173
     8.0303   8.0303   8.0721   8.0722

     the Fermi energy is    -2.9412 ev

     Writing output data file V9_9.save/

     init_run     :     27.34s CPU     27.98s WALL (       1 calls)
     electrons    :  11679.45s CPU  11764.75s WALL (       1 calls)

     Called by init_run:
     wfcinit      :      0.00s CPU      0.00s WALL (       1 calls)
     potinit      :      1.70s CPU      1.87s WALL (       1 calls)
     hinit0       :     20.30s CPU     20.41s WALL (       1 calls)

     Called by electrons:
     c_bands      :  11679.42s CPU  11764.58s WALL (       1 calls)
     v_of_rho     :      1.12s CPU      1.17s WALL (       1 calls)
     newd         :      1.14s CPU      1.44s WALL (       1 calls)

     Called by c_bands:
     init_us_2    :      1.54s CPU      1.74s WALL (      26 calls)
     cegterg      :  11442.83s CPU  11519.09s WALL (      67 calls)

     Called by sum_band:

     Called by *egterg:
     h_psi        :   3166.04s CPU   3201.73s WALL (    1146 calls)
     s_psi        :    473.09s CPU    474.51s WALL (    1146 calls)
     g_psi        :     19.62s CPU     19.69s WALL (    1053 calls)
     cdiaghg      :   4231.27s CPU   4244.35s WALL (    1079 calls)

     Called by h_psi:
     h_psi:pot    :   3153.80s CPU   3184.07s WALL (    1146 calls)
     h_psi:calbec :    472.74s CPU    475.40s WALL (    1146 calls)
     vloc_psi     :   2208.26s CPU   2234.40s WALL (    1146 calls)
     add_vuspsi   :    472.78s CPU    474.25s WALL (    1146 calls)

     General routines
     calbec       :    472.73s CPU    475.39s WALL (    1146 calls)
     fft          :      1.29s CPU      1.37s WALL (      14 calls)
     ffts         :      0.01s CPU      0.01s WALL (       1 calls)
     fftw         :   1888.11s CPU   1910.96s WALL (  554462 calls)
     interpolate  :      0.08s CPU      0.09s WALL (       1 calls)
     davcio       :      0.00s CPU      5.69s WALL (      52 calls)

     Parallel routines
     fft_scatt_xy :    360.00s CPU    363.33s WALL (  554477 calls)
     fft_scatt_yz :    494.06s CPU    503.89s WALL (  554477 calls)

     PWSCF        :     3h16m CPU       16h 3m WALL

      24h

   This run was terminated on:  18:59:35  20Apr2021            

=------------------------------------------------------------------------------=
   JOB DONE.
=------------------------------------------------------------------------------=
