
     Program PWSCF v.6.3 starts on 20Apr2021 at 18:35:10 

     This program is part of the open-source Quantum ESPRESSO suite
     for quantum simulation of materials; please cite
         "P. Giannozzi et al., J. Phys.:Condens. Matter 21 395502 (2009);
         "P. Giannozzi et al., J. Phys.:Condens. Matter 29 465901 (2017);
          URL http://www.quantum-espresso.org", 
     in publications or presentations arising from this work. More details at
     http://www.quantum-espresso.org/quote

     Parallel version (MPI), running on    16 processors
     R & G space division:  proc/nbgrp/npool/nimage =      16
     Waiting for input...
     Reading input from standard input
     Message from routine read_cards :
     DEPRECATED: no units specified in CELL_PARAMETERS card

     Current dimensions of program PWSCF are:
     Max number of different atomic species (ntypx) = 10
     Max number of k-points (npk) =  40000
     Max angular momentum in pseudopotentials (lmaxx) =  3

     Atomic positions and unit cell read from directory:
     /home/zfwang/scratch/GNRDATASET/AGNR/V9_m9/V9_m9.save/


     Subspace diagonalization in iterative solution of the eigenvalue problem:
     a serial algorithm will be used


     Parallelization info
     --------------------
     sticks:   dense  smooth     PW     G-vecs:    dense   smooth      PW
     Min        2497     832    215               340421    65498    8607
     Max        2498     833    217               340424    65500    8609
     Sum       39953   13323   3447              5446765  1047987  137721



     bravais-lattice index     =            0
     lattice parameter (alat)  =       1.8897  a.u.
     unit-cell volume          =   30670.6798 (a.u.)^3
     number of atoms/cell      =          108
     number of atomic types    =            2
     number of electrons       =       360.00
     number of Kohn-Sham states=          500
     kinetic-energy cutoff     =      40.0000  Ry
     charge density cutoff     =     480.0000  Ry
     Exchange-correlation      = PBE ( 1  4  3  4 0 0)

     celldm(1)=  18.897261  celldm(2)=   2.931000  celldm(3)=   1.550640
     celldm(4)=   0.000000  celldm(5)=   0.000000  celldm(6)=   0.000000

     crystal axes: (cart. coord. in units of alat)
               a(1) = (  10.000000   0.000000   0.000000 )  
               a(2) = (   0.000000  29.310000   0.000000 )  
               a(3) = (   0.000000   0.000000  15.506400 )  

     reciprocal axes: (cart. coord. in units 2 pi/alat)
               b(1) = (  0.100000  0.000000  0.000000 )  
               b(2) = (  0.000000  0.034118  0.000000 )  
               b(3) = (  0.000000  0.000000  0.064490 )  


     PseudoPot. # 1 for C  read from file:
     /home/zfwang/hp_home/MySoftware/qe-6.3/pseudo/C.pbe-n-rrkjus_psl.0.1.UPF
     MD5 check sum: fff530ed632a789b3b184014e67dd7f1
     Pseudo is Ultrasoft + core correction, Zval =  4.0
     Generated using "atomic" code by A. Dal Corso v.5.0.2 svn rev. 9415
     Using radial grid of 1073 points,  4 beta functions with: 
                l(1) =   0
                l(2) =   0
                l(3) =   1
                l(4) =   1
     Q(r) pseudized with 0 coefficients 


     PseudoPot. # 2 for H  read from file:
     /home/zfwang/hp_home/MySoftware/qe-6.3/pseudo/H.pbe-rrkjus_psl.0.1.UPF
     MD5 check sum: e164a6907b691c6980f16942be34de84
     Pseudo is Ultrasoft, Zval =  1.0
     Generated using "atomic" code by A. Dal Corso v.5.0.2 svn rev. 9415
     Using radial grid of  929 points,  2 beta functions with: 
                l(1) =   0
                l(2) =   0
     Q(r) pseudized with 0 coefficients 


     atomic species   valence    mass     pseudopotential
        C              4.00    12.01070     C ( 1.00)
        H              1.00     1.00794     H ( 1.00)

     No symmetry found



   Cartesian axes

     site n.     atom                  positions (alat units)
         1           C   tau(   1) = (   5.0000026   5.8520070   2.8808533  )
         2           C   tau(   2) = (   5.0000000   5.8176874  14.0179457  )
         3           C   tau(   3) = (   5.0000023   7.0594384   3.5688725  )
         4           C   tau(   4) = (   5.0000003   7.0003031  14.7707855  )
         5           C   tau(   5) = (   5.0000020   5.8176873   1.4884598  )
         6           C   tau(   6) = (   4.9999985   5.8520076  12.6255511  )
         7           C   tau(   7) = (   5.0000016   8.2809486   2.8782129  )
         8           C   tau(   8) = (   4.9999997   8.2400873  14.0610387  )
         9           C   tau(   9) = (   5.0000003   9.5694128   3.5672688  )
        10           C   tau(  10) = (   4.9999971   9.7241992  10.5344411  )
        11           C   tau(  11) = (   5.0000001   9.4608444  14.7994623  )
        12           C   tau(  12) = (   5.0000011   7.0003051   0.7356185  )
        13           C   tau(  13) = (   4.9999977   7.0594374  11.9375340  )
        14           C   tau(  14) = (   5.0000010   8.2400867   1.4453669  )
        15           C   tau(  15) = (   4.9999986   8.2809451  12.6281876  )
        16           C   tau(  16) = (   4.9999963  10.7539381   2.7992581  )
        17           C   tau(  17) = (   4.9999919  10.9738743   9.9436079  )
        18           C   tau(  18) = (   4.9999995  10.6937134  14.1159041  )
        19           C   tau(  19) = (   4.9999900  12.0355940   3.4114694  )
        20           C   tau(  20) = (   4.9999833  12.1507473  10.7287596  )
        21           C   tau(  21) = (   5.0000034  11.9085306  14.8168471  )
        22           C   tau(  22) = (   5.0000002   9.4608521   0.7069389  )
        23           C   tau(  23) = (   5.0000011   9.7241966   4.9719525  )
        24           C   tau(  24) = (   4.9999966   9.5694139  11.9391446  )
        25           C   tau(  25) = (   4.9999988  10.6937025   1.3905087  )
        26           C   tau(  26) = (   4.9999995  10.9738789   5.5628036  )
        27           C   tau(  27) = (   4.9999953  10.7539312  12.7071296  )
        28           C   tau(  28) = (   4.9999877  13.2632168   2.6893155  )
        29           C   tau(  29) = (   5.0000652  13.6796340   6.5403471  )
        30           C   tau(  30) = (   4.9999752  13.5087809  10.2655971  )
        31           C   tau(  31) = (   5.0000016  13.1637276  14.1694365  )
        32           C   tau(  32) = (   4.9999754  14.5833134   3.2105426  )
        33           C   tau(  33) = (   5.0000386  14.9322395   7.0753831  )
        34           C   tau(  34) = (   4.9999816  14.7266978  10.9636912  )
        35           C   tau(  35) = (   5.0000107  14.3777880  14.8285196  )
        36           C   tau(  36) = (   5.0000026  11.9085319   0.6895453  )
        37           C   tau(  37) = (   4.9999954  12.1507446   4.7776150  )
        38           C   tau(  38) = (   4.9999885  12.0355934  12.0949643  )
        39           C   tau(  39) = (   5.0000039  13.1637585   1.3369867  )
        40           C   tau(  40) = (   5.0000062  13.5087810   5.2408440  )
        41           C   tau(  41) = (   4.9999614  13.6796447   8.9660225  )
        42           C   tau(  42) = (   4.9999889  13.2632269  12.8170475  )
        43           C   tau(  43) = (   4.9999903  15.8012106   2.5123716  )
        44           C   tau(  44) = (   5.0000190  16.1462672   6.4161949  )
        45           C   tau(  45) = (   4.9999822  16.0467801  10.4425446  )
        46           C   tau(  46) = (   4.9999951  15.6303284  14.2935546  )
        47           C   tau(  47) = (   4.9999912  17.1592593   2.9755669  )
        48           C   tau(  48) = (   5.0000098  17.4014673   7.0636729  )
        49           C   tau(  49) = (   4.9999857  17.2744056  11.1646416  )
        50           C   tau(  50) = (   5.0000222  14.3777222   0.6778714  )
        51           C   tau(  51) = (   4.9999829  14.7266956   4.5426559  )
        52           C   tau(  52) = (   4.9999976  14.9322385   8.4310263  )
        53           C   tau(  53) = (   4.9999850  14.5832954  12.2959054  )
        54           C   tau(  54) = (   5.0000309  15.6303886   1.2128357  )
        55           C   tau(  55) = (   5.0000010  16.0467808   5.0638853  )
        56           C   tau(  56) = (   4.9999942  16.1462652   9.0901850  )
        57           C   tau(  57) = (   4.9999868  15.8012183  12.9940327  )
        58           C   tau(  58) = (   4.9999960  18.3361223   2.1904033  )
        59           C   tau(  59) = (   5.0000056  18.6162918   6.3626888  )
        60           C   tau(  60) = (   4.9999935  18.5560677  10.5524704  )
        61           C   tau(  61) = (   5.0000016  19.5858026   2.7812398  )
        62           C   tau(  62) = (   5.0000038  19.8491522   7.0462669  )
        63           C   tau(  63) = (   4.9999972  19.7405854  11.3204583  )
        64           C   tau(  64) = (   4.9999970  17.2744049   4.3417515  )
        65           C   tau(  65) = (   5.0000045  17.4014724   8.4427311  )
        66           C   tau(  66) = (   4.9999865  17.1592565  12.5308343  )
        67           C   tau(  67) = (   5.0000036  18.5560678   4.9539349  )
        68           C   tau(  68) = (   4.9999998  18.6162884   9.1437069  )
        69           C   tau(  69) = (   4.9999939  18.3361225  13.3159954  )
        70           C   tau(  70) = (   5.0000031  21.0699104   6.3078332  )
        71           C   tau(  71) = (   5.0000003  21.0290545  10.6314130  )
        72           C   tau(  72) = (   5.0000015  22.3096953   7.0175836  )
        73           C   tau(  73) = (   5.0000011  22.2505606  11.3220692  )
        74           C   tau(  74) = (   5.0000036  19.7405850   4.1859374  )
        75           C   tau(  75) = (   5.0000019  19.8491530   8.4601324  )
        76           C   tau(  76) = (   4.9999979  19.5858019  12.7251605  )
        77           C   tau(  77) = (   5.0000035  21.0290540   4.8749856  )
        78           C   tau(  78) = (   5.0000009  21.0699110   9.1985642  )
        79           C   tau(  79) = (   5.0000002  23.4923112   6.2647415  )
        80           C   tau(  80) = (   5.0000012  23.4579907  10.6340504  )
        81           C   tau(  81) = (   5.0000020  22.2505597   4.1843284  )
        82           C   tau(  82) = (   5.0000010  22.3096961   8.4888147  )
        83           C   tau(  83) = (   5.0000004  23.4579918   4.8723480  )
        84           C   tau(  84) = (   5.0000008  23.4923118   9.2416572  )
        85           H   tau(  85) = (   5.0000030   4.9158537   3.4402057  )
        86           H   tau(  86) = (   5.0000006   4.8481224  14.5128821  )
        87           H   tau(  87) = (   5.0000024   7.0443984   4.6576523  )
        88           H   tau(  88) = (   5.0000022   4.8481229   0.9935241  )
        89           H   tau(  89) = (   4.9999978   4.9158522  12.0662006  )
        90           H   tau(  90) = (   5.0000024   8.8491205   9.8863949  )
        91           H   tau(  91) = (   4.9999959   7.0443953  10.8487505  )
        92           H   tau(  92) = (   4.9999964  11.0094270   8.8556250  )
        93           H   tau(  93) = (   5.0000024   8.8491222   5.6200116  )
        94           H   tau(  94) = (   4.9999995  11.0094295   6.6507732  )
        95           H   tau(  95) = (   5.0000962  12.7721181   7.0832932  )
        96           H   tau(  96) = (   4.9999426  12.7721163   8.4231103  )
        97           H   tau(  97) = (   4.9999897  16.5378909  14.8364944  )
        98           H   tau(  98) = (   5.0000547  16.5378760   0.6699125  )
        99           H   tau(  99) = (   4.9999939  18.3005699   1.1024242  )
       100           H   tau( 100) = (   5.0000028  20.4608771   2.1331831  )
       101           H   tau( 101) = (   4.9999971  18.3005734  14.4039758  )
       102           H   tau( 102) = (   5.0000011  22.2656011  12.4108522  )
       103           H   tau( 103) = (   5.0000024  20.4608799  13.3732123  )
       104           H   tau( 104) = (   4.9999987  24.4618763   6.7596766  )
       105           H   tau( 105) = (   5.0000012  24.3941443  11.1934035  )
       106           H   tau( 106) = (   5.0000016  22.2656020   3.0955459  )
       107           H   tau( 107) = (   4.9999991  24.3941459   4.3129948  )
       108           H   tau( 108) = (   5.0000004  24.4618766   8.7467224  )

     number of k points=    26  Marzari-Vanderbilt smearing, width (Ry)=  0.0100
                       cart. coord. in units 2pi/alat
        k(    1) = (   0.0000000   0.0000000   0.0000000), wk =   0.0400000
        k(    2) = (   0.0000000   0.0000000   0.0012898), wk =   0.0800000
        k(    3) = (   0.0000000   0.0000000   0.0025796), wk =   0.0800000
        k(    4) = (   0.0000000   0.0000000   0.0038694), wk =   0.0800000
        k(    5) = (   0.0000000   0.0000000   0.0051592), wk =   0.0800000
        k(    6) = (   0.0000000   0.0000000   0.0064490), wk =   0.0800000
        k(    7) = (   0.0000000   0.0000000   0.0077387), wk =   0.0800000
        k(    8) = (   0.0000000   0.0000000   0.0090285), wk =   0.0800000
        k(    9) = (   0.0000000   0.0000000   0.0103183), wk =   0.0800000
        k(   10) = (   0.0000000   0.0000000   0.0116081), wk =   0.0800000
        k(   11) = (   0.0000000   0.0000000   0.0128979), wk =   0.0800000
        k(   12) = (   0.0000000   0.0000000   0.0141877), wk =   0.0800000
        k(   13) = (   0.0000000   0.0000000   0.0154775), wk =   0.0800000
        k(   14) = (   0.0000000   0.0000000   0.0167673), wk =   0.0800000
        k(   15) = (   0.0000000   0.0000000   0.0180571), wk =   0.0800000
        k(   16) = (   0.0000000   0.0000000   0.0193469), wk =   0.0800000
        k(   17) = (   0.0000000   0.0000000   0.0206366), wk =   0.0800000
        k(   18) = (   0.0000000   0.0000000   0.0219264), wk =   0.0800000
        k(   19) = (   0.0000000   0.0000000   0.0232162), wk =   0.0800000
        k(   20) = (   0.0000000   0.0000000   0.0245060), wk =   0.0800000
        k(   21) = (   0.0000000   0.0000000   0.0257958), wk =   0.0800000
        k(   22) = (   0.0000000   0.0000000   0.0270856), wk =   0.0800000
        k(   23) = (   0.0000000   0.0000000   0.0283754), wk =   0.0800000
        k(   24) = (   0.0000000   0.0000000   0.0296652), wk =   0.0800000
        k(   25) = (   0.0000000   0.0000000   0.0309550), wk =   0.0800000
        k(   26) = (   0.0000000   0.0000000  -0.0322448), wk =   0.0400000

     Dense  grid:  5446765 G-vectors     FFT dimensions: ( 135, 400, 216)

     Smooth grid:  1047987 G-vectors     FFT dimensions: (  80, 225, 120)

     Estimated max dynamical RAM per process >       1.17 GB

     Estimated total dynamical RAM >      18.73 GB

     The potential is recalculated from file :
     /home/zfwang/scratch/GNRDATASET/AGNR/V9_m9/V9_m9.save/charge-density.dat


     negative rho (up, down):  2.426E-04 0.000E+00
     Starting wfcs are  360 randomized atomic wfcs +  140 random wfcs

     Band Structure Calculation
     Davidson diagonalization with overlap

     ethr =  2.78E-09,  avg # of iterations = 40.5

     total cpu time spent up to now is    10182.6 secs

     End of band structure calculation

          k = 0.0000 0.0000 0.0000 (130891 PWs)   bands (ev):

   -21.6651 -21.3406 -21.2635 -20.8490 -20.7911 -20.6563 -20.2712 -20.1862
   -20.1609 -19.9006 -19.8411 -19.7061 -19.5952 -19.3134 -19.1700 -18.9968
   -18.9200 -18.7351 -18.6155 -18.3054 -18.2958 -18.1328 -17.9667 -17.8540
   -17.6256 -17.5485 -17.4986 -17.3637 -17.1907 -17.0801 -16.9621 -16.8265
   -16.7284 -16.6875 -16.4714 -16.4563 -16.3223 -16.2442 -15.7578 -15.6998
   -15.6409 -15.2728 -14.9930 -14.7427 -14.6954 -14.6627 -14.5512 -14.3241
   -14.2554 -14.2525 -14.0585 -13.9510 -13.8431 -13.7364 -13.6549 -13.4501
   -13.4205 -13.0128 -12.8520 -12.7215 -12.7083 -12.4833 -12.4691 -12.4617
   -12.4126 -12.0110 -11.9862 -11.8970 -11.7553 -11.6441 -11.4528 -11.2970
   -11.2666 -11.0136 -11.0039 -10.8711 -10.7977 -10.7680 -10.6959 -10.5673
   -10.5408 -10.4140 -10.2063 -10.1101 -10.0958 -10.0514  -9.9856  -9.7747
    -9.7351  -9.6166  -9.4930  -9.4822  -9.3605  -9.2810  -9.2416  -9.1730
    -9.1463  -9.1103  -9.0964  -9.0770  -9.0138  -8.9001  -8.7842  -8.7381
    -8.6997  -8.6603  -8.6507  -8.6372  -8.5795  -8.5486  -8.4816  -8.4339
    -8.3990  -8.3187  -8.2634  -8.2567  -8.1666  -8.1130  -8.0379  -7.9396
    -7.9129  -7.9014  -7.8364  -7.7033  -7.6523  -7.6284  -7.5626  -7.5181
    -7.5119  -7.4510  -7.4475  -7.4446  -7.4126  -7.3090  -7.2373  -7.0053
    -7.0001  -6.9932  -6.9753  -6.8634  -6.7917  -6.6857  -6.6473  -6.5746
    -6.5403  -6.4894  -6.3716  -6.3225  -6.2363  -6.2333  -6.2194  -6.1007
    -5.9534  -5.8607  -5.8587  -5.8512  -5.6843  -5.5902  -5.4632  -5.4397
    -5.1545  -5.1119  -5.1061  -5.0451  -5.0254  -4.8544  -4.8501  -4.6872
    -4.5903  -4.4455  -4.4067  -4.3509  -4.2466  -4.1052  -4.0878  -3.7932
    -3.3433  -3.3012  -2.9745  -2.3498  -1.1846  -0.9358  -0.8430  -0.8278
    -0.4708  -0.3319  -0.2070  -0.0957  -0.0302   0.2340   0.2349   0.3410
     0.4427   0.4887   0.7340   0.9061   0.9619   0.9674   1.1424   1.2038
     1.2365   1.3548   1.3964   1.5657   1.5789   1.5861   1.6918   1.6959
     1.8013   1.8250   1.8305   1.8546   1.9256   2.0307   2.0922   2.1624
     2.1666   2.2067   2.3236   2.3728   2.3835   2.4792   2.5018   2.5469
     2.5862   2.6537   2.7476   2.7611   2.7686   2.7690   2.8483   2.8527
     2.8806   3.0029   3.0569   3.0592   3.0892   3.1121   3.1263   3.2516
     3.2517   3.2669   3.2837   3.3580   3.3580   3.3826   3.4031   3.4036
     3.4714   3.4867   3.4940   3.5352   3.6366   3.6509   3.6645   3.6858
     3.7543   3.7658   3.7989   3.8879   3.9020   3.9244   3.9254   3.9364
     3.9914   3.9914   4.0004   4.0340   4.0561   4.0680   4.1869   4.1888
     4.2200   4.2450   4.2606   4.3339   4.3703   4.3743   4.4855   4.5373
     4.5647   4.6122   4.6189   4.6243   4.6433   4.6549   4.6969   4.7326
     4.7562   4.7715   4.8132   4.8295   4.8402   4.8686   4.8693   4.9009
     4.9247   4.9403   4.9510   4.9526   4.9705   5.0107   5.0406   5.0733
     5.1043   5.1544   5.1587   5.2120   5.2370   5.2385   5.2431   5.2777
     5.2955   5.3740   5.4514   5.4558   5.4668   5.4895   5.5082   5.5276
     5.5328   5.5654   5.6246   5.6645   5.6767   5.6868   5.6909   5.7286
     5.7415   5.7871   5.8257   5.8614   5.8643   5.8715   5.8974   5.9732
     5.9750   5.9895   6.0281   6.0367   6.0544   6.0800   6.1589   6.1696
     6.1879   6.2633   6.2889   6.2956   6.3101   6.3109   6.3529   6.3833
     6.3834   6.4244   6.4307   6.4535   6.4605   6.4656   6.4828   6.4876
     6.4877   6.5319   6.5332   6.5646   6.5745   6.5923   6.6049   6.6289
     6.6700   6.6733   6.6835   6.6980   6.7302   6.7781   6.7859   6.7966
     6.8236   6.8489   6.8664   6.8835   6.9131   6.9596   6.9613   6.9813
     7.0246   7.0271   7.0505   7.0803   7.1217   7.1286   7.1873   7.1950
     7.1988   7.2004   7.2769   7.3284   7.3326   7.3361   7.3371   7.3399
     7.3488   7.3535   7.3934   7.4140   7.4209   7.4305   7.4521   7.4572
     7.4820   7.5115   7.5412   7.6180   7.6204   7.6269   7.6542   7.6657
     7.6833   7.7137   7.7275   7.7326   7.7645   7.7778   7.7960   7.8069
     7.8123   7.8146   7.8261   7.8347   7.8767   7.8822   7.9714   7.9735
     7.9784   7.9872   8.0012   8.0091   8.0329   8.0342   8.0371   8.0758
     8.0994   8.1366   8.1450   8.1453   8.1525   8.1541   8.1651   8.1999
     8.2310   8.2407   8.2969   8.3305   8.3341   8.3460   8.3997   8.4002
     8.4130   8.4404   8.4455   8.4508   8.4613   8.4726   8.4930   8.5103
     8.5397   8.5650   8.5928   8.6062   8.6381   8.6583   8.6814   8.6956
     8.6984   8.7141   8.7462   8.7678   8.7857   8.8018   8.8127   8.8259
     8.8322   8.8489   8.8605   8.9287   8.9324   8.9493   8.9677   9.0493
     9.0596   9.0603   9.0685   9.0762   9.0840   9.1054   9.1066   9.1325
     9.1451   9.1607   9.1850   9.1928

          k = 0.0000 0.0000 0.0013 (130901 PWs)   bands (ev):

   -21.6649 -21.3426 -21.2613 -20.8494 -20.7909 -20.6560 -20.2719 -20.1855
   -20.1620 -19.9028 -19.8381 -19.7058 -19.5954 -19.3135 -19.1696 -18.9973
   -18.9192 -18.7355 -18.6151 -18.3056 -18.2963 -18.1322 -17.9690 -17.8542
   -17.6255 -17.5476 -17.4978 -17.3637 -17.1909 -17.0790 -16.9628 -16.8260
   -16.7280 -16.6874 -16.4716 -16.4564 -16.3225 -16.2440 -15.7592 -15.6984
   -15.6410 -15.2749 -14.9926 -14.7424 -14.6955 -14.6638 -14.5493 -14.3237
   -14.2659 -14.2417 -14.0588 -13.9504 -13.8432 -13.7363 -13.6540 -13.4505
   -13.4211 -13.0127 -12.8534 -12.7267 -12.7029 -12.4945 -12.4650 -12.4574
   -12.4090 -12.0108 -11.9863 -11.8968 -11.7551 -11.6439 -11.4531 -11.2989
   -11.2656 -11.0130 -11.0034 -10.8710 -10.8034 -10.7656 -10.7026 -10.5580
   -10.5404 -10.4143 -10.2067 -10.1184 -10.0876 -10.0499  -9.9864  -9.7738
    -9.7352  -9.6164  -9.4929  -9.4850  -9.3592  -9.2823  -9.2418  -9.1727
    -9.1450  -9.1095  -9.1011  -9.0730  -9.0130  -8.9001  -8.7845  -8.7388
    -8.6997  -8.6598  -8.6514  -8.6369  -8.5801  -8.5483  -8.4817  -8.4335
    -8.3986  -8.3179  -8.2633  -8.2569  -8.1666  -8.1138  -8.0370  -7.9408
    -7.9137  -7.9015  -7.8356  -7.7026  -7.6540  -7.6327  -7.5623  -7.5185
    -7.5110  -7.4512  -7.4433  -7.4429  -7.4128  -7.3092  -7.2374  -7.0138
    -6.9935  -6.9923  -6.9752  -6.8639  -6.7911  -6.6858  -6.6475  -6.5742
    -6.5400  -6.4895  -6.3709  -6.3229  -6.2392  -6.2361  -6.2134  -6.1009
    -5.9534  -5.8648  -5.8542  -5.8507  -5.6859  -5.5888  -5.4647  -5.4403
    -5.1544  -5.1128  -5.1047  -5.0454  -5.0255  -4.8544  -4.8502  -4.6875
    -4.5897  -4.4459  -4.4061  -4.3509  -4.2459  -4.1055  -4.0874  -3.7931
    -3.3430  -3.3009  -2.9748  -2.3517  -1.1836  -0.9361  -0.8425  -0.8272
    -0.4706  -0.3319  -0.2071  -0.0964  -0.0294   0.2336   0.2350   0.3402
     0.4425   0.4898   0.7336   0.9063   0.9620   0.9670   1.1434   1.2040
     1.2361   1.3543   1.3953   1.5623   1.5757   1.5901   1.6917   1.6948
     1.7911   1.8308   1.8360   1.8562   1.9275   2.0304   2.0921   2.1625
     2.1673   2.2077   2.3238   2.3727   2.3838   2.4788   2.5021   2.5474
     2.5867   2.6544   2.7478   2.7598   2.7682   2.7689   2.8362   2.8650
     2.8820   3.0020   3.0438   3.0718   3.0876   3.0994   3.1390   3.2515
     3.2521   3.2678   3.2844   3.3524   3.3580   3.3860   3.3998   3.4036
     3.4753   3.4863   3.4995   3.5293   3.6150   3.6543   3.6634   3.7014
     3.7553   3.7632   3.8099   3.8856   3.8930   3.9075   3.9268   3.9548
     3.9876   3.9915   4.0043   4.0208   4.0707   4.0761   4.1867   4.1896
     4.2168   4.2482   4.2603   4.3305   4.3687   4.3763   4.4851   4.5417
     4.5645   4.6047   4.6134   4.6189   4.6550   4.6560   4.7014   4.7283
     4.7535   4.7722   4.8063   4.8160   4.8461   4.8704   4.8729   4.9032
     4.9074   4.9406   4.9560   4.9655   4.9703   5.0113   5.0410   5.0850
     5.1049   5.1435   5.1592   5.2187   5.2188   5.2396   5.2425   5.2835
     5.3153   5.3720   5.4501   5.4508   5.4562   5.4919   5.5188   5.5290
     5.5317   5.5656   5.6239   5.6608   5.6768   5.6820   5.6864   5.7284
     5.7405   5.8018   5.8291   5.8623   5.8648   5.8744   5.8969   5.9612
     5.9724   6.0035   6.0240   6.0345   6.0553   6.0811   6.1529   6.1792
     6.1850   6.2634   6.2896   6.2947   6.3036   6.3068   6.3555   6.3699
     6.3903   6.4109   6.4283   6.4479   6.4685   6.4721   6.4819   6.4889
     6.4934   6.5279   6.5373   6.5625   6.5650   6.5962   6.6053   6.6310
     6.6615   6.6760   6.6985   6.7002   6.7375   6.7768   6.7865   6.7970
     6.8239   6.8479   6.8676   6.8826   6.9058   6.9427   6.9626   6.9831
     7.0278   7.0419   7.0506   7.0875   7.1221   7.1275   7.1847   7.1910
     7.1977   7.2037   7.2681   7.3289   7.3330   7.3348   7.3375   7.3381
     7.3500   7.3518   7.3953   7.4008   7.4207   7.4323   7.4571   7.4729
     7.4793   7.5075   7.5418   7.6141   7.6155   7.6222   7.6554   7.6683
     7.6907   7.7129   7.7188   7.7271   7.7683   7.7827   7.7952   7.8077
     7.8092   7.8202   7.8273   7.8372   7.8800   7.8817   7.9678   7.9716
     7.9800   7.9847   8.0033   8.0077   8.0304   8.0345   8.0461   8.0717
     8.1009   8.1287   8.1342   8.1396   8.1482   8.1545   8.1651   8.2126
     8.2301   8.2607   8.2971   8.3271   8.3370   8.3506   8.3855   8.3940
     8.4010   8.4389   8.4493   8.4585   8.4685   8.4843   8.4908   8.5079
     8.5405   8.5724   8.5932   8.6049   8.6304   8.6635   8.6814   8.6960
     8.7059   8.7137   8.7456   8.7660   8.7684   8.8036   8.8047   8.8280
     8.8536   8.8564   8.8596   8.9240   8.9330   8.9529   8.9712   9.0485
     9.0536   9.0566   9.0586   9.0679   9.0758   9.0953   9.1179   9.1359
     9.1450   9.1665   9.1898   9.1911

          k = 0.0000 0.0000 0.0026 (130943 PWs)   bands (ev):

   -21.6645 -21.3483 -21.2554 -20.8505 -20.7902 -20.6552 -20.2739 -20.1835
   -20.1653 -19.9084 -19.8302 -19.7048 -19.5959 -19.3141 -19.1683 -18.9989
   -18.9169 -18.7368 -18.6139 -18.3059 -18.2975 -18.1306 -17.9759 -17.8548
   -17.6252 -17.5453 -17.4955 -17.3635 -17.1914 -17.0759 -16.9650 -16.8245
   -16.7268 -16.6871 -16.4721 -16.4565 -16.3230 -16.2437 -15.7633 -15.6946
   -15.6412 -15.2809 -14.9915 -14.7413 -14.6959 -14.6668 -14.5440 -14.3225
   -14.2776 -14.2295 -14.0597 -13.9489 -13.8436 -13.7361 -13.6511 -13.4516
   -13.4229 -13.0126 -12.8573 -12.7354 -12.6934 -12.5101 -12.4728 -12.4404
   -12.4000 -12.0099 -11.9866 -11.8961 -11.7545 -11.6435 -11.4542 -11.3038
   -11.2632 -11.0114 -11.0019 -10.8707 -10.8156 -10.7681 -10.7121 -10.5394
   -10.5359 -10.4151 -10.2077 -10.1314 -10.0750 -10.0455  -9.9888  -9.7710
    -9.7353  -9.6159  -9.4928  -9.4925  -9.3559  -9.2861  -9.2423  -9.1717
    -9.1412  -9.1105  -9.1073  -9.0654  -9.0109  -8.9004  -8.7855  -8.7411
    -8.6997  -8.6587  -8.6536  -8.6359  -8.5819  -8.5475  -8.4823  -8.4323
    -8.3976  -8.3156  -8.2639  -8.2565  -8.1665  -8.1162  -8.0344  -7.9443
    -7.9160  -7.9019  -7.8331  -7.7006  -7.6588  -7.6444  -7.5616  -7.5199
    -7.5084  -7.4496  -7.4396  -7.4320  -7.4132  -7.3099  -7.2379  -7.0249
    -6.9943  -6.9832  -6.9750  -6.8653  -6.7895  -6.6858  -6.6479  -6.5729
    -6.5392  -6.4898  -6.3691  -6.3240  -6.2492  -6.2354  -6.2035  -6.1014
    -5.9536  -5.8695  -5.8492  -5.8486  -5.6904  -5.5849  -5.4691  -5.4419
    -5.1543  -5.1145  -5.1017  -5.0462  -5.0258  -4.8544  -4.8503  -4.6884
    -4.5881  -4.4471  -4.4045  -4.3507  -4.2440  -4.1065  -4.0864  -3.7929
    -3.3421  -3.2998  -2.9757  -2.3574  -1.1805  -0.9369  -0.8412  -0.8255
    -0.4700  -0.3320  -0.2072  -0.0983  -0.0271   0.2325   0.2352   0.3380
     0.4419   0.4931   0.7325   0.9069   0.9625   0.9657   1.1462   1.2046
     1.2350   1.3530   1.3918   1.5523   1.5712   1.5968   1.6915   1.6916
     1.7752   1.8315   1.8544   1.8609   1.9330   2.0295   2.0918   2.1625
     2.1693   2.2108   2.3245   2.3725   2.3846   2.4776   2.5029   2.5489
     2.5882   2.6564   2.7484   2.7563   2.7670   2.7684   2.8223   2.8794
     2.8860   2.9994   3.0296   3.0818   3.0827   3.0849   3.1567   3.2510
     3.2534   3.2704   3.2866   3.3399   3.3578   3.3910   3.3931   3.4051
     3.4853   3.4860   3.5136   3.5137   3.5800   3.6548   3.6600   3.7300
     3.7371   3.7853   3.8299   3.8762   3.8795   3.8857   3.9216   3.9783
     3.9820   3.9919   4.0108   4.0131   4.0782   4.1065   4.1867   4.1916
     4.2109   4.2546   4.2592   4.3207   4.3650   4.3820   4.4841   4.5535
     4.5638   4.5824   4.6056   4.6171   4.6551   4.6724   4.7115   4.7164
     4.7434   4.7749   4.7938   4.7950   4.8452   4.8746   4.8785   4.8956
     4.9092   4.9174   4.9646   4.9697   5.0010   5.0118   5.0427   5.1069
     5.1120   5.1232   5.1609   5.1861   5.2280   5.2428   5.2431   5.3004
     5.3506   5.3660   5.4209   5.4468   5.4574   5.4986   5.5221   5.5331
     5.5400   5.5653   5.6216   5.6486   5.6508   5.6857   5.6966   5.7279
     5.7381   5.8323   5.8367   5.8658   5.8665   5.8830   5.8955   5.9429
     5.9699   6.0150   6.0227   6.0287   6.0566   6.0830   6.1453   6.1776
     6.1952   6.2632   6.2861   6.2914   6.2917   6.2973   6.3508   6.3610
     6.3891   6.3897   6.4220   6.4356   6.4755   6.4775   6.4893   6.4915
     6.5085   6.5150   6.5418   6.5490   6.5660   6.6033   6.6066   6.6301
     6.6574   6.6875   6.7066   6.7189   6.7513   6.7741   6.7855   6.7973
     6.8299   6.8452   6.8708   6.8800   6.8896   6.9158   6.9623   6.9876
     7.0297   7.0506   7.0744   7.1035   7.1245   7.1249   7.1806   7.1806
     7.1934   7.2099   7.2494   7.3207   7.3285   7.3299   7.3304   7.3396
     7.3518   7.3625   7.3804   7.3990   7.4310   7.4373   7.4518   7.4775
     7.4957   7.5039   7.5433   7.6028   7.6080   7.6134   7.6551   7.6746
     7.6914   7.7077   7.7157   7.7259   7.7758   7.7790   7.7934   7.7963
     7.8193   7.8255   7.8273   7.8579   7.8798   7.8870   7.9630   7.9662
     7.9717   7.9909   8.0022   8.0068   8.0177   8.0406   8.0638   8.0649
     8.0969   8.1036   8.1195   8.1290   8.1490   8.1576   8.1730   8.2325
     8.2332   8.2946   8.2991   8.3091   8.3487   8.3554   8.3643   8.3741
     8.4051   8.4349   8.4515   8.4572   8.4850   8.4944   8.4975   8.5039
     8.5460   8.5937   8.5951   8.6014   8.6151   8.6709   8.6826   8.6949
     8.7132   8.7259   8.7262   8.7578   8.7646   8.8005   8.8080   8.8244
     8.8571   8.8731   8.8875   8.9132   8.9348   8.9619   8.9777   9.0272
     9.0361   9.0431   9.0557   9.0716   9.0721   9.0742   9.0945   9.1428
     9.1713   9.1752   9.1763   9.2096

          k = 0.0000 0.0000 0.0039 (130929 PWs)   bands (ev):

   -21.6637 -21.3563 -21.2469 -20.8523 -20.7889 -20.6539 -20.2770 -20.1803
   -20.1708 -19.9155 -19.8195 -19.7033 -19.5968 -19.3151 -19.1663 -19.0012
   -18.9132 -18.7388 -18.6119 -18.3065 -18.2996 -18.1280 -17.9870 -17.8558
   -17.6246 -17.5420 -17.4915 -17.3632 -17.1923 -17.0706 -16.9687 -16.8221
   -16.7250 -16.6865 -16.4730 -16.4568 -16.3239 -16.2432 -15.7693 -15.6893
   -15.6414 -15.2908 -14.9895 -14.7396 -14.6966 -14.6712 -14.5363 -14.3202
   -14.2889 -14.2171 -14.0609 -13.9464 -13.8442 -13.7356 -13.6463 -13.4535
   -13.4259 -13.0123 -12.8639 -12.7447 -12.6829 -12.5252 -12.4824 -12.4231
   -12.3884 -12.0086 -11.9871 -11.8950 -11.7536 -11.6428 -11.4558 -11.3109
   -11.2602 -11.0091 -10.9995 -10.8701 -10.8298 -10.7865 -10.7101 -10.5377
   -10.5090 -10.4164 -10.2090 -10.1449 -10.0621 -10.0385  -9.9928  -9.7665
    -9.7357  -9.6150  -9.5049  -9.4917  -9.3512  -9.2919  -9.2429  -9.1701
    -9.1353  -9.1214  -9.1038  -9.0577  -9.0073  -8.9008  -8.7871  -8.7445
    -8.6998  -8.6589  -8.6555  -8.6342  -8.5848  -8.5461  -8.4831  -8.4302
    -8.3958  -8.3119  -8.2666  -8.2540  -8.1664  -8.1199  -8.0304  -7.9500
    -7.9200  -7.9025  -7.8293  -7.6972  -7.6661  -7.6613  -7.5604  -7.5224
    -7.5049  -7.4465  -7.4334  -7.4166  -7.4139  -7.3110  -7.2387  -7.0368
    -6.9957  -6.9747  -6.9746  -6.8675  -6.7869  -6.6857  -6.6487  -6.5708
    -6.5380  -6.4901  -6.3662  -6.3258  -6.2599  -6.2342  -6.1930  -6.1022
    -5.9538  -5.8739  -5.8468  -5.8426  -5.6972  -5.5792  -5.4763  -5.4446
    -5.1541  -5.1162  -5.0977  -5.0474  -5.0262  -4.8545  -4.8506  -4.6900
    -4.5854  -4.4489  -4.4020  -4.3504  -4.2409  -4.1081  -4.0845  -3.7926
    -3.3406  -3.2981  -2.9772  -2.3667  -1.1755  -0.9383  -0.8391  -0.8226
    -0.4690  -0.3322  -0.2073  -0.1012  -0.0234   0.2305   0.2355   0.3347
     0.4409   0.4983   0.7305   0.9078   0.9632   0.9640   1.1506   1.2056
     1.2331   1.3508   1.3863   1.5366   1.5676   1.6035   1.6867   1.6912
     1.7600   1.8325   1.8684   1.8741   1.9411   2.0282   2.0913   2.1625
     2.1725   2.2159   2.3257   2.3721   2.3859   2.4758   2.5043   2.5514
     2.5905   2.6596   2.7494   2.7508   2.7649   2.7676   2.8088   2.8922
     2.8938   2.9953   3.0154   3.0639   3.0749   3.0969   3.1747   3.2491
     3.2559   3.2740   3.2903   3.3243   3.3576   3.3816   3.4017   3.4074
     3.4835   3.4927   3.5011   3.5325   3.5423   3.6543   3.6549   3.7181
     3.7615   3.8118   3.8518   3.8573   3.8643   3.8716   3.9045   3.9774
     3.9926   4.0023   4.0173   4.0178   4.0892   4.1378   4.1871   4.1944
     4.2068   4.2573   4.2608   4.3059   4.3607   4.3914   4.4826   4.5592
     4.5628   4.5692   4.5885   4.6228   4.6548   4.6793   4.7001   4.7215
     4.7239   4.7791   4.7803   4.7854   4.8343   4.8792   4.8828   4.8921
     4.8943   4.9172   4.9686   4.9738   5.0077   5.0379   5.0473   5.1069
     5.1107   5.1434   5.1531   5.1653   5.2340   5.2443   5.2482   5.3250
     5.3566   5.3870   5.3887   5.4423   5.4593   5.5084   5.5146   5.5393
     5.5532   5.5600   5.6170   5.6226   5.6369   5.6857   5.7175   5.7273
     5.7362   5.8421   5.8635   5.8657   5.8777   5.8941   5.8962   5.9285
     5.9658   6.0060   6.0210   6.0423   6.0573   6.0828   6.1369   6.1685
     6.2091   6.2617   6.2622   6.2851   6.2889   6.2928   6.3268   6.3598
     6.3764   6.3819   6.4121   6.4237   6.4713   6.4716   6.4937   6.5004
     6.5094   6.5285   6.5301   6.5617   6.5679   6.6087   6.6099   6.6186
     6.6723   6.7003   6.7168   6.7394   6.7586   6.7724   6.7778   6.7962
     6.8411   6.8424   6.8758   6.8764   6.8805   6.8919   6.9607   6.9940
     7.0320   7.0497   7.1089   7.1145   7.1222   7.1320   7.1646   7.1773
     7.1879   7.2156   7.2277   7.3127   7.3168   7.3181   7.3193   7.3341
     7.3559   7.3762   7.3820   7.4024   7.4359   7.4438   7.4445   7.4771
     7.4838   7.5294   7.5452   7.5852   7.6050   7.6098   7.6515   7.6653
     7.6828   7.7174   7.7226   7.7272   7.7626   7.7771   7.7836   7.8152
     7.8199   7.8258   7.8269   7.8755   7.8923   7.8932   7.9517   7.9624
     7.9707   7.9811   7.9917   7.9945   8.0233   8.0511   8.0560   8.0796
     8.0858   8.0896   8.0987   8.1304   8.1529   8.1727   8.1753   8.2451
     8.2516   8.2836   8.2842   8.3303   8.3355   8.3392   8.3819   8.3884
     8.4123   8.4302   8.4447   8.4621   8.4765   8.4976   8.5058   8.5155
     8.5555   8.5967   8.5972   8.5996   8.6253   8.6684   8.6853   8.6870
     8.7097   8.7142   8.7536   8.7543   8.7647   8.7996   8.8129   8.8237
     8.8546   8.8907   8.8993   8.9219   8.9364   8.9722   8.9808   9.0093
     9.0156   9.0255   9.0484   9.0506   9.0708   9.0833   9.0836   9.1324
     9.1613   9.1854   9.2063   9.2124

          k = 0.0000 0.0000 0.0052 (130925 PWs)   bands (ev):

   -21.6626 -21.3657 -21.2368 -20.8547 -20.7872 -20.6521 -20.2811 -20.1782
   -20.1762 -19.9230 -19.8072 -19.7009 -19.5980 -19.3164 -19.1634 -19.0041
   -18.9084 -18.7415 -18.6093 -18.3073 -18.3023 -18.1246 -18.0016 -17.8574
   -17.6237 -17.5384 -17.4857 -17.3628 -17.1936 -17.0635 -16.9736 -16.8186
   -16.7230 -16.6854 -16.4743 -16.4572 -16.3251 -16.2425 -15.7763 -15.6829
   -15.6419 -15.3041 -14.9869 -14.7373 -14.6976 -14.6764 -14.5273 -14.3164
   -14.3000 -14.2047 -14.0623 -13.9434 -13.8450 -13.7350 -13.6397 -13.4561
   -13.4301 -13.0119 -12.8729 -12.7542 -12.6718 -12.5394 -12.4925 -12.4058
   -12.3756 -12.0068 -11.9878 -11.8934 -11.7524 -11.6419 -11.4578 -11.3196
   -11.2572 -11.0066 -10.9965 -10.8692 -10.8447 -10.8141 -10.6998 -10.5355
   -10.4821 -10.4174 -10.2100 -10.1585 -10.0494 -10.0293  -9.9981  -9.7599
    -9.7361  -9.6138  -9.5200  -9.4907  -9.3462  -9.2994  -9.2434  -9.1678
    -9.1330  -9.1278  -9.0993  -9.0504  -9.0025  -8.9016  -8.7893  -8.7490
    -8.6998  -8.6634  -8.6542  -8.6320  -8.5884  -8.5442  -8.4842  -8.4274
    -8.3935  -8.3069  -8.2715  -8.2495  -8.1663  -8.1246  -8.0252  -7.9574
    -7.9255  -7.9033  -7.8244  -7.6927  -7.6811  -7.6750  -7.5586  -7.5260
    -7.5010  -7.4423  -7.4249  -7.4148  -7.3983  -7.3125  -7.2397  -7.0491
    -6.9977  -6.9742  -6.9671  -6.8707  -6.7833  -6.6856  -6.6498  -6.5680
    -6.5362  -6.4904  -6.3623  -6.3283  -6.2708  -6.2326  -6.1822  -6.1034
    -5.9542  -5.8780  -5.8434  -5.8363  -5.7057  -5.5723  -5.4862  -5.4484
    -5.1538  -5.1177  -5.0931  -5.0491  -5.0269  -4.8545  -4.8509  -4.6922
    -4.5819  -4.4510  -4.3989  -4.3501  -4.2367  -4.1103  -4.0818  -3.7922
    -3.3384  -3.2957  -2.9792  -2.3795  -1.1687  -0.9401  -0.8361  -0.8188
    -0.4676  -0.3324  -0.2076  -0.1050  -0.0187   0.2278   0.2358   0.3306
     0.4395   0.5052   0.7277   0.9091   0.9619   0.9641   1.1562   1.2070
     1.2305   1.3478   1.3790   1.5164   1.5648   1.6094   1.6805   1.6907
     1.7467   1.8335   1.8782   1.8944   1.9510   2.0270   2.0908   2.1625
     2.1766   2.2230   2.3273   2.3716   2.3877   2.4733   2.5061   2.5549
     2.5936   2.6639   2.7441   2.7507   2.7619   2.7664   2.7959   2.9002
     2.9081   2.9900   3.0016   3.0462   3.0644   3.1076   3.1924   3.2445
     3.2598   3.2777   3.2956   3.3074   3.3575   3.3748   3.4105   3.4117
     3.4702   3.4813   3.5036   3.5185   3.5540   3.6461   3.6554   3.6994
     3.7935   3.8306   3.8372   3.8435   3.8701   3.8744   3.8834   3.9744
     3.9935   4.0253   4.0262   4.0267   4.1023   4.1676   4.1879   4.1982
     4.2082   4.2547   4.2661   4.2888   4.3564   4.4038   4.4808   4.5360
     4.5615   4.5697   4.5851   4.6293   4.6517   4.6675   4.6856   4.6979
     4.7262   4.7787   4.7816   4.7887   4.8188   4.8719   4.8824   4.8861
     4.8972   4.9262   4.9673   4.9789   4.9944   5.0560   5.0682   5.1014
     5.1170   5.1284   5.1606   5.1868   5.2383   5.2459   5.2560   5.3442
     5.3514   5.3525   5.4276   5.4375   5.4620   5.5057   5.5206   5.5410
     5.5470   5.5625   5.6100   5.6110   5.6213   5.6872   5.7267   5.7288
     5.7495   5.8428   5.8619   5.8764   5.8940   5.8957   5.9132   5.9335
     5.9607   5.9993   6.0127   6.0575   6.0619   6.0778   6.1259   6.1606
     6.2111   6.2334   6.2607   6.2740   6.2836   6.2922   6.3072   6.3433
     6.3688   6.3824   6.3994   6.4165   6.4491   6.4617   6.4992   6.5056
     6.5124   6.5352   6.5495   6.5716   6.5729   6.6042   6.6122   6.6148
     6.6942   6.7110   6.7293   6.7549   6.7552   6.7695   6.7782   6.7933
     6.8359   6.8368   6.8726   6.8755   6.8823   6.9012   6.9573   7.0024
     7.0337   7.0469   7.1167   7.1218   7.1333   7.1415   7.1448   7.1745
     7.1920   7.2050   7.2192   7.2979   7.3051   7.3064   7.3080   7.3241
     7.3603   7.3879   7.4020   7.4031   7.4185   7.4522   7.4540   7.4566
     7.4955   7.5416   7.5476   7.5656   7.5970   7.6284   7.6403   7.6470
     7.6913   7.7183   7.7201   7.7366   7.7477   7.7648   7.7851   7.8217
     7.8264   7.8307   7.8332   7.8689   7.8967   7.9209   7.9375   7.9424
     7.9639   7.9704   7.9832   7.9904   8.0383   8.0409   8.0608   8.0725
     8.0834   8.0839   8.1049   8.1367   8.1607   8.1737   8.1925   8.2555
     8.2558   8.2691   8.2713   8.3113   8.3237   8.3720   8.3993   8.4062
     8.4236   8.4327   8.4444   8.4632   8.4666   8.4900   8.5165   8.5258
     8.5631   8.5765   8.5964   8.6084   8.6387   8.6584   8.6859   8.6973
     8.7074   8.7173   8.7403   8.7754   8.7861   8.7887   8.8161   8.8366
     8.8541   8.8830   8.9068   8.9344   8.9551   8.9718   8.9812   8.9960
     8.9995   9.0092   9.0336   9.0430   9.0623   9.0852   9.1058   9.1191
     9.1593   9.1765   9.1937   9.2345

          k = 0.0000 0.0000 0.0064 (130949 PWs)   bands (ev):

   -21.6612 -21.3760 -21.2257 -20.8578 -20.7850 -20.6499 -20.2859 -20.1874
   -20.1713 -19.9304 -19.7944 -19.6976 -19.5995 -19.3181 -19.1598 -19.0073
   -18.9029 -18.7447 -18.6062 -18.3084 -18.3056 -18.1203 -18.0193 -17.8595
   -17.6227 -17.5350 -17.4780 -17.3620 -17.1953 -17.0545 -16.9796 -16.8141
   -16.7212 -16.6834 -16.4758 -16.4577 -16.3266 -16.2417 -15.7840 -15.6761
   -15.6425 -15.3204 -14.9835 -14.7347 -14.6988 -14.6818 -14.5181 -14.3108
   -14.3107 -14.1923 -14.0636 -13.9401 -13.8460 -13.7341 -13.6313 -13.4593
   -13.4356 -13.0114 -12.8842 -12.7639 -12.6601 -12.5524 -12.5023 -12.3890
   -12.3622 -12.0045 -11.9886 -11.8916 -11.7511 -11.6408 -11.4600 -11.3293
   -11.2543 -11.0050 -10.9930 -10.8678 -10.8600 -10.8429 -10.6868 -10.5328
   -10.4590 -10.4165 -10.2100 -10.1721 -10.0373 -10.0184 -10.0045  -9.7514
    -9.7367  -9.6122  -9.5374  -9.4892  -9.3414  -9.3081  -9.2436  -9.1648
    -9.1451  -9.1191  -9.0941  -9.0439  -8.9967  -8.9026  -8.7921  -8.7542
    -8.6999  -8.6694  -8.6528  -8.6290  -8.5923  -8.5419  -8.4856  -8.4239
    -8.3907  -8.3010  -8.2783  -8.2434  -8.1660  -8.1299  -8.0193  -7.9665
    -7.9324  -7.9044  -7.8186  -7.7025  -7.6873  -7.6850  -7.5563  -7.5303
    -7.4970  -7.4375  -7.4161  -7.4144  -7.3786  -7.3144  -7.2411  -7.0618
    -7.0002  -6.9736  -6.9603  -6.8746  -6.7788  -6.6854  -6.6511  -6.5645
    -6.5340  -6.4907  -6.3576  -6.3314  -6.2819  -6.2307  -6.1712  -6.1049
    -5.9547  -5.8817  -5.8390  -5.8297  -5.7152  -5.5648  -5.4987  -5.4531
    -5.1534  -5.1190  -5.0879  -5.0513  -5.0277  -4.8543  -4.8514  -4.6949
    -4.5777  -4.4534  -4.3952  -4.3496  -4.2318  -4.1130  -4.0780  -3.7917
    -3.3355  -3.2927  -2.9819  -2.3956  -1.1605  -0.9422  -0.8322  -0.8141
    -0.4659  -0.3327  -0.2078  -0.1094  -0.0130   0.2244   0.2360   0.3261
     0.4377   0.5135   0.7238   0.9108   0.9598   0.9653   1.1628   1.2088
     1.2271   1.3441   1.3702   1.4928   1.5628   1.6133   1.6732   1.6903
     1.7366   1.8344   1.8900   1.9147   1.9615   2.0262   2.0905   2.1624
     2.1813   2.2319   2.3293   2.3710   2.3901   2.4706   2.5085   2.5592
     2.5974   2.6691   2.7364   2.7524   2.7581   2.7644   2.7840   2.9095
     2.9223   2.9838   2.9883   3.0289   3.0518   3.1170   3.2097   3.2366
     3.2650   3.2799   3.2899   3.3024   3.3577   3.3724   3.4142   3.4230
     3.4487   3.4655   3.4786   3.5366   3.5769   3.6358   3.6560   3.6816
     3.8144   3.8150   3.8236   3.8399   3.8646   3.8848   3.8975   3.9737
     3.9947   4.0310   4.0374   4.0513   4.1157   4.1892   4.1917   4.2028
     4.2197   4.2512   4.2705   4.2721   4.3521   4.4184   4.4793   4.5132
     4.5499   4.5599   4.5971   4.6270   4.6403   4.6501   4.6696   4.6817
     4.7206   4.7803   4.7866   4.8005   4.8068   4.8623   4.8824   4.8890
     4.9010   4.9354   4.9660   4.9745   4.9791   5.0638   5.0669   5.1055
     5.1269   5.1396   5.1655   5.2209   5.2429   5.2481   5.2663   5.3151
     5.3296   5.3793   5.4333   5.4656   5.4657   5.4972   5.5108   5.5336
     5.5548   5.5676   5.6014   5.6062   5.6132   5.6905   5.7262   5.7289
     5.7783   5.8404   5.8534   5.8649   5.8956   5.9166   5.9332   5.9560
     5.9628   5.9957   6.0046   6.0574   6.0667   6.0816   6.1107   6.1548
     6.2000   6.2030   6.2494   6.2584   6.2591   6.3065   6.3079   6.3276
     6.3526   6.3848   6.3918   6.4157   6.4276   6.4482   6.4940   6.5059
     6.5231   6.5522   6.5646   6.5820   6.5821   6.5912   6.6158   6.6178
     6.7084   6.7115   6.7422   6.7515   6.7653   6.7671   6.7887   6.7985
     6.8259   6.8295   6.8677   6.8697   6.8904   6.9287   6.9515   7.0147
     7.0311   7.0441   7.1092   7.1212   7.1255   7.1283   7.1643   7.1766
     7.1819   7.2088   7.2197   7.2746   7.2886   7.3000   7.3015   7.3190
     7.3589   7.3915   7.4058   7.4155   7.4180   7.4342   7.4581   7.4697
     7.5109   7.5459   7.5462   7.5511   7.5881   7.6159   7.6442   7.6582
     7.7000   7.7082   7.7239   7.7336   7.7357   7.7597   7.7784   7.8144
     7.8324   7.8402   7.8436   7.8646   7.8976   7.9131   7.9227   7.9281
     7.9550   7.9695   7.9731   8.0000   8.0290   8.0545   8.0562   8.0793
     8.0796   8.0913   8.1192   8.1403   8.1715   8.1734   8.2160   8.2284
     8.2351   8.2850   8.2891   8.2949   8.3275   8.3910   8.3984   8.4107
     8.4412   8.4513   8.4522   8.4631   8.4663   8.4819   8.5217   8.5315
     8.5551   8.5662   8.6025   8.6071   8.6234   8.6832   8.6832   8.7067
     8.7092   8.7211   8.7331   8.7812   8.7892   8.8173   8.8175   8.8524
     8.8569   8.8645   8.9173   8.9375   8.9479   8.9664   8.9756   8.9892
     8.9999   9.0235   9.0309   9.0324   9.0454   9.0932   9.1147   9.1345
     9.1354   9.1586   9.2005   9.2093

          k = 0.0000 0.0000 0.0077 (130913 PWs)   bands (ev):

   -21.6595 -21.3866 -21.2141 -20.8614 -20.7824 -20.6473 -20.2913 -20.1980
   -20.1660 -19.9373 -19.7817 -19.6932 -19.6014 -19.3203 -19.1554 -19.0106
   -18.8967 -18.7483 -18.6026 -18.3097 -18.3093 -18.1153 -18.0393 -17.8622
   -17.6214 -17.5322 -17.4687 -17.3608 -17.1973 -17.0439 -16.9867 -16.8085
   -16.7200 -16.6802 -16.4776 -16.4584 -16.3284 -16.2408 -15.7921 -15.6691
   -15.6434 -15.3393 -14.9793 -14.7317 -14.7002 -14.6873 -14.5097 -14.3212
   -14.3024 -14.1800 -14.0647 -13.9366 -13.8473 -13.7330 -13.6211 -13.4633
   -13.4423 -13.0108 -12.8975 -12.7738 -12.6479 -12.5643 -12.5116 -12.3728
   -12.3484 -12.0020 -11.9894 -11.8895 -11.7499 -11.6396 -11.4622 -11.3399
   -11.2516 -11.0063 -10.9894 -10.8766 -10.8675 -10.8658 -10.6730 -10.5299
   -10.4454 -10.4093 -10.2082 -10.1857 -10.0273 -10.0106 -10.0063  -9.7407
    -9.7374  -9.6103  -9.5563  -9.4872  -9.3373  -9.3176  -9.2431  -9.1611
    -9.1575  -9.1096  -9.0884  -9.0383  -8.9901  -8.9040  -8.7954  -8.7599
    -8.7000  -8.6764  -8.6525  -8.6254  -8.5957  -8.5391  -8.4872  -8.4196
    -8.3875  -8.2942  -8.2869  -8.2358  -8.1655  -8.1356  -8.0128  -7.9770
    -7.9409  -7.9058  -7.8121  -7.7242  -7.6955  -7.6810  -7.5534  -7.5351
    -7.4932  -7.4323  -7.4177  -7.4023  -7.3581  -7.3167  -7.2428  -7.0748
    -7.0032  -6.9729  -6.9543  -6.8793  -6.7733  -6.6851  -6.6525  -6.5603
    -6.5313  -6.4909  -6.3523  -6.3349  -6.2931  -6.2284  -6.1601  -6.1067
    -5.9553  -5.8851  -5.8336  -5.8228  -5.7255  -5.5571  -5.5134  -5.4587
    -5.1529  -5.1202  -5.0820  -5.0538  -5.0287  -4.8541  -4.8520  -4.6982
    -4.5729  -4.4560  -4.3913  -4.3489  -4.2263  -4.1162  -4.0731  -3.7912
    -3.3318  -3.2890  -2.9851  -2.4148  -1.1510  -0.9446  -0.8275  -0.8087
    -0.4638  -0.3331  -0.2082  -0.1143  -0.0065   0.2204   0.2360   0.3218
     0.4356   0.5229   0.7188   0.9128   0.9581   0.9668   1.1698   1.2109
     1.2231   1.3398   1.3603   1.4671   1.5613   1.6141   1.6652   1.6900
     1.7307   1.8347   1.9033   1.9347   1.9721   2.0263   2.0907   2.1623
     2.1864   2.2423   2.3318   2.3703   2.3929   2.4677   2.5114   2.5643
     2.6015   2.6751   2.7284   2.7533   2.7544   2.7610   2.7741   2.9196
     2.9363   2.9756   2.9772   3.0120   3.0374   3.1249   3.2253   3.2264
     3.2713   3.2722   3.2786   3.3106   3.3586   3.3750   3.4181   3.4223
     3.4353   3.4368   3.4759   3.5534   3.6004   3.6240   3.6567   3.6651
     3.7913   3.8047   3.8050   3.8505   3.8698   3.9008   3.9207   3.9762
     3.9960   4.0318   4.0527   4.0760   4.1277   4.1909   4.2087   4.2098
     4.2402   4.2468   4.2588   4.2758   4.3482   4.4336   4.4795   4.4910
     4.5296   4.5574   4.5957   4.6062   4.6156   4.6418   4.6602   4.6872
     4.7035   4.7744   4.7804   4.8155   4.8194   4.8651   4.8760   4.8913
     4.9041   4.9433   4.9555   4.9647   4.9769   5.0368   5.0768   5.1139
     5.1406   5.1696   5.1747   5.2488   5.2508   5.2525   5.2793   5.2808
     5.3133   5.4002   5.4337   5.4703   5.4739   5.4908   5.5058   5.5439
     5.5588   5.5688   5.5954   5.5957   5.6223   5.6948   5.7260   5.7300
     5.8091   5.8357   5.8417   5.8468   5.8981   5.9368   5.9515   5.9559
     5.9955   5.9971   5.9982   6.0502   6.0566   6.0908   6.1017   6.1497
     6.1718   6.1848   6.2076   6.2405   6.2578   6.3053   6.3094   6.3349
     6.3356   6.3712   6.4018   6.4110   6.4207   6.4315   6.4860   6.5027
     6.5347   6.5707   6.5727   6.5800   6.5894   6.6008   6.6188   6.6202
     6.6901   6.7147   6.7531   6.7554   6.7687   6.7751   6.7984   6.8193
     6.8214   6.8219   6.8671   6.8687   6.8999   6.9432   6.9437   7.0204
     7.0313   7.0450   7.0899   7.1042   7.1273   7.1335   7.1586   7.1597
     7.1967   7.2176   7.2293   7.2476   7.2711   7.2922   7.3001   7.3198
     7.3475   7.3829   7.3960   7.4227   7.4240   7.4444   7.4598   7.4856
     7.5281   7.5313   7.5523   7.5576   7.5785   7.5931   7.6436   7.6754
     7.7001   7.7076   7.7268   7.7293   7.7345   7.7539   7.7679   7.8023
     7.8055   7.8528   7.8532   7.8600   7.8957   7.9064   7.9158   7.9252
     7.9305   7.9611   7.9703   8.0151   8.0294   8.0471   8.0647   8.0817
     8.0893   8.1152   8.1266   8.1370   8.1806   8.1839   8.2068   8.2131
     8.2419   8.2889   8.2996   8.3115   8.3377   8.3905   8.3981   8.4113
     8.4392   8.4509   8.4613   8.4739   8.4864   8.4935   8.5073   8.5347
     8.5478   8.5649   8.5813   8.6125   8.6457   8.6728   8.6833   8.7055
     8.7157   8.7233   8.7485   8.7882   8.8055   8.8194   8.8290   8.8564
     8.8624   8.8630   8.9201   8.9220   8.9484   8.9563   8.9589   8.9975
     9.0143   9.0278   9.0329   9.0350   9.0431   9.0885   9.1042   9.1190
     9.1570   9.1610   9.1759   9.2052

          k = 0.0000 0.0000 0.0090 (130919 PWs)   bands (ev):

   -21.6575 -21.3975 -21.2020 -20.8656 -20.7792 -20.6445 -20.2970 -20.2099
   -20.1602 -19.9439 -19.7697 -19.6873 -19.6035 -19.3229 -19.1502 -19.0138
   -18.8900 -18.7523 -18.5988 -18.3133 -18.3113 -18.1097 -18.0611 -17.8655
   -17.6199 -17.5300 -17.4581 -17.3591 -17.1996 -17.0319 -16.9946 -16.8018
   -16.7198 -16.6757 -16.4797 -16.4592 -16.3304 -16.2399 -15.8003 -15.6621
   -15.6446 -15.3602 -14.9745 -14.7287 -14.7019 -14.6926 -14.5030 -14.3312
   -14.2913 -14.1678 -14.0653 -13.9332 -13.8488 -13.7317 -13.6094 -13.4678
   -13.4502 -13.0102 -12.9126 -12.7841 -12.6353 -12.5750 -12.5198 -12.3573
   -12.3346 -11.9993 -11.9902 -11.8871 -11.7489 -11.6385 -11.4642 -11.3512
   -11.2490 -11.0130 -10.9859 -10.8958 -10.8826 -10.8630 -10.6590 -10.5269
   -10.4424 -10.3956 -10.2041 -10.1991 -10.0274 -10.0082  -9.9936  -9.7380
    -9.7279  -9.6080  -9.5762  -9.4846  -9.3341  -9.3278  -9.2418  -9.1702
    -9.1566  -9.0994  -9.0824  -9.0335  -8.9829  -8.9060  -8.7993  -8.7659
    -8.7002  -8.6840  -8.6537  -8.6213  -8.5981  -8.5360  -8.4891  -8.4148
    -8.3840  -8.2975  -8.2869  -8.2269  -8.1647  -8.1415  -8.0058  -7.9887
    -7.9507  -7.9074  -7.8053  -7.7456  -7.7062  -7.6741  -7.5498  -7.5401
    -7.4895  -7.4268  -7.4196  -7.3891  -7.3374  -7.3193  -7.2448  -7.0882
    -7.0068  -6.9721  -6.9493  -6.8847  -6.7671  -6.6846  -6.6540  -6.5556
    -6.5282  -6.4910  -6.3464  -6.3388  -6.3044  -6.2258  -6.1488  -6.1089
    -5.9560  -5.8883  -5.8272  -5.8156  -5.7363  -5.5495  -5.5302  -5.4652
    -5.1524  -5.1214  -5.0756  -5.0567  -5.0300  -4.8536  -4.8527  -4.7020
    -4.5679  -4.4585  -4.3871  -4.3482  -4.2207  -4.1199  -4.0668  -3.7907
    -3.3274  -3.2847  -2.9889  -2.4367  -1.1407  -0.9471  -0.8220  -0.8026
    -0.4613  -0.3335  -0.2086  -0.1194   0.0007   0.2157   0.2357   0.3179
     0.4330   0.5332   0.7126   0.9152   0.9569   0.9685   1.1766   1.2134
     1.2185   1.3348   1.3497   1.4404   1.5600   1.6115   1.6566   1.6898
     1.7293   1.8344   1.9179   1.9542   1.9821   2.0275   2.0917   2.1621
     2.1915   2.2540   2.3348   2.3693   2.3963   2.4648   2.5147   2.5701
     2.6056   2.6816   2.7202   2.7477   2.7553   2.7567   2.7674   2.9302
     2.9497   2.9636   2.9706   2.9957   3.0220   3.1316   3.2112   3.2424
     3.2547   3.2716   3.2781   3.3201   3.3603   3.3824   3.3854   3.4214
     3.4262   3.4485   3.4736   3.5653   3.6132   3.6239   3.6501   3.6571
     3.7682   3.7872   3.7886   3.8410   3.9042   3.9095   3.9436   3.9821
     3.9977   4.0278   4.0718   4.1004   4.1368   4.1928   4.2159   4.2281
     4.2415   4.2522   4.2564   4.2873   4.3448   4.4462   4.4696   4.4842
     4.5089   4.5526   4.5696   4.5728   4.6160   4.6179   4.6730   4.6785
     4.6974   4.7539   4.7816   4.8321   4.8411   4.8615   4.8765   4.8931
     4.9056   4.9442   4.9465   4.9641   4.9773   5.0086   5.0848   5.1229
     5.1567   5.1734   5.2117   5.2388   5.2544   5.2566   5.2886   5.2939
     5.2970   5.4057   5.4415   5.4469   5.4761   5.4884   5.5397   5.5446
     5.5528   5.5669   5.5965   5.5995   5.6357   5.6990   5.7262   5.7329
     5.8277   5.8286   5.8293   5.8399   5.9006   5.9464   5.9517   5.9809
     5.9959   5.9991   6.0288   6.0306   6.0506   6.0716   6.1222   6.1404
     6.1436   6.1641   6.1703   6.2241   6.2556   6.2890   6.3108   6.3224
     6.3402   6.3726   6.3988   6.4020   6.4237   6.4302   6.4774   6.4976
     6.5450   6.5711   6.5750   6.5911   6.5953   6.6184   6.6203   6.6252
     6.6715   6.7089   6.7527   6.7602   6.7761   6.7767   6.8131   6.8202
     6.8232   6.8469   6.8701   6.8722   6.9105   6.9346   6.9406   7.0046
     7.0327   7.0471   7.0749   7.1035   7.1308   7.1355   7.1451   7.1475
     7.2081   7.2168   7.2181   7.2503   7.2541   7.2838   7.3034   7.3245
     7.3350   7.3688   7.3796   7.4261   7.4323   7.4558   7.4585   7.5079
     7.5184   7.5450   7.5652   7.5684   7.5706   7.5805   7.6436   7.6571
     7.7043   7.7118   7.7200   7.7327   7.7374   7.7571   7.7597   7.7671
     7.7967   7.8344   7.8529   7.8578   7.8876   7.9010   7.9209   7.9278
     7.9340   7.9517   7.9653   8.0132   8.0315   8.0489   8.0529   8.0980
     8.1008   8.1275   8.1331   8.1487   8.1825   8.1947   8.1967   8.2084
     8.2686   8.2933   8.3138   8.3331   8.3511   8.3798   8.4008   8.4140
     8.4211   8.4386   8.4757   8.4867   8.4879   8.5015   8.5074   8.5295
     8.5611   8.5653   8.5668   8.6222   8.6546   8.6582   8.6738   8.7221
     8.7247   8.7261   8.7574   8.8046   8.8107   8.8230   8.8236   8.8594
     8.8640   8.8696   8.9049   8.9275   8.9345   8.9551   8.9796   8.9886
     9.0087   9.0154   9.0323   9.0351   9.0718   9.0737   9.1163   9.1281
     9.1481   9.1541   9.1704   9.2080

          k = 0.0000 0.0000 0.0103 (130923 PWs)   bands (ev):

   -21.6552 -21.4085 -21.1897 -20.8702 -20.7755 -20.6414 -20.3030 -20.2227
   -20.1541 -19.9501 -19.7587 -19.6798 -19.6060 -19.3260 -19.1444 -19.0168
   -18.8831 -18.7563 -18.5947 -18.3175 -18.3132 -18.1037 -18.0844 -17.8692
   -17.6182 -17.5285 -17.4469 -17.3567 -17.2024 -17.0188 -17.0033 -16.7938
   -16.7206 -16.6700 -16.4819 -16.4601 -16.3326 -16.2391 -15.8085 -15.6552
   -15.6464 -15.3826 -14.9689 -14.7257 -14.7038 -14.6976 -14.4982 -14.3409
   -14.2770 -14.1558 -14.0655 -13.9300 -13.8505 -13.7300 -13.5962 -13.4728
   -13.4595 -13.0095 -12.9292 -12.7946 -12.6228 -12.5847 -12.5266 -12.3428
   -12.3208 -11.9967 -11.9909 -11.8846 -11.7483 -11.6374 -11.4657 -11.3629
   -11.2465 -11.0269 -10.9828 -10.9131 -10.8905 -10.8594 -10.6454 -10.5240
   -10.4440 -10.3817 -10.2124 -10.1970 -10.0364  -9.9986  -9.9806  -9.7387
    -9.7131  -9.6054  -9.5966  -9.4812  -9.3383  -9.3319  -9.2395  -9.1830
    -9.1514  -9.0889  -9.0762  -9.0297  -8.9755  -8.9086  -8.8036  -8.7721
    -8.7004  -8.6922  -8.6570  -8.6165  -8.5988  -8.5326  -8.4911  -8.4095
    -8.3805  -8.3102  -8.2793  -8.2168  -8.1636  -8.1476  -8.0015  -7.9986
    -7.9618  -7.9092  -7.7985  -7.7658  -7.7168  -7.6670  -7.5454  -7.5452
    -7.4859  -7.4220  -7.4211  -7.3751  -7.3224  -7.3170  -7.2471  -7.1017
    -7.0109  -6.9713  -6.9451  -6.8908  -6.7601  -6.6839  -6.6554  -6.5504
    -6.5248  -6.4911  -6.3431  -6.3403  -6.3156  -6.2229  -6.1374  -6.1114
    -5.9570  -5.8910  -5.8199  -5.8081  -5.7475  -5.5489  -5.5423  -5.4723
    -5.1518  -5.1224  -5.0686  -5.0598  -5.0314  -4.8537  -4.8529  -4.7063
    -4.5628  -4.4611  -4.3827  -4.3473  -4.2151  -4.1239  -4.0590  -3.7903
    -3.3221  -3.2797  -2.9932  -2.4611  -1.1297  -0.9497  -0.8157  -0.7960
    -0.4585  -0.3341  -0.2090  -0.1248   0.0085   0.2106   0.2349   0.3149
     0.4302   0.5443   0.7050   0.9179   0.9566   0.9704   1.1825   1.2133
     1.2161   1.3295   1.3384   1.4138   1.5582   1.6061   1.6477   1.6897
     1.7321   1.8331   1.9336   1.9727   1.9913   2.0301   2.0940   2.1617
     2.1966   2.2665   2.3382   2.3681   2.4002   2.4621   2.5184   2.5764
     2.6092   2.6886   2.7123   2.7412   2.7483   2.7592   2.7632   2.9403
     2.9523   2.9593   2.9676   2.9801   3.0064   3.1373   3.1954   3.2375
     3.2576   3.2582   3.2846   3.3309   3.3480   3.3635   3.3939   3.4233
     3.4247   3.4621   3.4720   3.5649   3.6086   3.6373   3.6463   3.6566
     3.7490   3.7713   3.7720   3.8351   3.9105   3.9383   3.9656   3.9905
     4.0000   4.0200   4.0900   4.1242   4.1451   4.1950   4.2248   4.2354
     4.2472   4.2549   4.2631   4.3072   4.3423   4.4492   4.4530   4.4877
     4.4960   4.5321   4.5429   4.5449   4.6027   4.6169   4.6498   4.6853
     4.7100   4.7316   4.7838   4.8283   4.8616   4.8626   4.8927   4.8937
     4.9039   4.9411   4.9428   4.9649   4.9832   4.9855   5.0914   5.1304
     5.1732   5.1752   5.2058   5.2423   5.2601   5.2660   5.2783   5.3120
     5.3128   5.4022   5.4138   5.4642   5.4830   5.4926   5.5383   5.5401
     5.5627   5.5698   5.6055   5.6143   5.6532   5.7015   5.7267   5.7375
     5.8097   5.8182   5.8188   5.8694   5.9028   5.9396   5.9558   5.9915
     6.0063   6.0081   6.0184   6.0284   6.0527   6.0661   6.1099   6.1223
     6.1361   6.1429   6.1575   6.2151   6.2485   6.2714   6.3067   6.3217
     6.3262   6.3701   6.3894   6.4018   6.4372   6.4430   6.4686   6.4917
     6.5531   6.5644   6.5791   6.5961   6.6001   6.6206   6.6307   6.6382
     6.6644   6.7010   6.7468   6.7627   6.7775   6.7807   6.8031   6.8295
     6.8449   6.8725   6.8731   6.8835   6.9213   6.9250   6.9278   6.9859
     7.0133   7.0482   7.0620   7.1130   7.1222   7.1315   7.1407   7.1594
     7.1871   7.2031   7.2201   7.2394   7.2717   7.2753   7.3107   7.3272
     7.3325   7.3415   7.3799   7.4212   7.4349   7.4472   7.4674   7.5122
     7.5345   7.5369   7.5671   7.5831   7.5845   7.5993   7.6321   7.6390
     7.7017   7.7091   7.7132   7.7165   7.7194   7.7479   7.7510   7.7898
     7.7990   7.8138   7.8282   7.8539   7.8662   7.9047   7.9306   7.9348
     7.9453   7.9505   7.9651   8.0041   8.0272   8.0274   8.0621   8.1021
     8.1191   8.1248   8.1316   8.1772   8.1829   8.1938   8.2134   8.2264
     8.2942   8.3057   8.3294   8.3517   8.3568   8.3765   8.3969   8.4031
     8.4175   8.4248   8.4670   8.4817   8.4990   8.5042   8.5172   8.5335
     8.5574   8.5721   8.5840   8.6265   8.6294   8.6453   8.7026   8.7187
     8.7411   8.7420   8.7636   8.7736   8.8267   8.8360   8.8395   8.8423
     8.8578   8.8776   8.9053   8.9061   8.9527   8.9636   8.9696   8.9792
     9.0048   9.0152   9.0217   9.0362   9.0858   9.1034   9.1277   9.1356
     9.1398   9.1501   9.1659   9.2068

          k = 0.0000 0.0000 0.0116 (130915 PWs)   bands (ev):

   -21.6526 -21.4194 -21.1774 -20.8753 -20.7713 -20.6383 -20.3091 -20.2362
   -20.1478 -19.9559 -19.7491 -19.6704 -19.6087 -19.3296 -19.1380 -19.0196
   -18.8759 -18.7605 -18.5904 -18.3217 -18.3154 -18.1087 -18.0973 -17.8734
   -17.6162 -17.5275 -17.4354 -17.3536 -17.2055 -17.0126 -17.0047 -16.7845
   -16.7223 -16.6632 -16.4842 -16.4612 -16.3350 -16.2383 -15.8165 -15.6487
   -15.6485 -15.4059 -14.9627 -14.7229 -14.7059 -14.7024 -14.4954 -14.3503
   -14.2597 -14.1441 -14.0650 -13.9270 -13.8525 -13.7279 -13.5818 -13.4783
   -13.4700 -13.0087 -12.9469 -12.8053 -12.6111 -12.5932 -12.5311 -12.3292
   -12.3071 -11.9943 -11.9914 -11.8818 -11.7482 -11.6366 -11.4667 -11.3749
   -11.2441 -11.0468 -10.9802 -10.9286 -10.8913 -10.8548 -10.6323 -10.5214
   -10.4469 -10.3710 -10.2256 -10.1868 -10.0476  -9.9884  -9.9677  -9.7391
    -9.6964  -9.6172  -9.6025  -9.4766  -9.3491  -9.3308  -9.2363  -9.1959
    -9.1457  -9.0782  -9.0697  -9.0268  -8.9679  -8.9119  -8.8083  -8.7784
    -8.7007  -8.7007  -8.6619  -8.6111  -8.5979  -8.5290  -8.4932  -8.4038
    -8.3771  -8.3249  -8.2716  -8.2055  -8.1619  -8.1536  -8.0150  -7.9911
    -7.9741  -7.9112  -7.7954  -7.7807  -7.7271  -7.6598  -7.5503  -7.5402
    -7.4822  -7.4247  -7.4153  -7.3606  -7.3258  -7.2970  -7.2498  -7.1153
    -7.0156  -6.9705  -6.9417  -6.8975  -6.7525  -6.6829  -6.6568  -6.5447
    -6.5209  -6.4913  -6.3477  -6.3343  -6.3262  -6.2196  -6.1259  -6.1143
    -5.9581  -5.8935  -5.8115  -5.8003  -5.7588  -5.5691  -5.5357  -5.4801
    -5.1512  -5.1234  -5.0631  -5.0611  -5.0330  -4.8548  -4.8519  -4.7110
    -4.5575  -4.4636  -4.3783  -4.3463  -4.2100  -4.1283  -4.0497  -3.7901
    -3.3158  -3.2742  -2.9981  -2.4876  -1.1184  -0.9524  -0.8086  -0.7891
    -0.4554  -0.3349  -0.2095  -0.1303   0.0168   0.2050   0.2337   0.3130
     0.4269   0.5561   0.6961   0.9209   0.9571   0.9725   1.1863   1.2075
     1.2191   1.3238   1.3269   1.3889   1.5551   1.5999   1.6385   1.6898
     1.7378   1.8308   1.9501   1.9897   1.9996   2.0342   2.0982   2.1613
     2.2015   2.2795   2.3420   2.3667   2.4049   2.4598   2.5225   2.5832
     2.6116   2.6957   2.7050   2.7340   2.7425   2.7597   2.7620   2.9419
     2.9475   2.9555   2.9653   2.9778   2.9934   3.1418   3.1791   3.2207
     3.2396   3.2718   3.2902   3.3114   3.3428   3.3687   3.4088   3.4231
     3.4302   3.4715   3.4758   3.5517   3.6078   3.6273   3.6542   3.6655
     3.7383   3.7551   3.7610   3.8320   3.9068   3.9680   3.9838   4.0025
     4.0052   4.0098   4.0974   4.1467   4.1612   4.1974   4.2286   4.2360
     4.2575   4.2665   4.2736   4.3286   4.3414   4.4299   4.4562   4.4661
     4.4947   4.5068   4.5160   4.5335   4.5984   4.6163   4.6200   4.6967
     4.7083   4.7225   4.7871   4.8017   4.8743   4.8823   4.8925   4.9025
     4.9108   4.9355   4.9422   4.9690   4.9732   4.9918   5.0974   5.1358
     5.1600   5.1884   5.1900   5.2545   5.2619   5.2708   5.2760   5.3276
     5.3316   5.3970   5.4006   5.4711   5.4890   5.5054   5.5284   5.5385
     5.5572   5.5937   5.6174   5.6335   5.6735   5.7004   5.7275   5.7434
     5.7951   5.8061   5.8101   5.8960   5.9036   5.9310   5.9455   5.9731
     5.9998   6.0165   6.0268   6.0374   6.0632   6.0669   6.0815   6.0854
     6.1278   6.1464   6.1622   6.2213   6.2343   6.2530   6.3073   6.3090
     6.3251   6.3430   6.3814   6.4204   6.4559   6.4583   6.4599   6.4874
     6.5569   6.5598   6.5836   6.5889   6.6043   6.6223   6.6363   6.6537
     6.6729   6.6935   6.7413   6.7614   6.7786   6.7816   6.7917   6.8440
     6.8582   6.8760   6.8826   6.9011   6.9038   6.9307   6.9348   6.9652
     6.9905   7.0464   7.0517   7.0921   7.1152   7.1316   7.1560   7.1629
     7.1759   7.1917   7.2203   7.2299   7.2651   7.2956   7.3149   7.3196
     7.3204   7.3448   7.3862   7.4115   7.4343   7.4358   7.4691   7.5023
     7.5294   7.5603   7.5697   7.5979   7.6005   7.6137   7.6170   7.6310
     7.6936   7.6973   7.6980   7.6993   7.7040   7.7485   7.7634   7.7858
     7.7908   7.7970   7.8434   7.8437   7.8481   7.9028   7.9217   7.9345
     7.9511   7.9655   7.9749   7.9944   8.0162   8.0179   8.0720   8.0918
     8.1214   8.1317   8.1380   8.1844   8.1986   8.2039   8.2486   8.2487
     8.3134   8.3250   8.3427   8.3470   8.3648   8.3692   8.3896   8.4063
     8.4149   8.4160   8.4476   8.4827   8.4986   8.5230   8.5295   8.5295
     8.5581   8.5775   8.6031   8.6039   8.6324   8.6440   8.7157   8.7185
     8.7455   8.7487   8.7615   8.7732   8.8222   8.8276   8.8404   8.8605
     8.8647   8.8823   8.8852   8.9058   8.9441   8.9460   8.9788   8.9947
     8.9959   9.0309   9.0353   9.0361   9.0788   9.1131   9.1367   9.1440
     9.1529   9.1536   9.1746   9.2010

          k = 0.0000 0.0000 0.0129 (130935 PWs)   bands (ev):

   -21.6497 -21.4303 -21.1649 -20.8808 -20.7666 -20.6352 -20.3154 -20.2502
   -20.1413 -19.9615 -19.7410 -19.6594 -19.6116 -19.3336 -19.1310 -19.0221
   -18.8687 -18.7647 -18.5861 -18.3258 -18.3179 -18.1336 -18.0905 -17.8781
   -17.6141 -17.5271 -17.4240 -17.3495 -17.2090 -17.0224 -16.9901 -16.7739
   -16.7248 -16.6555 -16.4867 -16.4624 -16.3375 -16.2378 -15.8244 -15.6519
   -15.6420 -15.4296 -14.9559 -14.7205 -14.7081 -14.7068 -14.4945 -14.3593
   -14.2397 -14.1328 -14.0639 -13.9245 -13.8546 -13.7254 -13.5664 -13.4840
   -13.4818 -13.0080 -12.9654 -12.8164 -12.6014 -12.6008 -12.5321 -12.3166
   -12.2938 -11.9927 -11.9917 -11.8788 -11.7489 -11.6361 -11.4673 -11.3869
   -11.2416 -11.0696 -10.9783 -10.9439 -10.8864 -10.8493 -10.6203 -10.5194
   -10.4498 -10.3640 -10.2384 -10.1739 -10.0601  -9.9787  -9.9555  -9.7393
    -9.6784  -9.6376  -9.5992  -9.4704  -9.3600  -9.3307  -9.2321  -9.2088
    -9.1395  -9.0673  -9.0629  -9.0248  -8.9606  -8.9161  -8.8134  -8.7846
    -8.7097  -8.7011  -8.6680  -8.6052  -8.5957  -8.5252  -8.4955  -8.3978
    -8.3744  -8.3412  -8.2641  -8.1933  -8.1597  -8.1596  -8.0289  -7.9873
    -7.9835  -7.9134  -7.8081  -7.7783  -7.7371  -7.6529  -7.5553  -7.5340
    -7.4785  -7.4279  -7.4095  -7.3458  -7.3295  -7.2776  -7.2527  -7.1290
    -7.0207  -6.9697  -6.9391  -6.9046  -6.7444  -6.6817  -6.6579  -6.5387
    -6.5168  -6.4916  -6.3524  -6.3390  -6.3260  -6.2159  -6.1175  -6.1143
    -5.9594  -5.8956  -5.8022  -5.7922  -5.7703  -5.5906  -5.5298  -5.4885
    -5.1505  -5.1243  -5.0664  -5.0532  -5.0348  -4.8561  -4.8506  -4.7160
    -4.5524  -4.4661  -4.3739  -4.3452  -4.2055  -4.1328  -4.0388  -3.7899
    -3.3084  -3.2681  -3.0034  -2.5161  -1.1070  -0.9550  -0.8009  -0.7818
    -0.4519  -0.3358  -0.2100  -0.1360   0.0255   0.1991   0.2321   0.3123
     0.4234   0.5684   0.6859   0.9243   0.9586   0.9747   1.1866   1.2013
     1.2223   1.3152   1.3181   1.3674   1.5495   1.5950   1.6290   1.6900
     1.7452   1.8274   1.9672   2.0046   2.0070   2.0399   2.1049   2.1608
     2.2060   2.2923   2.3461   2.3649   2.4102   2.4580   2.5269   2.5901
     2.6125   2.6985   2.7030   2.7260   2.7387   2.7566   2.7649   2.9322
     2.9452   2.9498   2.9514   2.9895   2.9896   3.1435   3.1646   3.2045
     3.2178   3.2759   3.2850   3.2944   3.3555   3.3763   3.4206   3.4264
     3.4406   3.4713   3.4888   3.5328   3.6018   3.6210   3.6487   3.6773
     3.7392   3.7418   3.7583   3.8312   3.9000   3.9853   3.9922   3.9981
     4.0188   4.0245   4.0936   4.1673   4.1861   4.1999   4.2214   4.2500
     4.2568   4.2842   4.2900   4.3435   4.3480   4.4117   4.4439   4.4577
     4.4591   4.4873   4.4968   4.5458   4.5906   4.6023   4.6143   4.6846
     4.7069   4.7297   4.7776   4.7917   4.8599   4.8886   4.9029   4.9148
     4.9283   4.9291   4.9447   4.9743   4.9795   5.0002   5.1031   5.1288
     5.1394   5.1915   5.2003   5.2494   5.2521   5.2719   5.2848   5.3348
     5.3503   5.3925   5.4124   5.4621   5.4870   5.5239   5.5273   5.5525
     5.5538   5.6112   5.6300   5.6539   5.6906   5.6949   5.7284   5.7501
     5.7892   5.7909   5.8055   5.9011   5.9132   5.9175   5.9206   5.9650
     5.9741   6.0279   6.0334   6.0573   6.0584   6.0592   6.0688   6.0704
     6.1205   6.1367   6.1806   6.2160   6.2333   6.2441   6.2910   6.3127
     6.3138   6.3279   6.3744   6.4375   6.4523   6.4672   6.4753   6.4936
     6.5537   6.5576   6.5851   6.5883   6.6079   6.6192   6.6419   6.6666
     6.6857   6.6876   6.7394   6.7573   6.7790   6.7793   6.7806   6.8572
     6.8657   6.8751   6.8760   6.8771   6.9268   6.9357   6.9431   6.9561
     6.9702   7.0395   7.0437   7.0745   7.1036   7.1260   7.1361   7.1774
     7.1833   7.1942   7.2197   7.2278   7.2562   7.2898   7.3076   7.3180
     7.3287   7.3641   7.3945   7.4056   7.4236   7.4326   7.4647   7.4876
     7.5312   7.5706   7.5742   7.5825   7.5857   7.6170   7.6189   7.6585
     7.6744   7.6903   7.6909   7.6944   7.6963   7.7508   7.7651   7.7804
     7.7834   7.7912   7.8235   7.8451   7.8673   7.9040   7.9059   7.9282
     7.9326   7.9839   7.9845   7.9927   8.0099   8.0253   8.0709   8.0859
     8.1187   8.1378   8.1519   8.1991   8.2034   8.2228   8.2685   8.2928
     8.3232   8.3239   8.3396   8.3471   8.3653   8.3708   8.3906   8.4102
     8.4104   8.4248   8.4347   8.4804   8.5047   8.5264   8.5341   8.5421
     8.5683   8.5728   8.5904   8.6209   8.6300   8.6553   8.6998   8.7152
     8.7306   8.7478   8.7645   8.7871   8.8246   8.8262   8.8378   8.8661
     8.8758   8.8772   8.8841   8.9084   8.9277   8.9430   8.9902   8.9947
     9.0164   9.0380   9.0415   9.0476   9.0725   9.1013   9.1382   9.1436
     9.1665   9.1787   9.1859   9.1958

          k = 0.0000 0.0000 0.0142 (130947 PWs)   bands (ev):

   -21.6465 -21.4411 -21.1525 -20.8866 -20.7615 -20.6321 -20.3217 -20.2644
   -20.1347 -19.9668 -19.7342 -19.6470 -19.6148 -19.3382 -19.1235 -19.0242
   -18.8614 -18.7687 -18.5818 -18.3297 -18.3209 -18.1587 -18.0835 -17.8831
   -17.6118 -17.5272 -17.4130 -17.3443 -17.2128 -17.0327 -16.9752 -16.7619
   -16.7280 -16.6473 -16.4892 -16.4639 -16.3399 -16.2375 -15.8320 -15.6563
   -15.6358 -15.4529 -14.9484 -14.7187 -14.7108 -14.7105 -14.4948 -14.3680
   -14.2175 -14.1219 -14.0621 -13.9222 -13.8570 -13.7225 -13.5504 -13.4950
   -13.4897 -13.0076 -12.9843 -12.8276 -12.6075 -12.5953 -12.5280 -12.3050
   -12.2808 -11.9921 -11.9914 -11.8753 -11.7504 -11.6362 -11.4676 -11.3989
   -11.2391 -11.0925 -10.9773 -10.9591 -10.8777 -10.8428 -10.6098 -10.5180
   -10.4519 -10.3600 -10.2510 -10.1590 -10.0736  -9.9697  -9.9440  -9.7391
    -9.6598  -9.6575  -9.5955  -9.4618  -9.3710  -9.3314  -9.2269  -9.2217
    -9.1330  -9.0565  -9.0559  -9.0237  -8.9535  -8.9212  -8.8188  -8.7907
    -8.7192  -8.7016  -8.6744  -8.5988  -8.5926  -8.5213  -8.4979  -8.3916
    -8.3761  -8.3557  -8.2569  -8.1803  -8.1654  -8.1567  -8.0431  -8.0013
    -7.9757  -7.9157  -7.8248  -7.7703  -7.7468  -7.6465  -7.5601  -7.5268
    -7.4747  -7.4315  -7.4037  -7.3334  -7.3310  -7.2589  -7.2558  -7.1426
    -7.0264  -6.9690  -6.9373  -6.9121  -6.7359  -6.6803  -6.6586  -6.5324
    -6.5125  -6.4922  -6.3573  -6.3496  -6.3193  -6.2117  -6.1211  -6.1025
    -5.9610  -5.8974  -5.7919  -5.7838  -5.7819  -5.6132  -5.5249  -5.4973
    -5.1497  -5.1252  -5.0698  -5.0450  -5.0367  -4.8577  -4.8491  -4.7214
    -4.5474  -4.4685  -4.3694  -4.3440  -4.2017  -4.1376  -4.0265  -3.7900
    -3.3000  -3.2614  -3.0093  -2.5462  -1.0959  -0.9577  -0.7926  -0.7743
    -0.4482  -0.3369  -0.2105  -0.1416   0.0346   0.1929   0.2303   0.3129
     0.4195   0.5813   0.6742   0.9279   0.9610   0.9771   1.1815   1.1945
     1.2255   1.3036   1.3124   1.3512   1.5409   1.5925   1.6193   1.6904
     1.7533   1.8232   1.9846   2.0137   2.0172   2.0470   2.1144   2.1602
     2.2100   2.3046   2.3504   2.3628   2.4163   2.4569   2.5315   2.5970
     2.6113   2.6932   2.7100   2.7176   2.7368   2.7542   2.7678   2.9233
     2.9319   2.9387   2.9444   2.9967   3.0003   3.1355   3.1598   3.1889
     3.1950   3.2421   3.2971   3.2972   3.3688   3.3864   3.4162   3.4462
     3.4542   3.4703   3.4969   3.5147   3.5898   3.6195   3.6386   3.6779
     3.7330   3.7506   3.7679   3.8323   3.8909   3.9857   3.9919   3.9937
     4.0364   4.0517   4.0888   4.1849   4.2026   4.2123   4.2147   4.2534
     4.2675   4.3010   4.3040   4.3518   4.3650   4.3947   4.4211   4.4218
     4.4595   4.4626   4.4831   4.5625   4.5670   4.6109   4.6122   4.6606
     4.7111   4.7224   4.7726   4.7976   4.8339   4.8812   4.9193   4.9228
     4.9285   4.9450   4.9478   4.9866   4.9984   5.0067   5.0988   5.1082
     5.1415   5.1945   5.2049   5.2315   5.2463   5.2734   5.2904   5.3363
     5.3675   5.3889   5.4432   5.4460   5.4749   5.5307   5.5401   5.5676
     5.5738   5.6238   5.6423   5.6739   5.6856   5.6948   5.7288   5.7575
     5.7743   5.7995   5.8034   5.8699   5.8926   5.9067   5.9295   5.9567
     5.9634   6.0171   6.0393   6.0430   6.0465   6.0536   6.0774   6.1010
     6.1162   6.1284   6.1969   6.2002   6.2120   6.2708   6.2767   6.2885
     6.3165   6.3304   6.3701   6.4465   6.4520   6.4653   6.4936   6.5122
     6.5463   6.5600   6.5871   6.5933   6.6111   6.6133   6.6468   6.6767
     6.6837   6.6902   6.7457   6.7516   6.7649   6.7782   6.7783   6.8419
     6.8587   6.8731   6.8748   6.8782   6.9204   6.9330   6.9505   6.9553
     6.9728   7.0273   7.0367   7.0609   7.0994   7.1035   7.1386   7.1642
     7.1965   7.2137   7.2190   7.2341   7.2496   7.2668   7.2901   7.3332
     7.3365   7.3879   7.3890   7.4118   7.4191   7.4330   7.4570   7.4770
     7.5258   7.5360   7.5504   7.5892   7.5899   7.6117   7.6364   7.6592
     7.6662   7.6737   7.6958   7.7001   7.7040   7.7373   7.7563   7.7773
     7.7998   7.8013   7.8130   7.8495   7.8738   7.8876   7.8966   7.9058
     7.9437   7.9722   7.9881   8.0043   8.0190   8.0414   8.0522   8.1049
     8.1170   8.1404   8.1679   8.2059   8.2141   8.2460   8.2817   8.3036
     8.3072   8.3216   8.3375   8.3663   8.3670   8.3796   8.3919   8.4089
     8.4134   8.4348   8.4466   8.4761   8.4993   8.5331   8.5340   8.5606
     8.5729   8.5855   8.5890   8.6227   8.6315   8.6700   8.6756   8.7120
     8.7167   8.7246   8.7472   8.8111   8.8179   8.8450   8.8534   8.8550
     8.8617   8.8906   8.8922   8.9165   8.9285   8.9488   8.9904   8.9986
     9.0192   9.0512   9.0551   9.0565   9.0726   9.0837   9.1319   9.1525
     9.1686   9.1786   9.1930   9.1954

          k = 0.0000 0.0000 0.0155 (130919 PWs)   bands (ev):

   -21.6430 -21.4517 -21.1401 -20.8928 -20.7558 -20.6292 -20.3280 -20.2786
   -20.1281 -19.9721 -19.7284 -19.6335 -19.6182 -19.3433 -19.1157 -19.0260
   -18.8541 -18.7725 -18.5774 -18.3334 -18.3243 -18.1838 -18.0763 -17.8885
   -17.6092 -17.5278 -17.4026 -17.3380 -17.2171 -17.0434 -16.9604 -16.7485
   -16.7317 -16.6387 -16.4918 -16.4656 -16.3423 -16.2376 -15.8391 -15.6623
   -15.6299 -15.4751 -14.9404 -14.7180 -14.7142 -14.7129 -14.4960 -14.3764
   -14.1936 -14.1116 -14.0597 -13.9203 -13.8595 -13.7191 -13.5352 -13.5095
   -13.4942 -13.0106 -13.0000 -12.8390 -12.6134 -12.5935 -12.5181 -12.2945
   -12.2684 -11.9931 -11.9907 -11.8712 -11.7527 -11.6369 -11.4680 -11.4106
   -11.2364 -11.1136 -10.9771 -10.9742 -10.8667 -10.8355 -10.6011 -10.5176
   -10.4526 -10.3585 -10.2633 -10.1427 -10.0878  -9.9615  -9.9334  -9.7388
    -9.6764  -9.6418  -9.5915  -9.4502  -9.3819  -9.3328  -9.2344  -9.2207
    -9.1263  -9.0484  -9.0456  -9.0234  -8.9470  -8.9273  -8.8245  -8.7965
    -8.7292  -8.7023  -8.6804  -8.5919  -8.5889  -8.5173  -8.5004  -8.3914
    -8.3852  -8.3591  -8.2503  -8.1709  -8.1668  -8.1527  -8.0570  -8.0160
    -7.9678  -7.9183  -7.8408  -7.7613  -7.7562  -7.6407  -7.5647  -7.5187
    -7.4707  -7.4357  -7.3979  -7.3377  -7.3162  -7.2593  -7.2412  -7.1560
    -7.0325  -6.9685  -6.9361  -6.9198  -6.7272  -6.6787  -6.6589  -6.5259
    -6.5079  -6.4933  -6.3624  -6.3602  -6.3122  -6.2069  -6.1250  -6.0908
    -5.9629  -5.8989  -5.7935  -5.7807  -5.7752  -5.6365  -5.5210  -5.5066
    -5.1489  -5.1261  -5.0731  -5.0389  -5.0365  -4.8595  -4.8473  -4.7271
    -4.5427  -4.4709  -4.3651  -4.3427  -4.1986  -4.1424  -4.0129  -3.7904
    -3.2903  -3.2543  -3.0156  -2.5777  -1.0850  -0.9603  -0.7839  -0.7668
    -0.4442  -0.3381  -0.2110  -0.1472   0.0438   0.1865   0.2287   0.3147
     0.4153   0.5948   0.6613   0.9318   0.9642   0.9795   1.1699   1.1874
     1.2286   1.2922   1.3070   1.3419   1.5297   1.5924   1.6095   1.6909
     1.7614   1.8183   2.0023   2.0196   2.0277   2.0553   2.1266   2.1596
     2.2135   2.3159   2.3549   2.3602   2.4234   2.4565   2.5362   2.6035
     2.6082   2.6895   2.7088   2.7167   2.7350   2.7541   2.7709   2.9138
     2.9150   2.9272   2.9395   3.0085   3.0090   3.1198   3.1629   3.1725
     3.1741   3.2105   3.2985   3.3082   3.3822   3.3987   3.4106   3.4672
     3.4678   3.4698   3.4818   3.5151   3.5770   3.6231   3.6238   3.6702
     3.7290   3.7685   3.7866   3.8350   3.8799   3.9729   3.9926   3.9933
     4.0524   4.0641   4.1007   4.1980   4.2070   4.2095   4.2343   4.2485
     4.2883   4.3027   4.3211   4.3713   4.3782   4.3788   4.3877   4.3978
     4.4337   4.4646   4.4797   4.5365   4.5892   4.6058   4.6269   4.6368
     4.6881   4.7276   4.7823   4.8043   4.8047   4.8713   4.9191   4.9298
     4.9392   4.9535   4.9543   5.0062   5.0106   5.0242   5.0761   5.1113
     5.1429   5.1967   5.2006   5.2032   5.2537   5.2780   5.2914   5.3351
     5.3820   5.3827   5.4327   5.4595   5.4818   5.5243   5.5604   5.5961
     5.5971   5.6326   5.6528   5.6737   5.6860   5.6925   5.7264   5.7592
     5.7651   5.8017   5.8231   5.8236   5.8772   5.8908   5.9278   5.9486
     5.9640   5.9937   6.0315   6.0428   6.0494   6.0524   6.0890   6.1144
     6.1210   6.1342   6.1786   6.1889   6.2213   6.2481   6.2707   6.3115
     6.3134   6.3363   6.3703   6.4432   6.4537   6.4712   6.5127   6.5261
     6.5401   6.5716   6.5909   6.5986   6.6056   6.6140   6.6501   6.6820
     6.6837   6.6840   6.7445   6.7497   6.7537   6.7740   6.7778   6.8204
     6.8439   6.8675   6.8755   6.8874   6.8985   6.9212   6.9492   6.9733
     6.9791   7.0114   7.0300   7.0464   7.0818   7.1144   7.1383   7.1579
     7.2035   7.2179   7.2325   7.2471   7.2473   7.2486   7.2688   7.3330
     7.3519   7.3796   7.3993   7.4018   7.4350   7.4483   7.4492   7.4754
     7.4760   7.5280   7.5413   7.5574   7.5989   7.6308   7.6435   7.6471
     7.6599   7.6600   7.6977   7.6990   7.7093   7.7250   7.7670   7.7674
     7.8149   7.8151   7.8171   7.8642   7.8665   7.8706   7.8821   7.9005
     7.9580   7.9629   7.9875   8.0002   8.0233   8.0568   8.0624   8.1156
     8.1265   8.1428   8.1834   8.2084   8.2231   8.2698   8.2789   8.2831
     8.2911   8.3086   8.3560   8.3588   8.3811   8.3982   8.4052   8.4125
     8.4185   8.4484   8.4663   8.4725   8.4826   8.5329   8.5513   8.5759
     8.5818   8.5961   8.6064   8.6125   8.6236   8.6614   8.6798   8.6852
     8.7026   8.7170   8.7436   8.8090   8.8142   8.8488   8.8627   8.8643
     8.8668   8.8930   8.9007   8.9318   8.9432   8.9520   8.9979   8.9988
     9.0130   9.0447   9.0629   9.0671   9.0764   9.0842   9.1264   9.1472
     9.1681   9.1883   9.1901   9.2040

          k = 0.0000 0.0000 0.0168 (130965 PWs)   bands (ev):

   -21.6391 -21.4621 -21.1278 -20.8993 -20.7497 -20.6266 -20.3343 -20.2926
   -20.1214 -19.9773 -19.7232 -19.6218 -19.6193 -19.3489 -19.1076 -19.0274
   -18.8470 -18.7761 -18.5731 -18.3367 -18.3285 -18.2084 -18.0689 -17.8943
   -17.6065 -17.5288 -17.3929 -17.3306 -17.2216 -17.0543 -16.9458 -16.7359
   -16.7337 -16.6297 -16.4945 -16.4675 -16.3445 -16.2382 -15.8458 -15.6702
   -15.6243 -15.4957 -14.9318 -14.7195 -14.7161 -14.7154 -14.4976 -14.3845
   -14.1685 -14.1017 -14.0564 -13.9186 -13.8622 -13.7152 -13.5252 -13.5246
   -13.4936 -13.0268 -13.0027 -12.8504 -12.6185 -12.5948 -12.5038 -12.2849
   -12.2566 -11.9960 -11.9892 -11.8662 -11.7561 -11.6385 -11.4687 -11.4219
   -11.2335 -11.1315 -10.9892 -10.9778 -10.8542 -10.8275 -10.5947 -10.5183
   -10.4513 -10.3586 -10.2752 -10.1258 -10.1026  -9.9544  -9.9240  -9.7388
    -9.6932  -9.6256  -9.5872  -9.4345  -9.3928  -9.3348  -9.2468  -9.2137
    -9.1196  -9.0404  -9.0348  -9.0239  -8.9410  -8.9343  -8.8306  -8.8020
    -8.7400  -8.7033  -8.6857  -8.5849  -8.5846  -8.5134  -8.5029  -8.4150
    -8.3787  -8.3568  -8.2444  -8.1762  -8.1532  -8.1477  -8.0703  -8.0311
    -7.9599  -7.9210  -7.8558  -7.7653  -7.7517  -7.6357  -7.5689  -7.5096
    -7.4666  -7.4405  -7.3922  -7.3422  -7.3016  -7.2630  -7.2250  -7.1684
    -7.0391  -6.9682  -6.9355  -6.9276  -6.7185  -6.6768  -6.6586  -6.5191
    -6.5031  -6.4952  -6.3704  -6.3676  -6.3049  -6.2016  -6.1293  -6.0790
    -5.9652  -5.9000  -5.8052  -5.7687  -5.7663  -5.6603  -5.5182  -5.5163
    -5.1481  -5.1270  -5.0761  -5.0413  -5.0276  -4.8617  -4.8452  -4.7330
    -4.5381  -4.4732  -4.3608  -4.3413  -4.1963  -4.1473  -3.9984  -3.7911
    -3.2792  -3.2467  -3.0224  -2.6103  -1.0746  -0.9629  -0.7749  -0.7592
    -0.4399  -0.3397  -0.2114  -0.1528   0.0531   0.1800   0.2276   0.3176
     0.4109   0.6087   0.6472   0.9360   0.9680   0.9819   1.1522   1.1799
     1.2314   1.2810   1.3024   1.3393   1.5169   1.5941   1.5995   1.6913
     1.7691   1.8129   2.0197   2.0250   2.0365   2.0647   2.1409   2.1594
     2.2164   2.3259   2.3571   2.3592   2.4315   2.4568   2.5408   2.6036
     2.6093   2.6879   2.6999   2.7226   2.7316   2.7576   2.7740   2.8940
     2.9074   2.9174   2.9351   3.0143   3.0217   3.1027   3.1519   3.1604
     3.1679   3.1821   3.2989   3.3177   3.3946   3.4047   3.4130   3.4581
     3.4616   3.4867   3.4910   3.5159   3.5708   3.6053   3.6318   3.6589
     3.7291   3.7898   3.8097   3.8394   3.8674   3.9602   3.9894   3.9907
     4.0625   4.0641   4.1291   4.2029   4.2070   4.2164   4.2424   4.2488
     4.2947   4.3119   4.3362   4.3561   4.3638   4.3744   4.3850   4.3983
     4.4144   4.4675   4.4885   4.5129   4.5975   4.6108   4.6132   4.6451
     4.6614   4.7356   4.7736   4.7948   4.8125   4.8612   4.9161   4.9349
     4.9481   4.9501   4.9636   5.0114   5.0292   5.0531   5.0675   5.1106
     5.1446   5.1667   5.1972   5.2034   5.2658   5.2838   5.2879   5.3338
[...]
    -6.4578  -6.4558  -6.4302  -6.4173  -6.2319  -6.1835  -6.1108  -6.0235
    -5.9754  -5.9084  -5.8916  -5.8459  -5.6772  -5.6366  -5.6119  -5.5568
    -5.1400  -5.1347  -5.0832  -5.0680  -4.9456  -4.8997  -4.8159  -4.7871
    -4.5070  -4.4926  -4.3330  -4.3302  -4.1914  -4.1832  -3.8692  -3.8183
    -3.1635  -3.1201  -3.0872  -2.9212  -1.0092  -0.9865  -0.7084  -0.7064
    -0.3949  -0.3662  -0.2094  -0.1952   0.1063   0.1270   0.2912   0.3555
     0.3824   0.4820   0.7596   0.8930   0.9778   0.9939   1.0497   1.1020
     1.2129   1.2150   1.3315   1.3958   1.4272   1.5009   1.6391   1.6755
     1.7814   1.7905   2.0641   2.0863   2.1158   2.1442   2.2301   2.2371
     2.2523   2.3220   2.3234   2.3571   2.4957   2.5401   2.5648   2.5992
     2.6354   2.6651   2.6681   2.7006   2.7031   2.7289   2.7856   2.8229
     2.8581   2.8787   2.9147   2.9616   2.9701   3.0213   3.0727   3.1788
     3.2037   3.2215   3.2359   3.2896   3.3135   3.3506   3.3640   3.3954
     3.4413   3.4994   3.5821   3.6319   3.6520   3.6613   3.7082   3.7411
     3.7745   3.8071   3.8448   3.8875   3.9093   3.9175   3.9305   4.0001
     4.0428   4.1001   4.1094   4.1107   4.1236   4.1729   4.1800   4.2165
     4.2247   4.2383   4.3558   4.3605   4.3738   4.4098   4.4134   4.4565
     4.4739   4.5100   4.5231   4.5280   4.5540   4.5983   4.6224   4.7053
     4.7296   4.7503   4.7585   4.8306   4.8453   4.8677   4.8805   4.8885
     4.9359   4.9768   4.9950   5.0114   5.0344   5.0918   5.1111   5.1283
     5.1662   5.1829   5.2206   5.2395   5.2412   5.2538   5.3658   5.3715
     5.3852   5.4158   5.4445   5.4448   5.4611   5.4863   5.4877   5.5285
     5.5339   5.5418   5.5505   5.5950   5.6915   5.7088   5.7135   5.7592
     5.8100   5.8373   5.8386   5.8482   5.8497   5.8800   5.9241   5.9377
     5.9591   6.0113   6.0153   6.0481   6.0552   6.1064   6.1088   6.1407
     6.1617   6.2096   6.2398   6.2635   6.2646   6.2991   6.3096   6.3218
     6.3587   6.3783   6.3952   6.4030   6.4773   6.5150   6.5155   6.5307
     6.5492   6.5640   6.5644   6.5663   6.5994   6.6012   6.6455   6.6560
     6.6565   6.6750   6.6923   6.7273   6.7477   6.7606   6.7728   6.7731
     6.7932   6.7948   6.8306   6.8310   6.8711   6.8917   6.9086   6.9148
     6.9448   6.9487   6.9546   6.9710   7.0611   7.0683   7.0839   7.1262
     7.1296   7.1858   7.1878   7.1957   7.2184   7.2242   7.3019   7.3084
     7.3090   7.3140   7.3345   7.4020   7.4207   7.4362   7.4425   7.4855
     7.4858   7.4879   7.5903   7.6063   7.6123   7.6169   7.6230   7.6322
     7.6469   7.6891   7.7135   7.7207   7.7239   7.7396   7.7550   7.7761
     7.7887   7.8206   7.8323   7.8444   7.8836   7.9079   7.9292   7.9363
     7.9889   7.9989   8.0106   8.0155   8.0425   8.0683   8.0735   8.0756
     8.1290   8.1290   8.1807   8.1928   8.2070   8.2097   8.2348   8.2982
     8.2984   8.3479   8.3485   8.3560   8.3650   8.3946   8.4287   8.4322
     8.4937   8.4969   8.5465   8.5470   8.5621   8.5757   8.5917   8.6282
     8.6311   8.6673   8.6739   8.6829   8.7202   8.7228   8.7524   8.7760
     8.7766   8.7885   8.7892   8.8107   8.8600   8.8773   8.8895   8.8906
     8.9121   8.9306   8.9330   8.9537   8.9678   8.9893   8.9953   9.0042
     9.0297   9.0322   9.0394   9.0613   9.0712   9.0941   9.1174   9.1232
     9.1288   9.1719   9.1756   9.1928

          k = 0.0000 0.0000 0.0297 (130967 PWs)   bands (ev):

   -21.5846 -21.5547 -21.0155 -20.9775 -20.6699 -20.6400 -20.3825 -20.3823
   -20.0558 -20.0315 -19.6811 -19.6637 -19.4793 -19.4329 -19.0404 -19.0320
   -18.7956 -18.7906 -18.5129 -18.4608 -18.3431 -18.3321 -17.9923 -17.9622
   -17.5722 -17.5569 -17.3136 -17.2837 -17.2212 -17.1726 -16.8309 -16.7977
   -16.5684 -16.5424 -16.5279 -16.5082 -16.3230 -16.2867 -15.8632 -15.8268
   -15.5862 -15.5771 -14.8246 -14.7791 -14.7375 -14.7359 -14.4798 -14.4559
   -14.0438 -14.0432 -13.9055 -13.8951 -13.8658 -13.7551 -13.6387 -13.6016
   -13.3043 -13.2245 -12.9763 -12.9512 -12.6361 -12.6295 -12.2907 -12.2440
   -12.1827 -12.1348 -11.9115 -11.8546 -11.7653 -11.7150 -11.4981 -11.4922
   -11.1789 -11.1467 -11.0784 -11.0365 -10.7372 -10.7302 -10.6164 -10.5906
   -10.3730 -10.3612 -10.3337 -10.2681  -9.9683  -9.9327  -9.8777  -9.8569
    -9.6488  -9.6128  -9.5260  -9.4928  -9.3520  -9.3410  -9.1332  -9.1253
    -9.0643  -9.0421  -9.0122  -8.9492  -8.9365  -8.9274  -8.9026  -8.8741
    -8.8198  -8.7777  -8.6906  -8.6719  -8.5448  -8.5313  -8.5096  -8.4952
    -8.3297  -8.3287  -8.2076  -8.1925  -8.1832  -8.1669  -8.0586  -8.0395
    -7.9585  -7.9556  -7.8795  -7.8475  -7.6448  -7.6259  -7.5722  -7.5341
    -7.4176  -7.3953  -7.3855  -7.3533  -7.3032  -7.2999  -7.1702  -7.1262
    -7.0751  -7.0313  -6.9508  -6.9459  -6.6591  -6.6573  -6.6105  -6.5708
    -6.4530  -6.4490  -6.4347  -6.4233  -6.2235  -6.1911  -6.0960  -6.0365
    -5.9642  -5.9196  -5.8875  -5.8579  -5.6665  -5.6229  -5.6216  -5.5679
    -5.1391  -5.1356  -5.0814  -5.0710  -4.9371  -4.9064  -4.8116  -4.7924
    -4.5043  -4.4948  -4.3316  -4.3298  -4.1908  -4.1855  -3.8583  -3.8245
    -3.1535  -3.1181  -3.0717  -2.9543  -1.0046  -0.9897  -0.7053  -0.7040
    -0.3898  -0.3705  -0.2079  -0.1984   0.1092   0.1228   0.3039   0.3469
     0.3953   0.4625   0.7798   0.8690   0.9818   0.9927   1.0576   1.0928
     1.2105   1.2123   1.3408   1.3838   1.4397   1.4889   1.6455   1.6702
     1.7821   1.7888   2.0682   2.0835   2.1245   2.1449   2.2343   2.2524
     2.2533   2.3109   2.3259   2.3507   2.5031   2.5334   2.5839   2.6062
     2.6402   2.6616   2.6695   2.6883   2.6957   2.7087   2.7988   2.8295
     2.8530   2.8625   2.9219   2.9589   2.9703   3.0109   3.0856   3.1627
     3.2149   3.2248   3.2446   3.2804   3.3195   3.3424   3.3536   3.3753
     3.4513   3.4911   3.6003   3.6392   3.6660   3.6745   3.6916   3.7635
     3.7715   3.8158   3.8396   3.8854   3.9126   3.9143   3.9148   3.9892
     4.0584   4.0937   4.1128   4.1166   4.1211   4.1657   4.1762   4.2113
     4.2123   4.2177   4.3532   4.3577   4.3911   4.4108   4.4223   4.4518
     4.4923   4.5118   4.5137   4.5307   4.5587   4.5810   4.6453   4.7019
     4.7356   4.7402   4.7590   4.7971   4.8700   4.8803   4.8976   4.9017
     4.9490   4.9803   4.9919   4.9987   5.0463   5.0659   5.0977   5.1386
     5.1551   5.1845   5.2224   5.2321   5.2544   5.2646   5.3392   5.3530
     5.4067   5.4280   5.4480   5.4664   5.4675   5.4710   5.5070   5.5216
     5.5218   5.5340   5.5408   5.5816   5.6774   5.6970   5.7022   5.7327
     5.8191   5.8383   5.8412   5.8502   5.8613   5.8897   5.9119   5.9282
     5.9970   6.0185   6.0243   6.0464   6.0634   6.1144   6.1176   6.1453
     6.1823   6.2258   6.2368   6.2528   6.2875   6.2933   6.3105   6.3105
     6.3456   6.3643   6.3757   6.3771   6.5019   6.5102   6.5221   6.5374
     6.5380   6.5615   6.5691   6.5726   6.5831   6.5989   6.6524   6.6649
     6.6709   6.6783   6.6911   6.7270   6.7482   6.7594   6.7699   6.7743
     6.7973   6.8006   6.8010   6.8274   6.8651   6.8981   6.9054   6.9170
     6.9298   6.9454   6.9704   6.9810   7.0465   7.0657   7.0699   7.1224
     7.1463   7.1511   7.1893   7.1909   7.2124   7.2260   7.2903   7.2981
     7.3008   7.3065   7.3513   7.4015   7.4186   7.4300   7.4580   7.4904
     7.4982   7.5041   7.5852   7.6105   7.6108   7.6156   7.6199   7.6208
     7.6596   7.6962   7.7046   7.7217   7.7409   7.7519   7.7662   7.7751
     7.7794   7.8189   7.8414   7.8507   7.8964   7.9120   7.9347   7.9380
     7.9660   7.9735   7.9787   7.9951   8.0576   8.0681   8.0732   8.0736
     8.1402   8.1424   8.1830   8.1917   8.2017   8.2063   8.2163   8.2942
     8.3007   8.3503   8.3530   8.3542   8.3722   8.3837   8.4313   8.4356
     8.4852   8.4904   8.5526   8.5561   8.5572   8.5817   8.6283   8.6438
     8.6492   8.6783   8.6799   8.6971   8.7160   8.7546   8.7580   8.7630
     8.7727   8.7907   8.8052   8.8164   8.8393   8.8621   8.8688   8.8927
     8.9110   8.9401   8.9419   8.9663   8.9781   8.9967   8.9995   9.0110
     9.0148   9.0291   9.0314   9.0494   9.0894   9.0899   9.1049   9.1155
     9.1170   9.1603   9.1636   9.1762

          k = 0.0000 0.0000 0.0310 (130953 PWs)   bands (ev):

   -21.5775 -21.5626 -21.0057 -20.9867 -20.6616 -20.6465 -20.3842 -20.3840
   -20.0495 -20.0374 -19.6768 -19.6681 -19.4671 -19.4439 -19.0373 -19.0332
   -18.7936 -18.7911 -18.5020 -18.4760 -18.3410 -18.3355 -17.9847 -17.9696
   -17.5683 -17.5606 -17.3060 -17.2910 -17.2091 -17.1847 -16.8221 -16.8055
   -16.5574 -16.5421 -16.5271 -16.5147 -16.3145 -16.2960 -15.8570 -15.8389
   -15.5838 -15.5793 -14.8130 -14.7901 -14.7375 -14.7367 -14.4743 -14.4622
   -14.0425 -14.0421 -13.9033 -13.8981 -13.8374 -13.7818 -13.6299 -13.6112
   -13.2841 -13.2442 -12.9710 -12.9584 -12.6351 -12.6317 -12.2730 -12.2495
   -12.1751 -12.1512 -11.8978 -11.8690 -11.7526 -11.7273 -11.4979 -11.4949
   -11.1705 -11.1538 -11.0692 -11.0473 -10.7314 -10.7273 -10.6138 -10.6002
   -10.3713 -10.3655 -10.3177 -10.2848  -9.9563  -9.9382  -9.8747  -9.8648
    -9.6390  -9.6208  -9.5181  -9.5015  -9.3507  -9.3452  -9.1210  -9.1197
    -9.0586  -9.0466  -9.0004  -8.9641  -8.9277  -8.9147  -8.9108  -8.8877
    -8.8146  -8.7937  -8.6878  -8.6790  -8.5412  -8.5345  -8.5046  -8.4973
    -8.3283  -8.3279  -8.2025  -8.1903  -8.1882  -8.1754  -8.0505  -8.0402
    -7.9607  -7.9586  -7.8715  -7.8555  -7.6378  -7.6286  -7.5649  -7.5453
    -7.4121  -7.4009  -7.3742  -7.3572  -7.3056  -7.3049  -7.1588  -7.1368
    -7.0636  -7.0417  -6.9498  -6.9473  -6.6576  -6.6568  -6.6013  -6.5812
    -6.4483  -6.4424  -6.4391  -6.4295  -6.2152  -6.1989  -6.0808  -6.0507
    -5.9531  -5.9308  -5.8824  -5.8679  -5.6557  -5.6339  -5.6071  -5.5801
    -5.1382  -5.1365  -5.0793  -5.0740  -4.9289  -4.9135  -4.8071  -4.7975
    -4.5018  -4.4971  -4.3306  -4.3297  -4.1900  -4.1874  -3.8485  -3.8316
    -3.1436  -3.1250  -3.0460  -2.9863  -1.0004  -0.9930  -0.7033  -0.7027
    -0.3848  -0.3751  -0.2061  -0.2014   0.1122   0.1189   0.3161   0.3376
     0.4098   0.4437   0.8009   0.8455   0.9853   0.9909   1.0660   1.0838
     1.2093   1.2103   1.3508   1.3723   1.4522   1.4768   1.6519   1.6644
     1.7834   1.7869   2.0723   2.0800   2.1322   2.1428   2.2394   2.2495
     2.2692   2.2982   2.3308   2.3438   2.5107   2.5261   2.6005   2.6113
     2.6460   2.6561   2.6750   2.6792   2.6884   2.6903   2.8136   2.8359
     2.8459   2.8476   2.9299   2.9484   2.9800   3.0005   3.1019   3.1417
     3.2241   3.2296   3.2534   3.2713   3.3267   3.3403   3.3439   3.3581
     3.4615   3.4817   3.6177   3.6405   3.6690   3.6784   3.6983   3.7447
     3.8020   3.8232   3.8346   3.8618   3.9140   3.9142   3.9267   3.9700
     4.0663   4.0825   4.1238   4.1256   4.1316   4.1633   4.1656   4.1947
     4.2051   4.2083   4.3526   4.3553   4.4085   4.4141   4.4210   4.4432
     4.5096   4.5168   4.5171   4.5331   4.5498   4.5620   4.6700   4.7141
     4.7175   4.7465   4.7567   4.7655   4.8801   4.8880   4.9094   4.9279
     4.9637   4.9640   4.9910   5.0114   5.0431   5.0587   5.0845   5.0943
     5.1827   5.2000   5.2210   5.2233   5.2650   5.2703   5.3209   5.3333
     5.4287   5.4351   5.4593   5.4596   5.4738   5.4791   5.4953   5.5020
     5.5251   5.5399   5.5500   5.5692   5.6662   5.6812   5.7000   5.7138
     5.8264   5.8360   5.8445   5.8491   5.8741   5.8988   5.9000   5.9186
     6.0229   6.0301   6.0339   6.0502   6.0649   6.0961   6.1295   6.1468
     6.2219   6.2339   6.2425   6.2431   6.2738   6.2995   6.3051   6.3099
     6.3393   6.3418   6.3584   6.3688   6.5107   6.5185   6.5298   6.5341
     6.5401   6.5610   6.5668   6.5693   6.5805   6.5936   6.6610   6.6727
     6.6776   6.6826   6.7016   6.7236   6.7303   6.7635   6.7669   6.7673
     6.7915   6.8053   6.8060   6.8196   6.8646   6.8901   6.9029   6.9177
     6.9224   6.9362   6.9855   7.0197   7.0264   7.0637   7.0644   7.1020
     7.1357   7.1613   7.1667   7.1845   7.2323   7.2363   7.2720   7.2783
     7.3004   7.3028   7.3701   7.3964   7.4187   7.4241   7.4720   7.4896
     7.5117   7.5195   7.5799   7.5954   7.6092   7.6133   7.6178   7.6198
     7.6729   7.6881   7.7198   7.7224   7.7274   7.7551   7.7630   7.7713
     7.8195   7.8396   7.8501   7.8562   7.9065   7.9134   7.9157   7.9232
     7.9406   7.9468   7.9703   7.9807   8.0696   8.0710   8.0718   8.0756
     8.1561   8.1626   8.1783   8.1859   8.1930   8.1973   8.2269   8.2851
     8.3041   8.3341   8.3523   8.3535   8.3657   8.3737   8.4462   8.4595
     8.4723   8.4847   8.5541   8.5579   8.5585   8.5728   8.6512   8.6734
     8.6845   8.6850   8.6932   8.6980   8.7056   8.7537   8.7621   8.7677
     8.7683   8.7797   8.8079   8.8252   8.8479   8.8481   8.8490   8.9007
     8.9055   8.9341   8.9451   8.9470   8.9791   8.9955   9.0141   9.0173
     9.0249   9.0309   9.0472   9.0482   9.0745   9.0884   9.1093   9.1148
     9.1163   9.1264   9.1547   9.1641

          k = 0.0000 0.0000-0.0322 (130978 PWs)   bands (ev):

   -21.5702 -21.5702 -20.9960 -20.9960 -20.6538 -20.6537 -20.3847 -20.3846
   -20.0434 -20.0434 -19.6725 -19.6725 -19.4553 -19.4553 -19.0350 -19.0349
   -18.7921 -18.7921 -18.4898 -18.4897 -18.3385 -18.3385 -17.9771 -17.9771
   -17.5645 -17.5644 -17.2985 -17.2985 -17.1969 -17.1969 -16.8137 -16.8136
   -16.5485 -16.5483 -16.5214 -16.5213 -16.3055 -16.3054 -15.8490 -15.8489
   -15.5816 -15.5815 -14.8014 -14.8014 -14.7373 -14.7373 -14.4684 -14.4684
   -14.0419 -14.0419 -13.9008 -13.9008 -13.8094 -13.8092 -13.6207 -13.6207
   -13.2641 -13.2641 -12.9650 -12.9650 -12.6336 -12.6336 -12.2590 -12.2590
   -12.1648 -12.1647 -11.8836 -11.8835 -11.7399 -11.7398 -11.4969 -11.4968
   -11.1620 -11.1620 -11.0585 -11.0584 -10.7279 -10.7278 -10.6082 -10.6082
   -10.3688 -10.3688 -10.3015 -10.3014  -9.9461  -9.9461  -9.8707  -9.8706
    -9.6296  -9.6296  -9.5100  -9.5100  -9.3485  -9.3485  -9.1175  -9.1175
    -9.0526  -9.0526  -8.9825  -8.9825  -8.9192  -8.9191  -8.9014  -8.9013
    -8.8061  -8.8061  -8.6841  -8.6840  -8.5379  -8.5378  -8.5005  -8.5005
    -8.3278  -8.3277  -8.1968  -8.1967  -8.1825  -8.1825  -8.0442  -8.0440
    -7.9605  -7.9605  -7.8635  -7.8635  -7.6325  -7.6325  -7.5558  -7.5557
    -7.4066  -7.4065  -7.3645  -7.3644  -7.3065  -7.3064  -7.1476  -7.1476
    -7.0525  -7.0525  -6.9487  -6.9485  -6.6569  -6.6568  -6.5915  -6.5914
    -6.4437  -6.4436  -6.4359  -6.4359  -6.2071  -6.2068  -6.0656  -6.0655
    -5.9420  -5.9419  -5.8759  -5.8759  -5.6448  -5.6448  -5.5933  -5.5930
    -5.1374  -5.1373  -5.0770  -5.0765  -4.9210  -4.9209  -4.8025  -4.8024
    -4.4994  -4.4994  -4.3300  -4.3300  -4.1889  -4.1888  -3.8396  -3.8395
    -3.1340  -3.1340  -3.0172  -3.0169  -0.9966  -0.9965  -0.7025  -0.7024
    -0.3799  -0.3798  -0.2040  -0.2039   0.1154   0.1154   0.3272   0.3274
     0.4260   0.4261   0.8227   0.8228   0.9884   0.9884   1.0747   1.0748
     1.2093   1.2093   1.3612   1.3613   1.4645   1.4646   1.6582   1.6582
     1.7851   1.7851   2.0762   2.0763   2.1385   2.1385   2.2448   2.2448
     2.2842   2.2843   2.3370   2.3370   2.5185   2.5185   2.6104   2.6104
     2.6516   2.6516   2.6787   2.6787   2.6814   2.6814   2.8295   2.8295
     2.8419   2.8420   2.9388   2.9388   2.9902   2.9902   3.1209   3.1209
     3.2295   3.2295   3.2623   3.2623   3.3348   3.3348   3.3457   3.3457
     3.4717   3.4717   3.6325   3.6325   3.6717   3.6717   3.7221   3.7222
     3.8293   3.8293   3.8324   3.8324   3.9142   3.9142   3.9478   3.9478
     4.0731   4.0731   4.1289   4.1289   4.1493   4.1493   4.1738   4.1738
     4.2053   4.2053   4.3535   4.3535   4.4166   4.4166   4.4278   4.4279
     4.5175   4.5175   4.5333   4.5333   4.5438   4.5438   4.6946   4.6946
     4.7369   4.7369   4.7523   4.7524   4.8859   4.8859   4.9277   4.9277
     4.9619   4.9619   5.0055   5.0055   5.0553   5.0553   5.0714   5.0715
     5.2044   5.2044   5.2156   5.2156   5.2704   5.2704   5.3197   5.3197
     5.4394   5.4394   5.4616   5.4617   5.4795   5.4795   5.4860   5.4860
     5.5378   5.5378   5.5594   5.5594   5.6674   5.6674   5.7038   5.7038
     5.8320   5.8320   5.8471   5.8472   5.8868   5.8869   5.9089   5.9089
     6.0275   6.0275   6.0592   6.0592   6.0677   6.0677   6.1410   6.1410
     6.2361   6.2361   6.2585   6.2585   6.2644   6.2644   6.3060   6.3061
     6.3451   6.3451   6.3545   6.3545   6.5151   6.5151   6.5365   6.5365
     6.5496   6.5496   6.5654   6.5654   6.5874   6.5875   6.6708   6.6708
     6.6792   6.6792   6.7230   6.7230   6.7318   6.7318   6.7656   6.7656
     6.8073   6.8073   6.8087   6.8088   6.8736   6.8737   6.9089   6.9090
     6.9289   6.9289   7.0052   7.0053   7.0611   7.0611   7.0629   7.0630
     7.1474   7.1474   7.1743   7.1743   7.2486   7.2487   7.2596   7.2597
     7.3010   7.3010   7.3857   7.3858   7.4203   7.4204   7.4831   7.4831
     7.5224   7.5225   7.5821   7.5821   7.6097   7.6098   7.6187   7.6187
     7.6831   7.6831   7.7195   7.7195   7.7408   7.7408   7.7653   7.7653
     7.8531   7.8532   7.8732   7.8732   7.8766   7.8766   7.9121   7.9121
     7.9435   7.9435   7.9710   7.9711   8.0733   8.0733   8.0737   8.0737
     8.1716   8.1716   8.1808   8.1808   8.1830   8.1831   8.2601   8.2602
     8.3115   8.3116   8.3532   8.3532   8.3704   8.3705   8.4589   8.4589
     8.4764   8.4764   8.5550   8.5550   8.5651   8.5651   8.6738   8.6739
     8.6867   8.6868   8.6968   8.6968   8.7384   8.7384   8.7627   8.7628
     8.7651   8.7651   8.8266   8.8266   8.8358   8.8358   8.8803   8.8803
     8.9088   8.9088   8.9476   8.9477   8.9898   8.9898   9.0218   9.0218
     9.0402   9.0403   9.0409   9.0409   9.0777   9.0777   9.1057   9.1058
     9.1300   9.1302   9.1436   9.1437

     the Fermi energy is    -2.2640 ev

     Writing output data file V9_m9.save/

     init_run     :     21.21s CPU     22.00s WALL (       1 calls)
     electrons    :  10046.26s CPU  10158.64s WALL (       1 calls)

     Called by init_run:
     wfcinit      :      0.00s CPU      0.01s WALL (       1 calls)
     potinit      :      1.29s CPU      1.43s WALL (       1 calls)
     hinit0       :     16.20s CPU     16.33s WALL (       1 calls)

     Called by electrons:
     c_bands      :  10046.25s CPU  10158.57s WALL (       1 calls)
     v_of_rho     :      0.99s CPU      1.05s WALL (       1 calls)
     newd         :      0.96s CPU      1.30s WALL (       1 calls)

     Called by c_bands:
     init_us_2    :      1.46s CPU      1.61s WALL (      26 calls)
     cegterg      :   9814.66s CPU   9915.31s WALL (      71 calls)

     Called by sum_band:

     Called by *egterg:
     h_psi        :   3143.24s CPU   3189.73s WALL (    1151 calls)
     s_psi        :    440.99s CPU    443.42s WALL (    1151 calls)
     g_psi        :     15.32s CPU     15.42s WALL (    1054 calls)
     cdiaghg      :   3095.77s CPU   3107.78s WALL (    1080 calls)

     Called by h_psi:
     h_psi:pot    :   3124.12s CPU   3164.41s WALL (    1151 calls)
     h_psi:calbec :    419.58s CPU    425.04s WALL (    1151 calls)
     vloc_psi     :   2264.91s CPU   2297.52s WALL (    1151 calls)
     add_vuspsi   :    439.61s CPU    441.83s WALL (    1151 calls)

     General routines
     calbec       :    419.58s CPU    425.04s WALL (    1151 calls)
     fft          :      0.99s CPU      1.07s WALL (      14 calls)
     ffts         :      0.01s CPU      0.01s WALL (       1 calls)
     fftw         :   1799.12s CPU   1824.88s WALL (  543840 calls)
     interpolate  :      0.07s CPU      0.07s WALL (       1 calls)
     davcio       :      0.00s CPU      8.18s WALL (      52 calls)

     Parallel routines
     fft_scatt_xy :    333.40s CPU    337.09s WALL (  543855 calls)
     fft_scatt_yz :    302.19s CPU    309.77s WALL (  543855 calls)

     PWSCF        :     2h48m CPU       48h 2m WALL

      54h

   This run was terminated on:  21:30: 3  20Apr2021            

=------------------------------------------------------------------------------=
   JOB DONE.
=------------------------------------------------------------------------------=
