
     Program PWSCF v.6.3 starts on 20Apr2021 at 18: 5:25 

     This program is part of the open-source Quantum ESPRESSO suite
     for quantum simulation of materials; please cite
         "P. Giannozzi et al., J. Phys.:Condens. Matter 21 395502 (2009);
         "P. Giannozzi et al., J. Phys.:Condens. Matter 29 465901 (2017);
          URL http://www.quantum-espresso.org", 
     in publications or presentations arising from this work. More details at
     http://www.quantum-espresso.org/quote

     Parallel version (MPI), running on    16 processors
     R & G space division:  proc/nbgrp/npool/nimage =      16
     Waiting for input...
     Reading input from standard input
     Message from routine read_cards :
     DEPRECATED: no units specified in CELL_PARAMETERS card

     Current dimensions of program PWSCF are:
     Max number of different atomic species (ntypx) = 10
     Max number of k-points (npk) =  40000
     Max angular momentum in pseudopotentials (lmaxx) =  3

     Atomic positions and unit cell read from directory:
     /home/zfwang/scratch/GNRDATASET/AGNR/V9_m7/V9_m7.save/


     Subspace diagonalization in iterative solution of the eigenvalue problem:
     a serial algorithm will be used


     Parallelization info
     --------------------
     sticks:   dense  smooth     PW     G-vecs:    dense   smooth      PW
     Min        2497     832    215               347893    66942    8795
     Max        2498     834    217               347894    66944    8797
     Sum       39953   13323   3443              5566289  1071087  140735



     bravais-lattice index     =            0
     lattice parameter (alat)  =       1.8897  a.u.
     unit-cell volume          =   31344.7607 (a.u.)^3
     number of atoms/cell      =          108
     number of atomic types    =            2
     number of electrons       =       360.00
     number of Kohn-Sham states=          500
     kinetic-energy cutoff     =      40.0000  Ry
     charge density cutoff     =     480.0000  Ry
     Exchange-correlation      = PBE ( 1  4  3  4 0 0)

     celldm(1)=  18.897261  celldm(2)=   2.931000  celldm(3)=   1.584720
     celldm(4)=   0.000000  celldm(5)=   0.000000  celldm(6)=   0.000000

     crystal axes: (cart. coord. in units of alat)
               a(1) = (  10.000000   0.000000   0.000000 )  
               a(2) = (   0.000000  29.310000   0.000000 )  
               a(3) = (   0.000000   0.000000  15.847200 )  

     reciprocal axes: (cart. coord. in units 2 pi/alat)
               b(1) = (  0.100000  0.000000  0.000000 )  
               b(2) = (  0.000000  0.034118  0.000000 )  
               b(3) = (  0.000000  0.000000  0.063103 )  


     PseudoPot. # 1 for C  read from file:
     /home/zfwang/hp_home/MySoftware/qe-6.3/pseudo/C.pbe-n-rrkjus_psl.0.1.UPF
     MD5 check sum: fff530ed632a789b3b184014e67dd7f1
     Pseudo is Ultrasoft + core correction, Zval =  4.0
     Generated using "atomic" code by A. Dal Corso v.5.0.2 svn rev. 9415
     Using radial grid of 1073 points,  4 beta functions with: 
                l(1) =   0
                l(2) =   0
                l(3) =   1
                l(4) =   1
     Q(r) pseudized with 0 coefficients 


     PseudoPot. # 2 for H  read from file:
     /home/zfwang/hp_home/MySoftware/qe-6.3/pseudo/H.pbe-rrkjus_psl.0.1.UPF
     MD5 check sum: e164a6907b691c6980f16942be34de84
     Pseudo is Ultrasoft, Zval =  1.0
     Generated using "atomic" code by A. Dal Corso v.5.0.2 svn rev. 9415
     Using radial grid of  929 points,  2 beta functions with: 
                l(1) =   0
                l(2) =   0
     Q(r) pseudized with 0 coefficients 


     atomic species   valence    mass     pseudopotential
        C              4.00    12.01070     C ( 1.00)
        H              1.00     1.00794     H ( 1.00)

     No symmetry found



   Cartesian axes

     site n.     atom                  positions (alat units)
         1           C   tau(   1) = (   4.9999986   5.8883518   2.8744022  )
         2           C   tau(   2) = (   5.0000010   5.8594929  14.3643229  )
         3           C   tau(   3) = (   4.9999989   7.0940266   3.5632246  )
         4           C   tau(   4) = (   5.0000008   7.0443378  15.1130573  )
         5           C   tau(   5) = (   4.9999995   5.8594947   1.4828771  )
         6           C   tau(   6) = (   5.0000004   5.8883532  12.9728008  )
         7           C   tau(   7) = (   4.9999999   8.3161696   2.8738502  )
         8           C   tau(   8) = (   5.0000005   8.2841911  14.4050102  )
         9           C   tau(   9) = (   5.0000002   9.5990626   3.5685186  )
        10           C   tau(  10) = (   4.9999968   9.7289763  10.8729485  )
        11           C   tau(  11) = (   5.0000006   9.5097557  15.1391217  )
        12           C   tau(  12) = (   5.0000005   7.0443369   0.7341440  )
        13           C   tau(  13) = (   4.9999996   7.0940244  12.2839765  )
        14           C   tau(  14) = (   5.0000005   8.2841928   1.4421899  )
        15           C   tau(  15) = (   4.9999998   8.3161686  12.9733524  )
        16           C   tau(  16) = (   5.0000004  10.7920055   2.8120115  )
        17           C   tau(  17) = (   4.9999942  10.9670439  10.2621465  )
        18           C   tau(  18) = (   5.0000006  10.7428473  14.4500853  )
        19           C   tau(  19) = (   5.0000016  12.0657567   3.4459901  )
        20           C   tau(  20) = (   4.9999941  12.1571445  11.0243615  )
        21           C   tau(  21) = (   5.0000006  11.9604380  15.1532667  )
        22           C   tau(  22) = (   5.0000006   9.5097535   0.7080799  )
        23           C   tau(  23) = (   5.0000003   9.7289826   4.9742575  )
        24           C   tau(  24) = (   4.9999989   9.5990623  12.2786784  )
        25           C   tau(  25) = (   5.0000003  10.7428527   1.3971083  )
        26           C   tau(  26) = (   5.0000020  10.9670399   5.5850562  )
        27           C   tau(  27) = (   4.9999997  10.7920014  13.0351970  )
        28           C   tau(  28) = (   5.0000011  13.2949722   2.7224704  )
        29           C   tau(  29) = (   5.0000084  13.6383757   6.6660002  )
        30           C   tau(  30) = (   4.9999906  13.4952978  10.5012026  )
        31           C   tau(  31) = (   5.0000008  13.2133665  14.4902647  )
        32           C   tau(  32) = (   5.0000027  14.5974571   3.2854202  )
        33           C   tau(  33) = (   5.0000023  14.8804067   7.2373038  )
        34           C   tau(  34) = (   4.9999943  14.7125515  11.2090414  )
        35           C   tau(  35) = (   5.0000013  14.4295860  15.1608919  )
        36           C   tau(  36) = (   5.0000001  11.9604351   0.6939411  )
        37           C   tau(  37) = (   5.0000036  12.1571474   4.8228336  )
        38           C   tau(  38) = (   4.9999982  12.0657611  12.4011973  )
        39           C   tau(  39) = (   5.0000000  13.2133668   1.3569011  )
        40           C   tau(  40) = (   5.0000064  13.4953040   5.3460703  )
        41           C   tau(  41) = (   4.9999852  13.6383923   9.1811229  )
        42           C   tau(  42) = (   4.9999994  13.2949648  13.1247612  )
        43           C   tau(  43) = (   5.0000022  15.8146974   2.5777108  )
        44           C   tau(  44) = (   5.0000040  16.0966380   6.5666320  )
        45           C   tau(  45) = (   4.9999938  16.0150345  10.6460432  )
        46           C   tau(  46) = (   5.0000020  15.6716358  14.5897108  )
        47           C   tau(  47) = (   5.0000038  17.1528643   3.1007375  )
        48           C   tau(  48) = (   5.0000018  17.3495614   7.2296778  )
        49           C   tau(  49) = (   4.9999962  17.2442329  11.3695800  )
        50           C   tau(  50) = (   5.0000002  14.4295965   0.6863267  )
        51           C   tau(  51) = (   5.0000054  14.7125523   4.6381439  )
        52           C   tau(  52) = (   4.9999922  14.8803941   8.6099155  )
        53           C   tau(  53) = (   4.9999982  14.5974542  12.5617624  )
        54           C   tau(  54) = (   5.0000003  15.6716212   1.2574206  )
        55           C   tau(  55) = (   5.0000063  16.0150435   5.2011874  )
        56           C   tau(  56) = (   4.9999941  16.0966387   9.2805351  )
        57           C   tau(  57) = (   4.9999996  15.8146938  13.2695559  )
        58           C   tau(  58) = (   5.0000031  18.3429479   2.3385650  )
        59           C   tau(  59) = (   5.0000035  18.5671470   6.5264849  )
        60           C   tau(  60) = (   4.9999973  18.5180024  10.7356103  )
        61           C   tau(  61) = (   5.0000037  19.5810275   2.9493445  )
        62           C   tau(  62) = (   5.0000026  19.8002463   7.2155288  )
        63           C   tau(  63) = (   4.9999986  19.7109262  11.4921098  )
        64           C   tau(  64) = (   5.0000055  17.2442267   4.4776077  )
        65           C   tau(  65) = (   4.9999983  17.3495632   8.6175314  )
        66           C   tau(  66) = (   4.9999982  17.1528620  12.7464582  )
        67           C   tau(  67) = (   5.0000049  18.5180078   5.1115966  )
        68           C   tau(  68) = (   4.9999987  18.5671432   9.3207106  )
        69           C   tau(  69) = (   4.9999989  18.3429529  13.5086370  )
        70           C   tau(  70) = (   5.0000028  21.0258080   6.4814153  )
        71           C   tau(  71) = (   4.9999997  20.9938339  10.7974564  )
        72           C   tau(  72) = (   5.0000016  22.2656589   7.1894592  )
        73           C   tau(  73) = (   4.9999997  22.2159762  11.4868201  )
        74           C   tau(  74) = (   5.0000042  19.7109257   4.3550875  )
        75           C   tau(  75) = (   5.0000008  19.8002467   8.6316732  )
        76           C   tau(  76) = (   4.9999988  19.5810180  12.8978592  )
        77           C   tau(  77) = (   5.0000032  20.9938346   5.0497460  )
        78           C   tau(  78) = (   5.0000007  21.0258067   9.3657857  )
        79           C   tau(  79) = (   5.0000004  23.4505106   6.4407278  )
        80           C   tau(  80) = (   5.0000005  23.4216460  10.7980073  )
        81           C   tau(  81) = (   5.0000019  22.2159789   4.3603822  )
        82           C   tau(  82) = (   5.0000013  22.2656594   8.6577446  )
        83           C   tau(  83) = (   5.0000004  23.4216465   5.0491961  )
        84           C   tau(  84) = (   5.0000013  23.4505090   9.4064757  )
        85           H   tau(  85) = (   4.9999975   4.9510769   3.4315863  )
        86           H   tau(  86) = (   5.0000018   4.8917248  14.8626628  )
        87           H   tau(  87) = (   4.9999982   7.0774156   4.6519229  )
        88           H   tau(  88) = (   4.9999991   4.8917238   0.9845389  )
        89           H   tau(  89) = (   5.0000003   4.9510768  12.4156163  )
        90           H   tau(  90) = (   4.9999966   8.8434106  10.2394657  )
        91           H   tau(  91) = (   4.9999990   7.0774147  11.1952793  )
        92           H   tau(  92) = (   4.9999925  10.9893533   9.1737999  )
        93           H   tau(  93) = (   4.9999992   8.8434120   5.6077365  )
        94           H   tau(  94) = (   5.0000015  10.9893550   6.6734003  )
        95           H   tau(  95) = (   5.0000104  12.7289771   7.2199934  )
        96           H   tau(  96) = (   4.9999814  12.7289830   8.6272116  )
        97           H   tau(  97) = (   5.0000027  16.5810014  15.1435825  )
        98           H   tau(  98) = (   5.0000005  16.5809972   0.7036198  )
        99           H   tau(  99) = (   5.0000020  18.3206486   1.2501969  )
       100           H   tau( 100) = (   5.0000032  20.4665881   2.3158669  )
       101           H   tau( 101) = (   4.9999996  18.3206454  14.5970024  )
       102           H   tau( 102) = (   4.9999989  22.2325868  12.5755265  )
       103           H   tau( 103) = (   4.9999993  20.4665856  13.5313348  )
       104           H   tau( 104) = (   4.9999992  24.4182746   6.9390677  )
       105           H   tau( 105) = (   5.0000004  24.3589237  11.3551842  )
       106           H   tau( 106) = (   5.0000018  22.2325899   3.2716764  )
       107           H   tau( 107) = (   4.9999991  24.3589260   4.4920202  )
       108           H   tau( 108) = (   5.0000019  24.4182752   8.9081366  )

     number of k points=    26  Marzari-Vanderbilt smearing, width (Ry)=  0.0100
                       cart. coord. in units 2pi/alat
        k(    1) = (   0.0000000   0.0000000   0.0000000), wk =   0.0400000
        k(    2) = (   0.0000000   0.0000000   0.0012621), wk =   0.0800000
        k(    3) = (   0.0000000   0.0000000   0.0025241), wk =   0.0800000
        k(    4) = (   0.0000000   0.0000000   0.0037862), wk =   0.0800000
        k(    5) = (   0.0000000   0.0000000   0.0050482), wk =   0.0800000
        k(    6) = (   0.0000000   0.0000000   0.0063103), wk =   0.0800000
        k(    7) = (   0.0000000   0.0000000   0.0075723), wk =   0.0800000
        k(    8) = (   0.0000000   0.0000000   0.0088344), wk =   0.0800000
        k(    9) = (   0.0000000   0.0000000   0.0100964), wk =   0.0800000
        k(   10) = (   0.0000000   0.0000000   0.0113585), wk =   0.0800000
        k(   11) = (   0.0000000   0.0000000   0.0126205), wk =   0.0800000
        k(   12) = (   0.0000000   0.0000000   0.0138826), wk =   0.0800000
        k(   13) = (   0.0000000   0.0000000   0.0151446), wk =   0.0800000
        k(   14) = (   0.0000000   0.0000000   0.0164067), wk =   0.0800000
        k(   15) = (   0.0000000   0.0000000   0.0176687), wk =   0.0800000
        k(   16) = (   0.0000000   0.0000000   0.0189308), wk =   0.0800000
        k(   17) = (   0.0000000   0.0000000   0.0201928), wk =   0.0800000
        k(   18) = (   0.0000000   0.0000000   0.0214549), wk =   0.0800000
        k(   19) = (   0.0000000   0.0000000   0.0227169), wk =   0.0800000
        k(   20) = (   0.0000000   0.0000000   0.0239790), wk =   0.0800000
        k(   21) = (   0.0000000   0.0000000   0.0252411), wk =   0.0800000
        k(   22) = (   0.0000000   0.0000000   0.0265031), wk =   0.0800000
        k(   23) = (   0.0000000   0.0000000   0.0277652), wk =   0.0800000
        k(   24) = (   0.0000000   0.0000000   0.0290272), wk =   0.0800000
        k(   25) = (   0.0000000   0.0000000   0.0302893), wk =   0.0800000
        k(   26) = (   0.0000000   0.0000000  -0.0315513), wk =   0.0400000

     Dense  grid:  5566289 G-vectors     FFT dimensions: ( 135, 400, 216)

     Smooth grid:  1071087 G-vectors     FFT dimensions: (  80, 225, 125)

     Estimated max dynamical RAM per process >       1.19 GB

     Estimated total dynamical RAM >      19.06 GB

     The potential is recalculated from file :
     /home/zfwang/scratch/GNRDATASET/AGNR/V9_m7/V9_m7.save/charge-density.dat


     negative rho (up, down):  2.514E-04 0.000E+00
     Starting wfcs are  360 randomized atomic wfcs +  140 random wfcs

     Band Structure Calculation
     Davidson diagonalization with overlap

     ethr =  2.78E-09,  avg # of iterations = 41.0

     total cpu time spent up to now is    10682.4 secs

     End of band structure calculation

          k = 0.0000 0.0000 0.0000 (133849 PWs)   bands (ev):

   -21.5867 -21.2966 -21.2027 -20.8365 -20.7453 -20.6455 -20.2556 -20.1892
   -20.1406 -19.8883 -19.8152 -19.7191 -19.5897 -19.3206 -19.1490 -18.9721
   -18.9206 -18.7018 -18.6056 -18.3157 -18.3026 -18.1384 -17.9896 -17.8453
   -17.6220 -17.5870 -17.4942 -17.3568 -17.1780 -17.0648 -16.9685 -16.8467
   -16.7073 -16.7032 -16.5078 -16.4634 -16.3066 -16.2436 -15.8036 -15.6614
   -15.6572 -15.2468 -14.9634 -14.8607 -14.6953 -14.6665 -14.6249 -14.3117
   -14.2865 -14.2467 -14.0708 -14.0268 -13.8417 -13.7618 -13.6611 -13.4890
   -13.4247 -13.0290 -12.9278 -12.7362 -12.6398 -12.5309 -12.5169 -12.4531
   -12.4481 -11.9846 -11.9520 -11.9338 -11.7720 -11.6817 -11.4759 -11.2713
   -11.2237 -11.1138 -11.0333 -10.9203 -10.8943 -10.8146 -10.7266 -10.6181
   -10.5485 -10.3529 -10.2648 -10.1819 -10.0971 -10.0263  -9.9461  -9.7806
    -9.7524  -9.5731  -9.5257  -9.4858  -9.4514  -9.2961  -9.2678  -9.2373
    -9.1732  -9.1337  -9.1209  -9.0858  -9.0553  -8.9016  -8.7870  -8.7748
    -8.7066  -8.6984  -8.6845  -8.6214  -8.6173  -8.5556  -8.4923  -8.4785
    -8.4286  -8.3652  -8.2777  -8.2721  -8.2202  -8.1123  -8.0537  -8.0180
    -7.9365  -7.9217  -7.9208  -7.8625  -7.8528  -7.6581  -7.6168  -7.5552
    -7.5461  -7.5299  -7.5031  -7.4688  -7.4185  -7.3309  -7.3211  -7.0827
    -7.0746  -7.0450  -7.0060  -6.9006  -6.8099  -6.7826  -6.6899  -6.6719
    -6.5995  -6.5883  -6.3499  -6.3467  -6.3259  -6.2633  -6.2492  -6.2453
    -5.9736  -5.8852  -5.8844  -5.8747  -5.7710  -5.6553  -5.5342  -5.4488
    -5.3488  -5.1829  -5.1567  -5.1235  -5.1223  -4.9560  -4.8654  -4.7133
    -4.6197  -4.4747  -4.4041  -4.3730  -4.3054  -4.1667  -4.0981  -3.8148
    -3.3961  -3.3376  -2.9788  -2.5419  -1.2077  -1.0393  -0.9103  -0.8559
    -0.5014  -0.3833  -0.2453  -0.1253  -0.0778   0.1824   0.2097   0.2575
     0.3922   0.4231   0.6999   0.8675   0.8976   0.9192   1.0970   1.1688
     1.1853   1.3141   1.3312   1.4448   1.5217   1.5510   1.6199   1.6627
     1.7540   1.7604   1.7913   1.8057   1.8190   1.9502   2.0525   2.1179
     2.1190   2.1209   2.2661   2.3114   2.3487   2.4460   2.4539   2.4699
     2.5475   2.5691   2.6780   2.7150   2.7266   2.7278   2.7300   2.8204
     2.8417   2.9585   2.9949   3.0053   3.0332   3.0591   3.0793   3.1518
     3.1782   3.2126   3.2158   3.3061   3.3084   3.3467   3.3500   3.3617
     3.4102   3.4318   3.4357   3.4371   3.5162   3.5772   3.5884   3.6454
     3.6892   3.7077   3.7429   3.8108   3.8157   3.8610   3.8770   3.8838
     3.8988   3.9303   3.9371   3.9642   3.9719   4.0387   4.1088   4.1517
     4.1560   4.1934   4.2163   4.2488   4.2874   4.3251   4.4251   4.4677
     4.5182   4.5433   4.5598   4.5692   4.5751   4.6241   4.6379   4.6757
     4.6973   4.7016   4.7623   4.7686   4.7689   4.8102   4.8238   4.8499
     4.8502   4.8904   4.8985   4.9187   4.9203   4.9607   4.9614   4.9879
     5.0777   5.0913   5.1137   5.1183   5.1434   5.1529   5.2083   5.2168
     5.2542   5.3216   5.3659   5.3684   5.3714   5.4088   5.4308   5.4446
     5.4539   5.4789   5.5604   5.5618   5.5797   5.5857   5.6172   5.6631
     5.6785   5.7213   5.7720   5.8123   5.8149   5.8208   5.8518   5.8742
     5.8946   5.9346   5.9398   5.9626   6.0054   6.0233   6.0913   6.1178
     6.1541   6.1620   6.1952   6.1997   6.2153   6.2269   6.2298   6.2414
     6.2836   6.3342   6.3399   6.3629   6.3667   6.3722   6.3778   6.3882
     6.3895   6.3899   6.3908   6.4340   6.4641   6.4763   6.4922   6.5347
     6.5455   6.6048   6.6092   6.6326   6.6674   6.6741   6.6892   6.6958
     6.6985   6.7440   6.7797   6.8055   6.8106   6.8212   6.8704   6.8826
     6.9135   6.9241   6.9340   6.9364   6.9612   7.0438   7.0769   7.0873
     7.0909   7.1007   7.1383   7.1739   7.1898   7.2188   7.2223   7.2316
     7.2395   7.2415   7.2444   7.2885   7.2913   7.2995   7.3395   7.3417
     7.3762   7.4072   7.4646   7.4763   7.4849   7.4888   7.4904   7.5200
     7.5418   7.5681   7.6073   7.6118   7.6227   7.6397   7.6615   7.6691
     7.6788   7.6995   7.7137   7.7169   7.7400   7.7787   7.8240   7.8458
     7.8594   7.8706   7.8770   7.8884   7.8892   7.8933   7.8951   7.9464
     7.9652   7.9783   8.0005   8.0076   8.0362   8.0561   8.0599   8.0700
     8.0781   8.0858   8.0895   8.1684   8.1985   8.2021   8.2120   8.2143
     8.2479   8.2778   8.2805   8.2825   8.3083   8.3134   8.3173   8.4246
     8.4466   8.4478   8.4922   8.5006   8.5009   8.5078   8.5178   8.5400
     8.5770   8.5894   8.6235   8.6309   8.6353   8.6534   8.6574   8.6811
     8.6939   8.7254   8.7336   8.7883   8.7887   8.7943   8.8325   8.8956
     8.8986   8.9007   8.9411   8.9443   8.9667   8.9686   8.9691   8.9850
     8.9952   9.0142   9.0210   9.0235

          k = 0.0000 0.0000 0.0013 (133839 PWs)   bands (ev):

   -21.5866 -21.2980 -21.2012 -20.8368 -20.7451 -20.6452 -20.2564 -20.1883
   -20.1416 -19.8899 -19.8130 -19.7186 -19.5899 -19.3208 -19.1487 -18.9729
   -18.9195 -18.7023 -18.6051 -18.3158 -18.3030 -18.1379 -17.9919 -17.8455
   -17.6219 -17.5856 -17.4937 -17.3567 -17.1782 -17.0641 -16.9692 -16.8463
   -16.7096 -16.7006 -16.5079 -16.4635 -16.3068 -16.2436 -15.8042 -15.6609
   -15.6572 -15.2502 -14.9630 -14.8584 -14.6954 -14.6677 -14.6230 -14.3119
   -14.2896 -14.2435 -14.0715 -14.0254 -13.8418 -13.7617 -13.6606 -13.4892
   -13.4254 -13.0290 -12.9289 -12.7378 -12.6381 -12.5439 -12.5034 -12.4648
   -12.4360 -11.9848 -11.9536 -11.9319 -11.7719 -11.6814 -11.4770 -11.2721
   -11.2240 -11.1127 -11.0328 -10.9236 -10.8940 -10.8167 -10.7264 -10.6125
   -10.5485 -10.3535 -10.2649 -10.1833 -10.0960 -10.0251  -9.9469  -9.7800
    -9.7524  -9.5729  -9.5310  -9.4858  -9.4468  -9.2957  -9.2688  -9.2367
    -9.1729  -9.1355  -9.1198  -9.0847  -9.0549  -8.9017  -8.7873  -8.7756
    -8.7066  -8.6989  -8.6839  -8.6211  -8.6181  -8.5553  -8.4918  -8.4787
    -8.4284  -8.3665  -8.2772  -8.2718  -8.2201  -8.1133  -8.0525  -8.0213
    -7.9354  -7.9236  -7.9215  -7.8601  -7.8524  -7.6597  -7.6155  -7.5552
    -7.5458  -7.5290  -7.5023  -7.4674  -7.4186  -7.3311  -7.3213  -7.0888
    -7.0688  -7.0449  -7.0062  -6.9012  -6.8094  -6.7824  -6.6899  -6.6717
    -6.5990  -6.5880  -6.3529  -6.3456  -6.3263  -6.2617  -6.2495  -6.2451
    -5.9736  -5.8875  -5.8839  -5.8721  -5.7728  -5.6537  -5.5358  -5.4493
    -5.3489  -5.1828  -5.1569  -5.1257  -5.1197  -4.9554  -4.8655  -4.7136
    -4.6193  -4.4750  -4.4038  -4.3730  -4.3049  -4.1669  -4.0979  -3.8148
    -3.3958  -3.3372  -2.9791  -2.5435  -1.2068  -1.0394  -0.9099  -0.8555
    -0.5012  -0.3833  -0.2453  -0.1264  -0.0766   0.1822   0.2093   0.2574
     0.3920   0.4240   0.6993   0.8676   0.8974   0.9193   1.0979   1.1690
     1.1849   1.3138   1.3303   1.4411   1.5213   1.5519   1.6200   1.6614
     1.7407   1.7745   1.7914   1.8074   1.8217   1.9503   2.0523   2.1182
     2.1198   2.1209   2.2664   2.3116   2.3487   2.4454   2.4544   2.4702
     2.5479   2.5700   2.6771   2.7151   2.7227   2.7272   2.7317   2.8228
     2.8427   2.9577   2.9861   3.0135   3.0306   3.0486   3.0898   3.1526
     3.1803   3.2131   3.2152   3.3041   3.3061   3.3469   3.3480   3.3621
     3.4144   3.4261   3.4367   3.4407   3.5018   3.5752   3.6085   3.6434
     3.6924   3.6981   3.7529   3.8014   3.8191   3.8477   3.8663   3.8976
     3.9065   3.9256   3.9392   3.9643   3.9848   4.0397   4.1092   4.1480
     4.1563   4.1971   4.2157   4.2468   4.2832   4.3263   4.4314   4.4670
     4.5182   4.5279   4.5633   4.5731   4.5759   4.6238   4.6426   4.6679
     4.6890   4.6929   4.7679   4.7694   4.7735   4.8095   4.8156   4.8511
     4.8608   4.8911   4.8985   4.9202   4.9226   4.9572   4.9714   4.9886
     5.0581   5.0959   5.1140   5.1141   5.1419   5.1752   5.2087   5.2177
     5.2554   5.3186   5.3464   5.3681   5.3736   5.4256   5.4315   5.4463
     5.4548   5.4761   5.5484   5.5651   5.5758   5.5831   5.6178   5.6772
     5.6775   5.7257   5.7716   5.8118   5.8173   5.8205   5.8495   5.8739
     5.8858   5.9402   5.9433   5.9620   6.0076   6.0213   6.0908   6.1155
     6.1531   6.1641   6.1926   6.1930   6.2083   6.2184   6.2261   6.2500
     6.2823   6.3301   6.3368   6.3558   6.3691   6.3693   6.3697   6.3710
     6.3926   6.4042   6.4104   6.4301   6.4726   6.4930   6.4931   6.5349
     6.5458   6.5913   6.6220   6.6338   6.6685   6.6752   6.6849   6.6897
     6.7056   6.7430   6.7767   6.8053   6.8065   6.8199   6.8729   6.8830
     6.9142   6.9317   6.9352   6.9406   6.9604   7.0428   7.0667   7.0837
     7.0969   7.0977   7.1377   7.1711   7.1890   7.2106   7.2154   7.2285
     7.2371   7.2390   7.2634   7.2761   7.2988   7.3017   7.3448   7.3516
     7.3779   7.4026   7.4657   7.4701   7.4824   7.4867   7.4886   7.5212
     7.5459   7.5707   7.6042   7.6097   7.6240   7.6390   7.6577   7.6631
     7.6987   7.7012   7.7049   7.7209   7.7412   7.7783   7.8216   7.8474
     7.8567   7.8734   7.8780   7.8813   7.8834   7.8872   7.9031   7.9456
     7.9490   7.9635   8.0001   8.0339   8.0375   8.0579   8.0611   8.0618
     8.0826   8.0979   8.1030   8.1594   8.1832   8.2046   8.2058   8.2266
     8.2493   8.2650   8.2737   8.2853   8.3178   8.3262   8.3266   8.4168
     8.4462   8.4532   8.4910   8.4992   8.5016   8.5147   8.5159   8.5462
     8.5696   8.5948   8.6174   8.6243   8.6355   8.6359   8.6630   8.6879
     8.6961   8.7374   8.7411   8.7789   8.7857   8.7922   8.8409   8.8883
     8.8898   8.9020   8.9340   8.9547   8.9648   8.9677   8.9763   8.9776
     8.9949   8.9993   9.0246   9.0384

          k = 0.0000 0.0000 0.0025 (133823 PWs)   bands (ev):

   -21.5862 -21.3020 -21.1970 -20.8378 -20.7444 -20.6445 -20.2588 -20.1859
   -20.1445 -19.8943 -19.8072 -19.7173 -19.5904 -19.3213 -19.1476 -18.9752
   -18.9165 -18.7038 -18.6037 -18.3161 -18.3042 -18.1364 -17.9989 -17.8461
   -17.6215 -17.5817 -17.4922 -17.3565 -17.1788 -17.0618 -16.9711 -16.8449
   -16.7129 -16.6960 -16.5082 -16.4635 -16.3073 -16.2434 -15.8059 -15.6594
   -15.6573 -15.2601 -14.9620 -14.8516 -14.6959 -14.6708 -14.6177 -14.3123
   -14.2969 -14.2356 -14.0731 -14.0215 -13.8423 -13.7615 -13.6591 -13.4901
   -13.4273 -13.0289 -12.9320 -12.7423 -12.6333 -12.5613 -12.4846 -12.4782
   -12.4214 -11.9855 -11.9570 -11.9273 -11.7715 -11.6805 -11.4802 -11.2747
   -11.2248 -11.1093 -11.0314 -10.9330 -10.8930 -10.8232 -10.7245 -10.5974
   -10.5485 -10.3553 -10.2651 -10.1873 -10.0928 -10.0217  -9.9494  -9.7782
    -9.7525  -9.5724  -9.5441  -9.4859  -9.4359  -9.2946  -9.2719  -9.2350
    -9.1718  -9.1405  -9.1168  -9.0817  -9.0538  -8.9020  -8.7883  -8.7779
    -8.7068  -8.7001  -8.6822  -8.6204  -8.6202  -8.5545  -8.4903  -8.4794
    -8.4279  -8.3704  -8.2755  -8.2707  -8.2199  -8.1162  -8.0494  -8.0302
    -7.9329  -7.9287  -7.9239  -7.8538  -7.8513  -7.6644  -7.6120  -7.5554
    -7.5446  -7.5268  -7.4999  -7.4633  -7.4188  -7.3317  -7.3219  -7.0980
    -7.0605  -7.0448  -7.0071  -6.9029  -6.8080  -6.7817  -6.6901  -6.6711
    -6.5975  -6.5869  -6.3591  -6.3448  -6.3275  -6.2573  -6.2504  -6.2444
    -5.9738  -5.8917  -5.8824  -5.8669  -5.7779  -5.6493  -5.5405  -5.4510
    -5.3493  -5.1826  -5.1574  -5.1280  -5.1160  -4.9537  -4.8657  -4.7144
    -4.6181  -4.4758  -4.4027  -4.3728  -4.3034  -4.1677  -4.0971  -3.8150
    -3.3950  -3.3361  -2.9801  -2.5484  -1.2041  -1.0396  -0.9088  -0.8544
    -0.5007  -0.3834  -0.2454  -0.1294  -0.0733   0.1815   0.2082   0.2569
     0.3914   0.4265   0.6976   0.8681   0.8969   0.9197   1.1003   1.1694
     1.1839   1.3126   1.3274   1.4305   1.5203   1.5541   1.6201   1.6576
     1.7261   1.7914   1.7920   1.8125   1.8293   1.9508   2.0518   2.1189
     2.1208   2.1222   2.2672   2.3122   2.3486   2.4437   2.4562   2.4709
     2.5489   2.5726   2.6747   2.7154   2.7155   2.7254   2.7329   2.8292
     2.8458   2.9556   2.9733   3.0232   3.0247   3.0322   3.1066   3.1547
     3.1862   3.2134   3.2141   3.2933   3.3061   3.3398   3.3515   3.3633
     3.4116   3.4256   3.4356   3.4538   3.4711   3.5827   3.6374   3.6399
     3.6808   3.7022   3.7718   3.7876   3.8144   3.8277   3.8486   3.9146
     3.9191   3.9243   3.9468   3.9645   4.0107   4.0430   4.1102   4.1399
     4.1571   4.2052   4.2138   4.2400   4.2740   4.3298   4.4479   4.4649
     4.5060   4.5180   4.5491   4.5778   4.5860   4.6223   4.6512   4.6525
     4.6728   4.6733   4.7617   4.7816   4.7849   4.7968   4.8121   4.8542
     4.8863   4.8924   4.8990   4.9200   4.9334   4.9472   4.9905   4.9961
     5.0392   5.0626   5.1148   5.1378   5.1426   5.2043   5.2100   5.2243
     5.2594   5.3110   5.3132   5.3671   5.3788   5.4341   5.4489   5.4515
     5.4567   5.4709   5.5209   5.5654   5.5756   5.5783   5.6195   5.6746
     5.7077   5.7369   5.7708   5.8104   5.8186   5.8244   5.8442   5.8686
     5.8737   5.9412   5.9599   5.9602   6.0127   6.0148   6.0878   6.1106
     6.1511   6.1677   6.1752   6.1850   6.1918   6.2038   6.2203   6.2549
     6.2824   6.3182   6.3230   6.3393   6.3565   6.3656   6.3672   6.3851
     6.3990   6.4259   6.4260   6.4319   6.4877   6.4953   6.5294   6.5355
     6.5468   6.5758   6.6355   6.6374   6.6683   6.6718   6.6794   6.6921
     6.7111   6.7400   6.7698   6.7947   6.8094   6.8165   6.8766   6.8839
     6.9160   6.9384   6.9511   6.9522   6.9579   7.0402   7.0528   7.0655
     7.0876   7.1087   7.1361   7.1704   7.1845   7.1867   7.2024   7.2284
     7.2316   7.2378   7.2652   7.2869   7.3065   7.3099   7.3531   7.3780
     7.3825   7.3896   7.4550   7.4696   7.4760   7.4831   7.4832   7.5227
     7.5518   7.5771   7.5937   7.6056   7.6271   7.6366   7.6572   7.6662
     7.6914   7.7064   7.7210   7.7263   7.7433   7.7790   7.8147   7.8418
     7.8512   7.8546   7.8704   7.8778   7.8843   7.8934   7.9154   7.9192
     7.9436   7.9536   7.9997   8.0268   8.0520   8.0634   8.0670   8.0837
     8.0886   8.1230   8.1245   8.1368   8.1627   8.1928   8.2122   8.2357
     8.2489   8.2541   8.2669   8.2951   8.3263   8.3472   8.3516   8.3993
     8.4449   8.4690   8.4894   8.4942   8.5016   8.5095   8.5347   8.5561
     8.5569   8.5945   8.6080   8.6108   8.6197   8.6336   8.6653   8.7021
     8.7023   8.7489   8.7584   8.7668   8.7850   8.7868   8.8564   8.8709
     8.8734   8.9052   8.9331   8.9380   8.9471   8.9646   8.9882   8.9913
     8.9939   9.0020   9.0363   9.0372

          k = 0.0000 0.0000 0.0038 (133845 PWs)   bands (ev):

   -21.5854 -21.3081 -21.1906 -20.8394 -20.7433 -20.6433 -20.2623 -20.1823
   -20.1493 -19.9003 -19.7989 -19.7148 -19.5913 -19.3221 -19.1459 -18.9785
   -18.9120 -18.7062 -18.6014 -18.3166 -18.3061 -18.1339 -18.0099 -17.8473
   -17.6209 -17.5757 -17.4896 -17.3560 -17.1798 -17.0580 -16.9744 -16.8428
   -16.7161 -16.6908 -16.5088 -16.4637 -16.3082 -16.2432 -15.8088 -15.6575
   -15.6571 -15.2756 -14.9602 -14.8415 -14.6968 -14.6749 -14.6101 -14.3129
   -14.3060 -14.2256 -14.0753 -14.0158 -13.8429 -13.7611 -13.6566 -13.4915
   -13.4307 -13.0287 -12.9371 -12.7491 -12.6261 -12.5781 -12.4911 -12.4653
   -12.4065 -11.9865 -11.9611 -11.9214 -11.7710 -11.6790 -11.4852 -11.2789
   -11.2260 -11.1041 -11.0293 -10.9469 -10.8912 -10.8338 -10.7193 -10.5764
   -10.5486 -10.3581 -10.2652 -10.1935 -10.0877 -10.0167  -9.9535  -9.7752
    -9.7526  -9.5716  -9.5610  -9.4860  -9.4227  -9.2928  -9.2766  -9.2320
    -9.1700  -9.1477  -9.1120  -9.0777  -9.0520  -8.9025  -8.7898  -8.7815
    -8.7070  -8.7021  -8.6798  -8.6239  -8.6187  -8.5532  -8.4880  -8.4805
    -8.4270  -8.3770  -8.2728  -8.2691  -8.2196  -8.1204  -8.0447  -8.0430
    -7.9357  -7.9305  -7.9278  -7.8490  -7.8449  -7.6714  -7.6076  -7.5556
    -7.5417  -7.5236  -7.4960  -7.4566  -7.4192  -7.3327  -7.3230  -7.1077
    -7.0523  -7.0445  -7.0085  -6.9058  -6.8057  -6.7805  -6.6903  -6.6701
    -6.5951  -6.5853  -6.3671  -6.3449  -6.3295  -6.2519  -6.2508  -6.2433
    -5.9740  -5.8961  -5.8799  -5.8608  -5.7857  -5.6428  -5.5482  -5.4537
    -5.3498  -5.1824  -5.1583  -5.1300  -5.1118  -4.9510  -4.8661  -4.7158
    -4.6162  -4.4770  -4.4009  -4.3725  -4.3009  -4.1688  -4.0959  -3.8152
    -3.3937  -3.3341  -2.9817  -2.5563  -1.1997  -1.0399  -0.9069  -0.8526
    -0.4999  -0.3835  -0.2456  -0.1338  -0.0684   0.1802   0.2064   0.2564
     0.3904   0.4306   0.6948   0.8690   0.8962   0.9203   1.1042   1.1702
     1.1822   1.3107   1.3227   1.4140   1.5192   1.5567   1.6203   1.6517
     1.7131   1.7914   1.8100   1.8204   1.8408   1.9518   2.0511   2.1200
     2.1208   2.1262   2.2686   2.3133   2.3484   2.4412   2.4590   2.4722
     2.5504   2.5769   2.6709   2.7064   2.7161   2.7223   2.7330   2.8385
     2.8507   2.9521   2.9601   3.0119   3.0153   3.0352   3.1241   3.1583
     3.1950   3.2098   3.2150   3.2788   3.3062   3.3325   3.3568   3.3653
     3.3930   3.4337   3.4361   3.4408   3.4717   3.5931   3.6274   3.6624
     3.6724   3.7181   3.7718   3.7927   3.8022   3.8074   3.8309   3.9174
     3.9321   3.9419   3.9590   3.9648   4.0402   4.0488   4.1120   4.1317
     4.1586   4.2107   4.2141   4.2268   4.2657   4.3359   4.4618   4.4701
     4.4837   4.5173   4.5310   4.5781   4.5828   4.6169   4.6378   4.6485
     4.6604   4.6677   4.7500   4.7777   4.7869   4.8016   4.8178   4.8593
     4.8895   4.9007   4.9185   4.9193   4.9367   4.9493   4.9936   5.0274
     5.0279   5.0292   5.1160   5.1316   5.1687   5.2123   5.2139   5.2524
     5.2677   5.2773   5.3011   5.3650   5.3849   5.4386   5.4521   5.4530
     5.4597   5.4801   5.4971   5.5514   5.5643   5.5981   5.6217   5.6710
     5.7425   5.7489   5.7725   5.8084   5.8116   5.8354   5.8400   5.8505
     5.8746   5.9429   5.9571   5.9779   6.0034   6.0180   6.0783   6.1056
     6.1505   6.1508   6.1573   6.1727   6.1800   6.1927   6.2093   6.2496
     6.2887   6.2949   6.3160   6.3233   6.3470   6.3585   6.3755   6.3995
     6.4064   6.4318   6.4449   6.4528   6.4992   6.5039   6.5367   6.5458
     6.5655   6.5680   6.6434   6.6468   6.6486   6.6769   6.6860   6.6982
     6.7144   6.7352   6.7639   6.7847   6.8116   6.8140   6.8784   6.8844
     6.9178   6.9423   6.9537   6.9637   6.9800   7.0371   7.0404   7.0412
     7.0720   7.1179   7.1353   7.1558   7.1748   7.1818   7.1841   7.2140
     7.2198   7.2462   7.2600   7.3099   7.3154   7.3247   7.3637   7.3704
     7.3888   7.4105   7.4376   7.4680   7.4752   7.4759   7.4793   7.5223
     7.5506   7.5825   7.5842   7.6027   7.6308   7.6317   7.6680   7.6682
     7.6787   7.7101   7.7173   7.7444   7.7552   7.7829   7.8043   7.8057
     7.8458   7.8542   7.8590   7.8603   7.8914   7.8914   7.9175   7.9302
     7.9418   7.9486   8.0021   8.0162   8.0467   8.0723   8.0742   8.0931
     8.1071   8.1281   8.1326   8.1451   8.1562   8.1808   8.2231   8.2316
     8.2569   8.2625   8.2654   8.3045   8.3336   8.3722   8.3743   8.3782
     8.4475   8.4852   8.4862   8.4929   8.4981   8.5010   8.5359   8.5607
     8.5629   8.5819   8.5965   8.5976   8.6233   8.6385   8.6659   8.7097
     8.7181   8.7337   8.7669   8.7680   8.7799   8.8092   8.8540   8.8592
     8.8685   8.9081   8.9104   8.9179   8.9472   8.9583   8.9922   8.9925
     9.0050   9.0135   9.0317   9.0508

          k = 0.0000 0.0000 0.0050 (133861 PWs)   bands (ev):

   -21.5844 -21.3156 -21.1826 -20.8416 -20.7417 -20.6417 -20.2667 -20.1776
   -20.1558 -19.9071 -19.7893 -19.7112 -19.5926 -19.3233 -19.1435 -18.9823
   -18.9063 -18.7092 -18.5983 -18.3172 -18.3087 -18.1305 -18.0244 -17.8490
   -17.6201 -17.5683 -17.4857 -17.3553 -17.1812 -17.0527 -16.9788 -16.8397
   -16.7192 -16.6850 -16.5095 -16.4639 -16.3095 -16.2429 -15.8126 -15.6577
   -15.6539 -15.2957 -14.9578 -14.8290 -14.6979 -14.6793 -14.6008 -14.3156
   -14.3133 -14.2147 -14.0773 -14.0090 -13.8439 -13.7606 -13.6530 -13.4935
   -13.4353 -13.0284 -12.9443 -12.7575 -12.6173 -12.5939 -12.5033 -12.4460
   -12.3915 -11.9878 -11.9653 -11.9147 -11.7703 -11.6770 -11.4918 -11.2849
   -11.2272 -11.0978 -11.0269 -10.9636 -10.8887 -10.8472 -10.7108 -10.5521
   -10.5488 -10.3617 -10.2651 -10.2014 -10.0808 -10.0107  -9.9587  -9.7710
    -9.7527  -9.5796  -9.5705  -9.4860  -9.4096  -9.2902  -9.2829  -9.2276
    -9.1676  -9.1564  -9.1058  -9.0735  -9.0495  -8.9033  -8.7919  -8.7862
    -8.7074  -8.7047  -8.6774  -8.6281  -8.6167  -8.5514  -8.4849  -8.4821
    -8.4259  -8.3862  -8.2691  -8.2668  -8.2191  -8.1256  -8.0579  -8.0389
    -7.9434  -7.9333  -7.9293  -7.8454  -7.8345  -7.6801  -7.6038  -7.5559
    -7.5360  -7.5201  -7.4907  -7.4475  -7.4198  -7.3340  -7.3245  -7.1176
    -7.0445  -7.0442  -7.0105  -6.9097  -6.8025  -6.7789  -6.6906  -6.6686
    -6.5919  -6.5830  -6.3765  -6.3456  -6.3321  -6.2540  -6.2429  -6.2419
    -5.9743  -5.9004  -5.8765  -5.8543  -5.7953  -5.6349  -5.5588  -5.4575
    -5.3505  -5.1820  -5.1595  -5.1318  -5.1070  -4.9475  -4.8666  -4.7178
    -4.6136  -4.4787  -4.3986  -4.3721  -4.2975  -4.1705  -4.0940  -3.8156
    -3.3919  -3.3314  -2.9839  -2.5673  -1.1939  -1.0403  -0.9041  -0.8501
    -0.4987  -0.3837  -0.2458  -0.1390  -0.0624   0.1785   0.2038   0.2559
     0.3890   0.4361   0.6906   0.8702   0.8956   0.9211   1.1091   1.1712
     1.1798   1.3081   1.3166   1.3931   1.5183   1.5586   1.6206   1.6443
     1.7025   1.7912   1.8282   1.8306   1.8548   1.9533   2.0502   2.1206
     2.1214   2.1319   2.2705   2.3149   2.3480   2.4380   2.4630   2.4739
     2.5524   2.5824   2.6660   2.6966   2.7170   2.7181   2.7324   2.8498
     2.8573   2.9467   2.9477   2.9979   2.9986   3.0447   3.1416   3.1627
     3.2041   3.2058   3.2144   3.2627   3.3068   3.3275   3.3636   3.3680
     3.3737   3.4009   3.4313   3.4579   3.4922   3.6021   3.6139   3.6443
     3.7046   3.7359   3.7528   3.7875   3.7900   3.8145   3.8174   3.9175
     3.9443   3.9652   3.9652   3.9722   4.0570   4.0694   4.1143   4.1274
     4.1606   4.2061   4.2090   4.2219   4.2599   4.3443   4.4581   4.4618
     4.4941   4.5110   4.5151   4.5603   4.5693   4.6121   4.6237   4.6345
     4.6593   4.6777   4.7361   4.7672   4.7887   4.8151   4.8237   4.8652
     4.8743   4.9038   4.9180   4.9378   4.9513   4.9687   4.9975   4.9996
     5.0214   5.0627   5.1177   5.1243   5.1893   5.2156   5.2167   5.2408
     5.2820   5.2881   5.2899   5.3613   5.3908   5.4303   5.4422   5.4454
     5.4699   5.4935   5.4964   5.5365   5.5499   5.6231   5.6241   5.6677
     5.7522   5.7746   5.7820   5.7987   5.8075   5.8362   5.8392   5.8495
     5.8764   5.9450   5.9527   5.9870   5.9952   6.0213   6.0601   6.1007
     6.1228   6.1260   6.1519   6.1571   6.1789   6.1874   6.1984   6.2411
     6.2753   6.2956   6.3091   6.3103   6.3426   6.3487   6.3878   6.3948
     6.4300   6.4461   6.4552   6.4717   6.5051   6.5191   6.5340   6.5382
     6.5730   6.5980   6.6301   6.6517   6.6552   6.6836   6.6947   6.7097
     6.7163   6.7289   6.7648   6.7775   6.8062   6.8202   6.8779   6.8832
     6.9176   6.9422   6.9505   6.9749   7.0038   7.0155   7.0350   7.0365
     7.0558   7.1219   7.1249   7.1365   7.1623   7.1707   7.1814   7.2035
     7.2046   7.2584   7.2585   7.3195   7.3318   7.3459   7.3477   7.3738
     7.3946   7.4216   7.4451   7.4619   7.4674   7.4745   7.4815   7.5211
     7.5396   7.5794   7.5865   7.6018   7.6198   7.6374   7.6678   7.6733
     7.6831   7.6936   7.7121   7.7487   7.7783   7.7857   7.7882   7.7934
     7.8075   7.8517   7.8556   7.8573   7.8834   7.9015   7.9327   7.9428
     7.9444   7.9452   8.0058   8.0090   8.0433   8.0777   8.0779   8.0846
     8.0916   8.1148   8.1589   8.1602   8.1742   8.1781   8.2327   8.2449
     8.2682   8.2747   8.2778   8.3122   8.3374   8.3568   8.3949   8.3950
     8.4546   8.4774   8.4800   8.4814   8.5009   8.5113   8.5134   8.5547
     8.5718   8.5837   8.5922   8.5958   8.6308   8.6564   8.6652   8.7060
     8.7168   8.7326   8.7675   8.7736   8.7888   8.8127   8.8505   8.8593
     8.8645   8.8852   8.9085   8.9136   8.9474   8.9578   8.9762   8.9906
     9.0072   9.0205   9.0220   9.0374

          k = 0.0000 0.0000 0.0063 (133853 PWs)   bands (ev):

   -21.5832 -21.3240 -21.1736 -20.8443 -20.7396 -20.6397 -20.2718 -20.1723
   -20.1638 -19.9140 -19.7794 -19.7062 -19.5942 -19.3249 -19.1404 -18.9863
   -18.9000 -18.7129 -18.5948 -18.3181 -18.3119 -18.1263 -18.0418 -17.8514
   -17.6191 -17.5603 -17.4803 -17.3543 -17.1829 -17.0461 -16.9843 -16.8356
   -16.7223 -16.6786 -16.5104 -16.4642 -16.3111 -16.2425 -15.8172 -15.6582
   -15.6502 -15.3191 -14.9547 -14.8153 -14.6993 -14.6839 -14.5904 -14.3255
   -14.3131 -14.2034 -14.0789 -14.0014 -13.8450 -13.7599 -13.6484 -13.4960
   -13.4413 -13.0281 -12.9534 -12.7670 -12.6085 -12.6075 -12.5145 -12.4272
   -12.3763 -11.9894 -11.9695 -11.9076 -11.7695 -11.6745 -11.4994 -11.2923
   -11.2285 -11.0913 -11.0243 -10.9811 -10.8853 -10.8618 -10.7001 -10.5491
   -10.5268 -10.3658 -10.2645 -10.2107 -10.0724 -10.0048  -9.9646  -9.7655
    -9.7527  -9.5989  -9.5690  -9.4861  -9.3975  -9.2902  -9.2868  -9.2219
    -9.1662  -9.1644  -9.0984  -9.0694  -9.0464  -8.9044  -8.7945  -8.7917
    -8.7078  -8.7078  -8.6758  -8.6322  -8.6140  -8.5492  -8.4841  -8.4813
    -8.4247  -8.3983  -8.2646  -8.2639  -8.2184  -8.1313  -8.0736  -8.0324
    -7.9515  -7.9402  -7.9298  -7.8404  -7.8232  -7.6898  -7.6020  -7.5562
    -7.5273  -7.5164  -7.4838  -7.4364  -7.4205  -7.3358  -7.3265  -7.1278
    -7.0437  -7.0372  -7.0131  -6.9145  -6.7985  -6.7769  -6.6908  -6.6666
    -6.5879  -6.5801  -6.3870  -6.3468  -6.3354  -6.2567  -6.2401  -6.2340
    -5.9747  -5.9045  -5.8722  -5.8473  -5.8063  -5.6263  -5.5719  -5.4622
    -5.3512  -5.1816  -5.1611  -5.1334  -5.1016  -4.9432  -4.8673  -4.7203
    -4.6103  -4.4806  -4.3958  -4.3715  -4.2934  -4.1725  -4.0915  -3.8162
    -3.3895  -3.3280  -2.9867  -2.5811  -1.1867  -1.0407  -0.9006  -0.8469
    -0.4973  -0.3840  -0.2460  -0.1447  -0.0556   0.1761   0.2006   0.2558
     0.3872   0.4428   0.6852   0.8717   0.8952   0.9222   1.1147   1.1725
     1.1768   1.3049   1.3091   1.3691   1.5179   1.5587   1.6209   1.6358
     1.6952   1.7907   1.8426   1.8463   1.8701   1.9556   2.0493   2.1204
     2.1231   2.1394   2.2730   2.3169   2.3474   2.4344   2.4680   2.4761
     2.5544   2.5890   2.6603   2.6869   2.7128   2.7180   2.7312   2.8622
     2.8652   2.9335   2.9426   2.9818   2.9822   3.0530   3.1589   3.1671
     3.1967   3.2105   3.2177   3.2461   3.3081   3.3260   3.3518   3.3711
     3.3716   3.3719   3.4284   3.4754   3.5142   3.5973   3.6087   3.6268
     3.7308   3.7364   3.7452   3.7682   3.7816   3.8165   3.8366   3.9168
     3.9559   3.9657   3.9850   3.9889   4.0675   4.0931   4.1174   4.1330
     4.1633   4.1899   4.2003   4.2281   4.2555   4.3548   4.4405   4.4544
     4.4900   4.5103   4.5142   4.5287   4.5525   4.6010   4.6167   4.6365
     4.6453   4.6906   4.7251   4.7699   4.7881   4.8191   4.8287   4.8551
     4.8702   4.9083   4.9169   4.9493   4.9547   4.9895   5.0019   5.0026
     5.0188   5.0980   5.1171   5.1202   5.2035   5.2042   5.2191   5.2203
     5.2782   5.3027   5.3245   5.3560   5.3965   5.3974   5.4313   5.4539
     5.4792   5.5030   5.5082   5.5242   5.5338   5.6265   5.6509   5.6668
     5.7486   5.7828   5.7864   5.7876   5.8157   5.8403   5.8425   5.8660
     5.8782   5.9469   5.9475   5.9658   6.0105   6.0213   6.0366   6.0903
     6.0929   6.0943   6.1406   6.1489   6.1725   6.1900   6.1941   6.2346
     6.2602   6.2906   6.3051   6.3057   6.3381   6.3428   6.3887   6.4023
     6.4540   6.4553   6.4625   6.4879   6.5126   6.5199   6.5319   6.5402
     6.5909   6.5956   6.6343   6.6616   6.6617   6.6924   6.7016   6.7186
     6.7211   6.7257   6.7731   6.7775   6.8012   6.8277   6.8749   6.8788
     6.9149   6.9327   6.9521   6.9780   6.9951   7.0039   7.0354   7.0449
     7.0581   7.0917   7.1170   7.1389   7.1394   7.1553   7.1871   7.1881
     7.2026   7.2586   7.2774   7.3217   7.3229   7.3524   7.3642   7.3807
     7.3956   7.4112   7.4536   7.4646   7.4658   7.4825   7.4870   7.5230
     7.5294   7.5765   7.5806   7.6015   7.6097   7.6429   7.6557   7.6668
     7.6741   7.6979   7.7075   7.7450   7.7611   7.7746   7.7943   7.7951
     7.8008   7.8405   7.8535   7.8726   7.8757   7.9075   7.9437   7.9466
     7.9486   7.9526   8.0024   8.0201   8.0421   8.0523   8.0656   8.0865
     8.1000   8.1108   8.1631   8.1674   8.1743   8.2178   8.2416   8.2599
     8.2851   8.2916   8.3044   8.3198   8.3365   8.3405   8.4065   8.4131
     8.4594   8.4649   8.4677   8.4751   8.4902   8.5025   8.5272   8.5375
     8.5597   8.5726   8.6100   8.6317   8.6385   8.6649   8.6760   8.6774
     8.7228   8.7436   8.7703   8.7705   8.7979   8.8112   8.8299   8.8525
     8.8641   8.8943   8.9046   8.9276   8.9324   8.9326   8.9688   8.9905
     9.0089   9.0130   9.0176   9.0307

          k = 0.0000 0.0000 0.0076 (133855 PWs)   bands (ev):

   -21.5816 -21.3329 -21.1638 -20.8476 -20.7371 -20.6374 -20.2773 -20.1732
   -20.1665 -19.9210 -19.7699 -19.6996 -19.5962 -19.3268 -19.1367 -18.9904
   -18.8932 -18.7170 -18.5908 -18.3192 -18.3154 -18.1214 -18.0615 -17.8544
   -17.6178 -17.5527 -17.4732 -17.3529 -17.1851 -17.0382 -16.9907 -16.8306
   -16.7255 -16.6716 -16.5114 -16.4645 -16.3130 -16.2421 -15.8224 -15.6590
   -15.6460 -15.3448 -14.9509 -14.8015 -14.7010 -14.6884 -14.5794 -14.3352
   -14.3118 -14.1919 -14.0800 -13.9934 -13.8465 -13.7590 -13.6428 -13.4989
   -13.4486 -13.0278 -12.9643 -12.7773 -12.6218 -12.5974 -12.5244 -12.4088
   -12.3612 -11.9911 -11.9737 -11.9002 -11.7686 -11.6716 -11.5078 -11.3012
   -11.2296 -11.0865 -11.0220 -10.9969 -10.8810 -10.8766 -10.6881 -10.5497
   -10.5020 -10.3700 -10.2630 -10.2209 -10.0627 -10.0011  -9.9693  -9.7587
    -9.7525  -9.6184  -9.5672  -9.4861  -9.3872  -9.2984  -9.2825  -9.2147
    -9.1767  -9.1607  -9.0902  -9.0658  -9.0427  -8.9058  -8.7977  -8.7977
    -8.7113  -8.7084  -8.6761  -8.6349  -8.6108  -8.5466  -8.4866  -8.4771
    -8.4242  -8.4121  -8.2605  -8.2594  -8.2175  -8.1373  -8.0891  -8.0253
    -7.9595  -7.9484  -7.9318  -7.8341  -7.8113  -7.7000  -7.6021  -7.5565
    -7.5165  -7.5128  -7.4749  -7.4238  -7.4215  -7.3378  -7.3288  -7.1381
    -7.0432  -7.0304  -7.0162  -6.9202  -6.7936  -6.7745  -6.6909  -6.6640
    -6.5833  -6.5767  -6.3982  -6.3485  -6.3391  -6.2600  -6.2380  -6.2246
    -5.9752  -5.9082  -5.8669  -5.8401  -5.8181  -5.6175  -5.5873  -5.4678
    -5.3520  -5.1810  -5.1630  -5.1348  -5.0957  -4.9383  -4.8681  -4.7233
    -4.6066  -4.4828  -4.3926  -4.3708  -4.2886  -4.1749  -4.0883  -3.8168
    -3.3864  -3.3238  -2.9902  -2.5976  -1.1784  -1.0413  -0.8963  -0.8432
    -0.4955  -0.3844  -0.2464  -0.1508  -0.0483   0.1731   0.1968   0.2561
     0.3850   0.4507   0.6784   0.8736   0.8952   0.9235   1.1203   1.1732
     1.1741   1.3006   1.3011   1.3436   1.5180   1.5562   1.6214   1.6265
     1.6915   1.7898   1.8561   1.8642   1.8856   1.9589   2.0486   2.1201
     2.1248   2.1485   2.2759   2.3195   2.3465   2.4308   2.4741   2.4788
     2.5560   2.5964   2.6541   2.6781   2.7065   2.7192   2.7294   2.8741
     2.8752   2.9205   2.9371   2.9645   2.9663   3.0603   3.1682   3.1758
     3.1909   3.2015   3.2256   3.2342   3.3103   3.3202   3.3285   3.3584
     3.3744   3.3814   3.4254   3.4920   3.5369   3.5785   3.6104   3.6129
     3.7084   3.7367   3.7498   3.7709   3.7768   3.8312   3.8588   3.9171
     3.9634   3.9662   3.9972   4.0126   4.0785   4.1073   4.1209   4.1537
     4.1668   4.1729   4.1930   4.2330   4.2517   4.3663   4.4202   4.4516
     4.4682   4.4939   4.5009   4.5098   4.5528   4.5833   4.6225   4.6272
     4.6422   4.6869   4.7319   4.7823   4.7863   4.7998   4.8315   4.8525
     4.8730   4.9145   4.9161   4.9295   4.9653   5.0024   5.0131   5.0185
     5.0372   5.1118   5.1170   5.1381   5.1690   5.2128   5.2218   5.2270
     5.2663   5.3278   5.3493   5.3581   5.3653   5.4020   5.4212   5.4619
     5.4801   5.5149   5.5173   5.5189   5.5218   5.6288   5.6633   5.6859
     5.7424   5.7661   5.7739   5.7830   5.8328   5.8419   5.8722   5.8781
     5.8846   5.9341   5.9461   5.9503   6.0075   6.0219   6.0227   6.0563
     6.0624   6.0844   6.1269   6.1397   6.1639   6.1936   6.1951   6.2321
     6.2500   6.2802   6.2995   6.3016   6.3344   6.3469   6.3830   6.4169
     6.4487   6.4771   6.4774   6.5011   6.5061   6.5218   6.5410   6.5425
     6.5801   6.6109   6.6452   6.6684   6.6719   6.7044   6.7049   6.7120
     6.7236   6.7446   6.7713   6.7973   6.7978   6.8362   6.8692   6.8724
     6.9109   6.9183   6.9527   6.9616   6.9919   6.9946   7.0390   7.0439
     7.0568   7.0817   7.1067   7.1148   7.1433   7.1457   7.1687   7.1941
     7.2065   7.2600   7.2974   7.3025   7.3197   7.3704   7.3765   7.3820
     7.3892   7.4112   7.4517   7.4539   7.4704   7.4781   7.5265   7.5269
     7.5282   7.5555   7.5829   7.5992   7.6030   7.6119   7.6470   7.6672
     7.6718   7.6935   7.7098   7.7315   7.7394   7.7613   7.7971   7.8097
     7.8186   7.8215   7.8508   7.8675   7.8963   7.9039   7.9447   7.9552
     7.9568   7.9579   8.0099   8.0288   8.0350   8.0462   8.0508   8.0740
     8.1180   8.1200   8.1676   8.1705   8.1809   8.2461   8.2535   8.2660
     8.2965   8.3153   8.3293   8.3297   8.3386   8.3429   8.3992   8.4255
     8.4352   8.4538   8.4755   8.4761   8.4869   8.5080   8.5147   8.5396
     8.5415   8.5629   8.6424   8.6436   8.6458   8.6671   8.6695   8.6894
     8.7336   8.7489   8.7619   8.7718   8.7964   8.7992   8.8320   8.8465
     8.8674   8.8825   8.8936   8.9182   8.9190   8.9453   8.9811   8.9922
     9.0070   9.0100   9.0129   9.0151

          k = 0.0000 0.0000 0.0088 (133829 PWs)   bands (ev):

   -21.5797 -21.3423 -21.1536 -20.8514 -20.7342 -20.6348 -20.2830 -20.1838
   -20.1603 -19.9277 -19.7612 -19.6911 -19.5984 -19.3292 -19.1324 -18.9943
   -18.8860 -18.7213 -18.5865 -18.3204 -18.3192 -18.1159 -18.0828 -17.8580
   -17.6162 -17.5460 -17.4643 -17.3511 -17.1877 -17.0291 -16.9980 -16.8246
   -16.7289 -16.6641 -16.5127 -16.4650 -16.3151 -16.2418 -15.8280 -15.6602
   -15.6415 -15.3720 -14.9465 -14.7883 -14.7030 -14.6927 -14.5682 -14.3448
   -14.3089 -14.1803 -14.0804 -13.9854 -13.8482 -13.7578 -13.6362 -13.5022
   -13.4574 -13.0273 -12.9769 -12.7881 -12.6336 -12.5882 -12.5318 -12.3912
   -12.3461 -11.9929 -11.9781 -11.8926 -11.7677 -11.6685 -11.5163 -11.3112
   -11.2305 -11.0865 -11.0203 -11.0080 -10.8907 -10.8757 -10.6754 -10.5505
   -10.4793 -10.3735 -10.2600 -10.2317 -10.0520 -10.0027  -9.9700  -9.7520
    -9.7505  -9.6377  -9.5651  -9.4861  -9.3789  -9.3073  -9.2772  -9.2060
    -9.1879  -9.1564  -9.0814  -9.0627  -9.0386  -8.9077  -8.8041  -8.8013
    -8.7153  -8.7091  -8.6794  -8.6354  -8.6070  -8.5437  -8.4899  -8.4726
    -8.4341  -8.4182  -8.2566  -8.2538  -8.2162  -8.1434  -8.1039  -8.0180
    -7.9675  -7.9580  -7.9350  -7.8268  -7.7991  -7.7104  -7.6040  -7.5568
    -7.5092  -7.5053  -7.4632  -7.4228  -7.4101  -7.3401  -7.3315  -7.1484
    -7.0425  -7.0241  -7.0198  -6.9266  -6.7880  -6.7718  -6.6909  -6.6608
    -6.5781  -6.5728  -6.4100  -6.3505  -6.3434  -6.2639  -6.2357  -6.2149
    -5.9758  -5.9117  -5.8607  -5.8325  -5.8304  -5.6090  -5.6046  -5.4743
    -5.3526  -5.1804  -5.1653  -5.1362  -5.0892  -4.9330  -4.8691  -4.7267
    -4.6025  -4.4851  -4.3892  -4.3699  -4.2834  -4.1777  -4.0843  -3.8177
    -3.3827  -3.3189  -2.9942  -2.6164  -1.1694  -1.0419  -0.8911  -0.8389
    -0.4934  -0.3848  -0.2467  -0.1570  -0.0403   0.1696   0.1924   0.2571
     0.3824   0.4595   0.6701   0.8757   0.8959   0.9250   1.1252   1.1690
     1.1758   1.2913   1.2970   1.3181   1.5184   1.5509   1.6168   1.6219
     1.6916   1.7883   1.8706   1.8817   1.9005   1.9633   2.0486   2.1196
     2.1265   2.1593   2.2792   2.3228   2.3452   2.4273   2.4810   2.4820
     2.5567   2.6045   2.6477   2.6710   2.6993   2.7205   2.7272   2.8835
     2.8885   2.9077   2.9315   2.9466   2.9511   3.0666   3.1611   3.1869
     3.1918   3.1920   3.2110   3.2456   3.2851   3.3133   3.3349   3.3560
     3.3773   3.3918   3.4225   3.5055   3.5585   3.5599   3.5953   3.6148
     3.6887   3.7220   3.7326   3.7745   3.8046   3.8490   3.8807   3.9209
     3.9652   3.9668   4.0098   4.0363   4.0863   4.1202   4.1250   4.1622
     4.1712   4.1808   4.1845   4.2376   4.2485   4.3770   4.4008   4.4456
     4.4512   4.4580   4.4857   4.4862   4.5660   4.5721   4.5959   4.6424
     4.6519   4.6701   4.7510   4.7682   4.7843   4.7995   4.8293   4.8590
     4.8729   4.9077   4.9155   4.9223   4.9825   5.0030   5.0201   5.0325
     5.0733   5.1097   5.1118   5.1411   5.1721   5.2192   5.2249   5.2357
     5.2548   5.3295   5.3403   5.3555   5.3961   5.4078   5.4133   5.4622
     5.4698   5.5132   5.5171   5.5320   5.5345   5.6304   5.6661   5.7178
     5.7340   5.7496   5.7556   5.7749   5.8437   5.8454   5.8731   5.9049
     5.9052   5.9083   5.9392   5.9537   5.9851   6.0175   6.0264   6.0275
     6.0318   6.0710   6.1209   6.1282   6.1559   6.1942   6.1951   6.2285
     6.2446   6.2719   6.2925   6.2954   6.3402   6.3540   6.3775   6.4309
     6.4398   6.4861   6.4944   6.4986   6.5112   6.5299   6.5445   6.5453
     6.5744   6.6268   6.6480   6.6765   6.6810   6.7015   6.7081   6.7209
     6.7320   6.7630   6.7736   6.7967   6.8046   6.8452   6.8612   6.8751
     6.9002   6.9013   6.9511   6.9514   6.9837   6.9894   7.0215   7.0453
     7.0527   7.0699   7.0906   7.1201   7.1462   7.1475   7.1515   7.2000
     7.2106   7.2627   7.2715   7.3120   7.3302   7.3777   7.3807   7.3835
     7.3841   7.4167   7.4399   7.4584   7.4717   7.4831   7.5275   7.5298
     7.5308   7.5673   7.5766   7.5858   7.5922   7.5964   7.6489   7.6510
     7.6709   7.6719   7.7130   7.7148   7.7501   7.7508   7.7978   7.8027
     7.8162   7.8471   7.8505   7.8586   7.8714   7.9271   7.9401   7.9599
     7.9685   7.9735   8.0185   8.0195   8.0277   8.0453   8.0608   8.0762
     8.1304   8.1376   8.1635   8.1775   8.1930   8.2626   8.2670   8.2674
     8.2934   8.3166   8.3411   8.3437   8.3671   8.3762   8.3803   8.4141
     8.4194   8.4505   8.4658   8.4867   8.5006   8.5061   8.5177   8.5201
     8.5493   8.5537   8.6107   8.6518   8.6723   8.6743   8.6899   8.7067
     8.7429   8.7505   8.7523   8.7636   8.7751   8.8166   8.8317   8.8372
     8.8536   8.8767   8.8916   8.9082   8.9315   8.9629   8.9816   8.9897
     8.9919   9.0069   9.0108   9.0163

          k = 0.0000 0.0000 0.0101 (133800 PWs)   bands (ev):

   -21.5776 -21.3518 -21.1430 -20.8556 -20.7308 -20.6320 -20.2889 -20.1952
   -20.1538 -19.9342 -19.7536 -19.6809 -19.6010 -19.3320 -19.1275 -18.9980
   -18.8786 -18.7259 -18.5820 -18.3232 -18.3219 -18.1099 -18.1054 -17.8621
   -17.6145 -17.5405 -17.4539 -17.3487 -17.1906 -17.0189 -17.0061 -16.8176
   -16.7324 -16.6562 -16.5140 -16.4655 -16.3176 -16.2416 -15.8340 -15.6619
   -15.6368 -15.3999 -14.9414 -14.7761 -14.7052 -14.6968 -14.5575 -14.3542
   -14.3036 -14.1688 -14.0801 -13.9774 -13.8501 -13.7565 -13.6287 -13.5058
   -13.4675 -13.0269 -12.9910 -12.7993 -12.6440 -12.5822 -12.5347 -12.3744
   -12.3313 -11.9947 -11.9828 -11.8848 -11.7669 -11.6652 -11.5246 -11.3221
   -11.2312 -11.0938 -11.0194 -11.0119 -10.9034 -10.8694 -10.6626 -10.5517
   -10.4604 -10.3756 -10.2550 -10.2428 -10.0406 -10.0103  -9.9662  -9.7510
    -9.7409  -9.6567  -9.5626  -9.4860  -9.3728  -9.3165  -9.2710  -9.1996
    -9.1959  -9.1516  -9.0721  -9.0603  -9.0340  -8.9100  -8.8107  -8.8054
    -8.7196  -8.7099  -8.6855  -8.6334  -8.6027  -8.5404  -8.4944  -8.4678
    -8.4533  -8.4169  -8.2522  -8.2480  -8.2146  -8.1495  -8.1175  -8.0104
    -7.9752  -7.9688  -7.9392  -7.8187  -7.7868  -7.7208  -7.6070  -7.5571
    -7.5055  -7.4953  -7.4485  -7.4244  -7.3957  -7.3427  -7.3346  -7.1588
    -7.0418  -7.0240  -7.0184  -6.9337  -6.7817  -6.7686  -6.6906  -6.6569
    -6.5723  -6.5685  -6.4221  -6.3528  -6.3479  -6.2684  -6.2331  -6.2051
    -5.9766  -5.9148  -5.8537  -5.8430  -5.8245  -5.6237  -5.6011  -5.4814
    -5.3530  -5.1796  -5.1679  -5.1375  -5.0822  -4.9273  -4.8704  -4.7307
    -4.5980  -4.4876  -4.3855  -4.3689  -4.2779  -4.1808  -4.0793  -3.8187
    -3.3783  -3.3134  -2.9988  -2.6375  -1.1598  -1.0425  -0.8851  -0.8341
    -0.4910  -0.3854  -0.2471  -0.1632  -0.0320   0.1657   0.1875   0.2588
     0.3795   0.4691   0.6604   0.8782   0.8973   0.9266   1.1278   1.1643
     1.1776   1.2815   1.2927   1.2943   1.5191   1.5432   1.6067   1.6224
     1.6949   1.7863   1.8859   1.8983   1.9142   1.9688   2.0494   2.1191
     2.1282   2.1714   2.2830   2.3266   2.3434   2.4241   2.4856   2.4889
     2.5558   2.6130   2.6413   2.6662   2.6912   2.7217   2.7243   2.8921
     2.8953   2.9016   2.9263   2.9296   2.9366   3.0717   3.1491   3.1675
     3.1944   3.1966   3.2076   3.2501   3.2594   3.3173   3.3449   3.3604
     3.3790   3.4026   3.4203   3.5124   3.5394   3.5820   3.5823   3.6137
     3.6748   3.7064   3.7170   3.7742   3.8371   3.8610   3.9018   3.9312
     3.9614   3.9675   4.0243   4.0596   4.0859   4.1295   4.1364   4.1632
     4.1749   4.1769   4.2043   4.2458   4.2458   4.3825   4.3841   4.4222
     4.4224   4.4549   4.4588   4.4686   4.5668   4.5686   4.5747   4.6501
     4.6598   4.6674   4.7341   4.7706   4.7825   4.8188   4.8188   4.8670
     4.8699   4.8967   4.9154   4.9309   4.9981   4.9995   5.0244   5.0509
     5.0862   5.1056   5.1114   5.1335   5.2042   5.2238   5.2286   5.2390
     5.2522   5.3015   5.3321   5.3806   5.4090   5.4142   5.4294   5.4503
     5.4552   5.5156   5.5226   5.5470   5.5539   5.6309   5.6704   5.7228
     5.7338   5.7365   5.7498   5.7664   5.8325   5.8453   5.8605   5.8985
     5.9266   5.9317   5.9362   5.9561   5.9702   6.0005   6.0023   6.0102
     6.0302   6.0558   6.1177   6.1252   6.1473   6.1890   6.1963   6.2182
     6.2433   6.2552   6.2832   6.3076   6.3492   6.3637   6.3727   6.4317
     6.4431   6.4833   6.4853   6.5178   6.5187   6.5377   6.5453   6.5486
     6.5809   6.6365   6.6451   6.6848   6.6868   6.6895   6.7116   6.7410
     6.7443   6.7712   6.7889   6.7908   6.7985   6.8527   6.8533   6.8792
     6.8809   6.8882   6.9468   6.9622   6.9706   6.9850   6.9881   7.0504
     7.0536   7.0663   7.0682   7.1229   7.1379   7.1513   7.1657   7.2064
     7.2113   7.2457   7.2671   7.3010   7.3504   7.3642   7.3741   7.3909
     7.3941   7.4146   7.4495   7.4614   7.4633   7.4995   7.5064   7.5069
     7.5376   7.5712   7.5773   7.5798   7.5890   7.6098   7.6234   7.6482
     7.6630   7.6783   7.6902   7.7089   7.7464   7.7715   7.7724   7.8146
     7.8157   7.8406   7.8492   7.8587   7.8760   7.9080   7.9528   7.9660
     7.9790   7.9897   8.0007   8.0317   8.0331   8.0487   8.0825   8.0923
     8.1357   8.1567   8.1573   8.1838   8.2093   8.2665   8.2722   8.2789
     8.2908   8.2981   8.3548   8.3578   8.3692   8.3937   8.3994   8.4063
     8.4139   8.4443   8.4604   8.4914   8.4987   8.5019   8.5261   8.5380
     8.5447   8.5591   8.5777   8.6562   8.6696   8.6793   8.7127   8.7236
     8.7246   8.7512   8.7515   8.7591   8.7750   8.8199   8.8212   8.8395
     8.8601   8.8766   8.9008   8.9150   8.9350   8.9498   8.9774   8.9810
     8.9872   9.0127   9.0139   9.0384

          k = 0.0000 0.0000 0.0114 (133808 PWs)   bands (ev):

   -21.5751 -21.3615 -21.1323 -20.8602 -20.7269 -20.6291 -20.2949 -20.2073
   -20.1472 -19.9405 -19.7470 -19.6692 -19.6039 -19.3352 -19.1220 -19.0014
   -18.8711 -18.7304 -18.5774 -18.3273 -18.3236 -18.1289 -18.1035 -17.8669
   -17.6125 -17.5364 -17.4423 -17.3457 -17.1939 -17.0149 -17.0078 -16.8094
   -16.7361 -16.6480 -16.5155 -16.4660 -16.3202 -16.2415 -15.8402 -15.6646
   -15.6321 -15.4276 -14.9358 -14.7653 -14.7075 -14.7006 -14.5479 -14.3634
   -14.2953 -14.1575 -14.0792 -13.9697 -13.8523 -13.7548 -13.6204 -13.5094
   -13.4790 -13.0268 -13.0061 -12.8108 -12.6530 -12.5817 -12.5309 -12.3585
   -12.3168 -11.9964 -11.9881 -11.8769 -11.7663 -11.6619 -11.5322 -11.3336
   -11.2317 -11.1069 -11.0194 -11.0108 -10.9134 -10.8622 -10.6501 -10.5534
   -10.4470 -10.3754 -10.2541 -10.2471 -10.0286 -10.0215  -9.9605  -9.7493
    -9.7297  -9.6752  -9.5599  -9.4856  -9.3687  -9.3261  -9.2640  -9.2117
    -9.1846  -9.1464  -9.0626  -9.0584  -9.0291  -8.9129  -8.8174  -8.8098
    -8.7244  -8.7109  -8.6932  -8.6297  -8.5980  -8.5370  -8.5025  -8.4728
    -8.4628  -8.4147  -8.2474  -8.2423  -8.2122  -8.1556  -8.1295  -8.0026
    -7.9827  -7.9805  -7.9441  -7.8100  -7.7747  -7.7310  -7.6106  -7.5572
    -7.5016  -7.4866  -7.4312  -7.4262  -7.3808  -7.3455  -7.3380  -7.1693
    -7.0409  -7.0288  -7.0134  -6.9413  -6.7748  -6.7651  -6.6902  -6.6523
    -6.5662  -6.5639  -6.4347  -6.3554  -6.3528  -6.2735  -6.2302  -6.1951
    -5.9775  -5.9177  -5.8558  -5.8459  -5.8163  -5.6442  -5.5939  -5.4892
    -5.3530  -5.1788  -5.1709  -5.1388  -5.0747  -4.9216  -4.8718  -4.7350
    -4.5934  -4.4901  -4.3817  -4.3677  -4.2723  -4.1842  -4.0733  -3.8200
    -3.3732  -3.3072  -3.0040  -2.6606  -1.1500  -1.0432  -0.8782  -0.8289
    -0.4883  -0.3861  -0.2475  -0.1695  -0.0231   0.1615   0.1821   0.2612
     0.3761   0.4795   0.6494   0.8810   0.8994   0.9284   1.1263   1.1590
     1.1796   1.2714   1.2746   1.2882   1.5191   1.5345   1.5963   1.6230
     1.7006   1.7837   1.9019   1.9138   1.9267   1.9756   2.0514   2.1185
     2.1296   2.1846   2.2870   2.3312   2.3413   2.4214   2.4895   2.4975
     2.5529   2.6218   2.6352   2.6645   2.6825   2.7210   2.7229   2.8832
     2.8929   2.9121   2.9207   2.9230   2.9238   3.0754   3.1363   3.1452
     3.1781   3.2018   3.2159   3.2222   3.2737   3.3227   3.3580   3.3696
     3.3789   3.4129   3.4192   3.5057   3.5264   3.5711   3.6028   3.6085
     3.6699   3.6935   3.7045   3.7752   3.8526   3.8807   3.9208   3.9457
     3.9537   3.9689   4.0408   4.0791   4.0818   4.1344   4.1551   4.1647
     4.1757   4.1842   4.2158   4.2437   4.2644   4.3649   4.3856   4.3871
     4.3984   4.4320   4.4474   4.4681   4.5420   4.5653   4.5781   4.6290
     4.6740   4.6910   4.7005   4.7788   4.7813   4.8096   4.8384   4.8642
     4.8752   4.8975   4.9164   4.9394   4.9928   5.0093   5.0329   5.0535
     5.0678   5.1159   5.1273   5.1337   5.2268   5.2290   5.2318   5.2326
     5.2664   5.2849   5.3240   5.3972   5.4105   5.4217   5.4392   5.4398
     5.4600   5.5114   5.5405   5.5632   5.5749   5.6296   5.6762   5.7074
     5.7184   5.7189   5.7592   5.7799   5.7949   5.8383   5.8484   5.9033
     5.9387   5.9422   5.9498   5.9498   5.9708   5.9750   5.9779   6.0012
     6.0404   6.0420   6.1100   6.1375   6.1376   6.1757   6.1996   6.2049
     6.2367   6.2448   6.2721   6.3295   6.3591   6.3689   6.3753   6.4262
     6.4523   6.4724   6.4792   6.5238   6.5337   6.5450   6.5462   6.5529
     6.5912   6.6415   6.6417   6.6759   6.6885   6.6913   6.7146   6.7577
     6.7596   6.7690   6.7776   6.8023   6.8087   6.8475   6.8559   6.8566
     6.8567   6.8975   6.9396   6.9561   6.9609   6.9749   6.9922   7.0361
     7.0419   7.0630   7.0893   7.1190   7.1302   7.1543   7.1867   7.2085
     7.2143   7.2203   7.2695   7.2950   7.3504   7.3512   7.3584   7.3891
     7.4147   7.4172   7.4326   7.4607   7.4739   7.4891   7.4967   7.5178
     7.5450   7.5622   7.5625   7.5814   7.5920   7.5963   7.6449   7.6456
     7.6631   7.6659   7.6885   7.6968   7.7475   7.7491   7.7924   7.8072
     7.8082   7.8344   7.8401   7.8749   7.8877   7.9034   7.9365   7.9743
     7.9828   7.9889   7.9993   8.0479   8.0600   8.0636   8.1050   8.1083
     8.1347   8.1510   8.1725   8.1918   8.2289   8.2661   8.2720   8.2784
     8.2892   8.2914   8.3362   8.3652   8.3910   8.3917   8.3961   8.4140
     8.4381   8.4383   8.4596   8.4760   8.5119   8.5141   8.5356   8.5448
     8.5462   8.5583   8.5672   8.6532   8.6592   8.6860   8.7003   8.7069
     8.7137   8.7503   8.7677   8.7699   8.7839   8.8117   8.8412   8.8485
     8.8640   8.8924   8.8954   8.9169   8.9355   8.9499   8.9648   8.9812
     8.9841   9.0196   9.0242   9.0546

          k = 0.0000 0.0000 0.0126 (133830 PWs)   bands (ev):

   -21.5724 -21.3711 -21.1215 -20.8652 -20.7226 -20.6262 -20.3009 -20.2199
   -20.1405 -19.9467 -19.7412 -19.6563 -19.6070 -19.3389 -19.1161 -19.0045
   -18.8635 -18.7350 -18.5728 -18.3313 -18.3256 -18.1529 -18.0968 -17.8720
   -17.6104 -17.5334 -17.4299 -17.3420 -17.1976 -17.0242 -16.9960 -16.8001
   -16.7401 -16.6394 -16.5171 -16.4667 -16.3229 -16.2416 -15.8464 -15.6684
   -15.6273 -15.4545 -14.9295 -14.7561 -14.7101 -14.7042 -14.5398 -14.3724
   -14.2838 -14.1465 -14.0777 -13.9623 -13.8547 -13.7529 -13.6115 -13.5129
   -13.4919 -13.0294 -13.0194 -12.8225 -12.6607 -12.5859 -12.5212 -12.3437
   -12.3027 -11.9977 -11.9941 -11.8690 -11.7660 -11.6587 -11.5387 -11.3456
   -11.2319 -11.1228 -11.0204 -11.0091 -10.9191 -10.8541 -10.6381 -10.5555
   -10.4394 -10.3728 -10.2655 -10.2359 -10.0346 -10.0165  -9.9545  -9.7471
    -9.7170  -9.6929  -9.5568  -9.4850  -9.3664  -9.3359  -9.2560  -9.2242
    -9.1724  -9.1410  -9.0572  -9.0528  -9.0241  -8.9165  -8.8241  -8.8147
    -8.7303  -8.7122  -8.7014  -8.6251  -8.5927  -8.5333  -8.5195  -8.4862
    -8.4577  -8.4123  -8.2423  -8.2371  -8.2090  -8.1614  -8.1400  -7.9946
    -7.9932  -7.9899  -7.9494  -7.8009  -7.7627  -7.7409  -7.6147  -7.5571
    -7.4977  -7.4791  -7.4284  -7.4124  -7.3657  -7.3485  -7.3417  -7.1796
    -7.0400  -7.0340  -7.0091  -6.9494  -6.7673  -6.7612  -6.6895  -6.6469
    -6.5597  -6.5590  -6.4475  -6.3582  -6.3580  -6.2793  -6.2270  -6.1852
    -5.9787  -5.9202  -5.8687  -5.8374  -5.8079  -5.6657  -5.5879  -5.4976
    -5.3525  -5.1779  -5.1742  -5.1401  -5.0669  -4.9157  -4.8734  -4.7397
    -4.5886  -4.4926  -4.3779  -4.3664  -4.2668  -4.1877  -4.0663  -3.8215
    -3.3672  -3.3005  -3.0097  -2.6854  -1.1402  -1.0439  -0.8706  -0.8234
    -0.4854  -0.3869  -0.2479  -0.1757  -0.0139   0.1573   0.1764   0.2644
     0.3724   0.4905   0.6370   0.8840   0.9021   0.9304   1.1186   1.1533
     1.1814   1.2611   1.2615   1.2839   1.5147   1.5292   1.5857   1.6235
     1.7079   1.7805   1.9183   1.9279   1.9377   1.9835   2.0551   2.1179
     2.1307   2.1984   2.2912   2.3355   2.3396   2.4193   2.4938   2.5068
     2.5479   2.6294   2.6308   2.6658   2.6733   2.7170   2.7238   2.8716
     2.8788   2.9104   2.9121   2.9269   2.9318   3.0763   3.1214   3.1255
     3.1623   3.1828   3.2064   3.2358   3.2879   3.3297   3.3735   3.3765
     3.3820   3.4188   3.4203   3.4906   3.5164   3.5634   3.5978   3.6179
     3.6748   3.6854   3.6982   3.7773   3.8487   3.9131   3.9348   3.9434
     3.9596   3.9731   4.0501   4.0807   4.1020   4.1397   4.1545   4.1739
     4.1938   4.1946   4.2177   4.2426   4.2904   4.3459   4.3555   4.3738
     4.3821   4.4065   4.4317   4.4840   4.5167   4.5664   4.5773   4.6075
     4.6634   4.6918   4.7178   4.7593   4.7810   4.8211   4.8557   4.8567
     4.8831   4.9061   4.9195   4.9464   4.9848   5.0164   5.0219   5.0447
     5.0835   5.1218   5.1298   5.1347   5.2186   5.2270   5.2361   5.2525
     5.2842   5.2891   5.3173   5.3895   5.4199   5.4242   5.4310   5.4492
     5.4871   5.5054   5.5622   5.5786   5.5956   5.6259   5.6832   5.6875
     5.7030   5.7053   5.7486   5.7571   5.8051   5.8138   5.8484   5.9033
     5.9354   5.9390   5.9475   5.9523   5.9587   5.9747   5.9783   5.9939
     6.0255   6.0673   6.1055   6.1271   6.1545   6.1551   6.1921   6.2018
     6.2214   6.2479   6.2611   6.3532   6.3663   6.3687   6.3887   6.4248
     6.4561   6.4618   6.4752   6.5270   6.5446   6.5461   6.5516   6.5595
     6.5944   6.6436   6.6460   6.6605   6.6861   6.6950   6.7169   6.7461
     6.7650   6.7773   6.7822   6.8052   6.8287   6.8319   6.8334   6.8485
     6.8496   6.9021   6.9296   6.9452   6.9472   6.9701   7.0173   7.0186
     7.0278   7.0736   7.1148   7.1168   7.1295   7.1571   7.1858   7.1959
     7.2163   7.2241   7.2636   7.3030   7.3372   7.3387   7.3395   7.3725
     7.3994   7.4185   7.4325   7.4520   7.4776   7.5024   7.5047   7.5358
     7.5418   7.5525   7.5584   7.5862   7.5941   7.5955   7.6320   7.6393
     7.6428   7.6860   7.6998   7.7006   7.7251   7.7543   7.7767   7.7963
     7.8134   7.8326   7.8546   7.8694   7.8953   7.9149   7.9268   7.9681
     7.9724   7.9979   8.0063   8.0715   8.0748   8.0990   8.1069   8.1238
     8.1418   8.1496   8.1811   8.2018   8.2472   8.2500   8.2654   8.2821
     8.2902   8.2975   8.3202   8.3687   8.3864   8.3932   8.4083   8.4114
     8.4235   8.4557   8.4655   8.4989   8.5172   8.5183   8.5267   8.5321
     8.5608   8.5681   8.5730   8.6407   8.6614   8.6839   8.6856   8.6998
     8.7005   8.7442   8.7636   8.7910   8.8001   8.8235   8.8432   8.8628
     8.8767   8.8848   8.8918   8.9369   8.9386   8.9460   8.9716   8.9748
     8.9820   9.0190   9.0315   9.0359

          k = 0.0000 0.0000 0.0139 (133828 PWs)   bands (ev):

   -21.5694 -21.3808 -21.1106 -20.8706 -20.7179 -20.6233 -20.3069 -20.2328
   -20.1337 -19.9527 -19.7360 -19.6425 -19.6104 -19.3430 -19.1098 -19.0072
   -18.8559 -18.7395 -18.5681 -18.3351 -18.3278 -18.1771 -18.0898 -17.8776
   -17.6080 -17.5315 -17.4173 -17.3376 -17.2016 -17.0340 -16.9837 -16.7896
   -16.7443 -16.6305 -16.5189 -16.4675 -16.3258 -16.2420 -15.8526 -15.6739
   -15.6226 -15.4798 -14.9227 -14.7486 -14.7127 -14.7074 -14.5335 -14.3811
   -14.2687 -14.1358 -14.0757 -13.9554 -13.8573 -13.7507 -13.6026 -13.5159
   -13.5062 -13.0433 -13.0223 -12.8342 -12.6671 -12.5922 -12.5082 -12.3299
   -12.2891 -12.0011 -11.9986 -11.8611 -11.7662 -11.6557 -11.5439 -11.3579
   -11.2318 -11.1390 -11.0225 -11.0105 -10.9190 -10.8453 -10.6270 -10.5582
   -10.4365 -10.3691 -10.2768 -10.2214 -10.0491 -10.0044  -9.9490  -9.7446
    -9.7092  -9.7027  -9.5534  -9.4839  -9.3657  -9.3458  -9.2474  -9.2368
    -9.1596  -9.1351  -9.0566  -9.0430  -9.0190  -8.9208  -8.8307  -8.8198
    -8.7378  -8.7138  -8.7087  -8.6200  -8.5870  -8.5453  -8.5296  -8.4933
    -8.4526  -8.4098  -8.2369  -8.2328  -8.2045  -8.1671  -8.1489  -8.0066
    -7.9968  -7.9866  -7.9550  -7.7913  -7.7513  -7.7506  -7.6190  -7.5569
    -7.4936  -7.4723  -7.4309  -7.3930  -7.3516  -7.3505  -7.3458  -7.1896
    -7.0397  -7.0389  -7.0055  -6.9580  -6.7595  -6.7569  -6.6885  -6.6407
    -6.5539  -6.5529  -6.4605  -6.3634  -6.3613  -6.2856  -6.2234  -6.1752
    -5.9801  -5.9225  -5.8816  -5.8281  -5.7991  -5.6881  -5.5831  -5.5065
    -5.3513  -5.1779  -5.1770  -5.1413  -5.0587  -4.9098  -4.8753  -4.7448
    -4.5838  -4.4951  -4.3740  -4.3650  -4.2616  -4.1915  -4.0581  -3.8233
    -3.3603  -3.2931  -3.0159  -2.7116  -1.1307  -1.0445  -0.8623  -0.8176
    -0.4822  -0.3879  -0.2484  -0.1819  -0.0042   0.1533   0.1705   0.2681
     0.3683   0.5021   0.6234   0.8873   0.9053   0.9324   1.1039   1.1471
     1.1831   1.2507   1.2560   1.2799   1.5042   1.5295   1.5750   1.6240
     1.7161   1.7770   1.9349   1.9404   1.9474   1.9926   2.0607   2.1172
     2.1314   2.2123   2.2955   2.3340   2.3440   2.4180   2.4984   2.5167
     2.5412   2.6243   2.6399   2.6638   2.6697   2.7126   2.7244   2.8597
     2.8605   2.8991   2.9080   2.9385   2.9434   3.0724   3.0974   3.1195
     3.1469   3.1511   3.2100   3.2482   3.3017   3.3385   3.3725   3.3912
     3.3966   3.4178   3.4194   3.4814   3.5029   3.5598   3.5819   3.6229
     3.6821   3.6877   3.7030   3.7804   3.8395   3.9316   3.9404   3.9431
     3.9732   3.9823   4.0436   4.1014   4.1185   4.1456   4.1459   4.1894
     4.2065   4.2158   4.2160   4.2440   4.3167   4.3172   4.3362   4.3490
     4.3768   4.3830   4.4202   4.4933   4.5038   4.5694   4.5722   4.5859
     4.6329   4.7053   4.7313   4.7449   4.7815   4.8368   4.8448   4.8706
     4.8896   4.9202   4.9261   4.9498   4.9780   4.9953   5.0223   5.0567
     5.0983   5.1134   5.1281   5.1351   5.2095   5.2234   5.2397   5.2657
     5.3028   5.3120   5.3133   5.3709   5.4095   5.4375   5.4422   5.4695
     5.4986   5.5100   5.5854   5.5909   5.6117   5.6191   5.6637   5.6909
     5.6929   5.6948   5.7061   5.7545   5.7884   5.8199   5.8477   5.8968
     5.9210   5.9243   5.9401   5.9413   5.9601   5.9865   5.9928   6.0006
     6.0113   6.0986   6.1021   6.1165   6.1295   6.1764   6.1803   6.1998
     6.2092   6.2524   6.2544   6.3649   6.3730   6.3783   6.4034   6.4269
     6.4540   6.4549   6.4756   6.5283   6.5448   6.5499   6.5572   6.5684
     6.5860   6.6430   6.6433   6.6590   6.6797   6.6955   6.7175   6.7279
     6.7647   6.7826   6.7941   6.7978   6.8140   6.8156   6.8273   6.8445
     6.8565   6.9033   6.9178   6.9476   6.9488   6.9651   6.9926   7.0242
     7.0405   7.0866   7.1115   7.1351   7.1475   7.1633   7.1687   7.1728
     7.2256   7.2356   7.2572   7.3176   7.3186   7.3231   7.3247   7.3326
     7.3841   7.4166   7.4237   7.4405   7.4895   7.5118   7.5163   7.5333
     7.5550   7.5610   7.5636   7.5888   7.5938   7.5965   7.6130   7.6340
     7.6397   7.6801   7.7063   7.7141   7.7264   7.7473   7.7606   7.7983
     7.8170   7.8383   7.8465   7.8808   7.8899   7.9180   7.9432   7.9556
     7.9684   8.0057   8.0163   8.0865   8.0950   8.0975   8.1140   8.1381
     8.1555   8.1695   8.1785   8.2105   8.2214   8.2661   8.2702   8.2815
     8.2976   8.3037   8.3152   8.3672   8.3695   8.3802   8.4128   8.4155
     8.4309   8.4727   8.4774   8.4976   8.5047   8.5181   8.5298   8.5460
     8.5659   8.5734   8.5755   8.6402   8.6627   8.6765   8.6865   8.6957
     8.7084   8.7327   8.7590   8.7988   8.8003   8.8429   8.8530   8.8552
     8.8849   8.8898   8.8947   8.9326   8.9446   8.9655   8.9689   8.9761
     8.9856   8.9959   9.0442   9.0481

          k = 0.0000 0.0000 0.0151 (133842 PWs)   bands (ev):

   -21.5662 -21.3903 -21.0997 -20.8762 -20.7128 -20.6204 -20.3127 -20.2458
   -20.1268 -19.9587 -19.7311 -19.6282 -19.6139 -19.3477 -19.1031 -19.0095
   -18.8484 -18.7438 -18.5635 -18.3388 -18.3304 -18.2012 -18.0825 -17.8836
   -17.6055 -17.5305 -17.4047 -17.3322 -17.2060 -17.0442 -16.9711 -16.7779
   -16.7488 -16.6215 -16.5208 -16.4685 -16.3286 -16.2428 -15.8586 -15.6815
   -15.6181 -15.5027 -14.9153 -14.7429 -14.7154 -14.7103 -14.5290 -14.3896
   -14.2502 -14.1255 -14.0732 -13.9489 -13.8601 -13.7481 -13.5943 -13.5218
   -13.5175 -13.0612 -13.0218 -12.8461 -12.6724 -12.5993 -12.4933 -12.3172
   -12.2763 -12.0093 -11.9988 -11.8534 -11.7668 -11.6530 -11.5476 -11.3702
   -11.2314 -11.1543 -11.0257 -11.0163 -10.9128 -10.8358 -10.6172 -10.5615
   -10.4360 -10.3656 -10.2880 -10.2041 -10.0645  -9.9926  -9.9442  -9.7447
    -9.7213  -9.6870  -9.5497  -9.4821  -9.3661  -9.3557  -9.2497  -9.2380
    -9.1468  -9.1286  -9.0565  -9.0332  -9.0140  -8.9259  -8.8370  -8.8253
    -8.7473  -8.7160  -8.7144  -8.6146  -8.5810  -8.5749  -8.5258  -8.4981
    -8.4475  -8.4073  -8.2313  -8.2294  -8.1989  -8.1724  -8.1564  -8.0205
    -8.0034  -7.9785  -7.9609  -7.7814  -7.7600  -7.7404  -7.6234  -7.5566
    -7.4893  -7.4659  -7.4335  -7.3738  -7.3548  -7.3501  -7.3354  -7.1992
    -7.0459  -7.0376  -7.0026  -6.9670  -6.7521  -6.7514  -6.6874  -6.6337
    -6.5486  -6.5459  -6.4737  -6.3689  -6.3646  -6.2925  -6.2193  -6.1653
    -5.9819  -5.9244  -5.8943  -5.8182  -5.7901  -5.7109  -5.5798  -5.5159
    -5.3494  -5.1820  -5.1760  -5.1425  -5.0502  -4.9039  -4.8775  -4.7502
    -4.5791  -4.4976  -4.3702  -4.3634  -4.2568  -4.1953  -4.0489  -3.8253
    -3.3525  -3.2853  -3.0227  -2.7391  -1.1216  -1.0452  -0.8535  -0.8117
    -0.4789  -0.3890  -0.2488  -0.1879   0.0057   0.1497   0.1642   0.2725
     0.3638   0.5143   0.6087   0.8909   0.9088   0.9345   1.0837   1.1405
     1.1845   1.2405   1.2571   1.2764   1.4916   1.5317   1.5642   1.6244
     1.7244   1.7732   1.9513   1.9514   1.9559   2.0025   2.0683   2.1167
     2.1318   2.2258   2.2996   2.3301   2.3512   2.4174   2.5031   2.5270
     2.5336   2.6201   2.6489   2.6542   2.6754   2.7079   2.7245   2.8395
     2.8499   2.8891   2.9035   2.9515   2.9541   3.0631   3.0749   3.1193
     3.1212   3.1321   3.2125   3.2591   3.3140   3.3491   3.3675   3.4069
     3.4107   3.4128   3.4151   3.4833   3.4880   3.5610   3.5624   3.6179
     3.6826   3.7055   3.7186   3.7844   3.8277   3.9191   3.9383   3.9582
     3.9935   3.9963   4.0357   4.1261   4.1293   4.1394   4.1542   4.1966
     4.2144   4.2225   4.2322   4.2546   4.2860   4.3211   4.3245   4.3415
     4.3627   4.3746   4.4137   4.4719   4.5256   4.5597   4.5645   4.5745
     4.6084   4.7015   4.7187   4.7714   4.7829   4.8317   4.8510   4.8735
     4.8943   4.9369   4.9380   4.9474   4.9748   4.9803   5.0286   5.0672
     5.0868   5.1119   5.1344   5.1346   5.2026   5.2155   5.2443   5.2731
     5.3041   5.3197   5.3483   5.3566   5.3958   5.4566   5.4593   5.4895
     5.4935   5.5281   5.5936   5.6068   5.6107   5.6155   5.6394   5.6683
     5.6819   5.6989   5.7001   5.7565   5.7655   5.8194   5.8452   5.8846
     5.9057   5.9061   5.9308   5.9432   5.9681   5.9935   5.9977   5.9992
     6.0279   6.0904   6.1049   6.1132   6.1302   6.1698   6.1943   6.1985
     6.2017   6.2537   6.2578   6.3645   6.3812   6.3932   6.4191   6.4229
     6.4499   6.4622   6.4764   6.5278   6.5427   6.5514   6.5613   6.5717
     6.5770   6.6243   6.6388   6.6674   6.6691   6.6927   6.7149   6.7232
     6.7585   6.7761   6.7854   6.7948   6.8002   6.8111   6.8152   6.8398
     6.8749   6.9011   6.9055   6.9578   6.9624   6.9659   6.9683   7.0248
     7.0557   7.1031   7.1091   7.1447   7.1464   7.1518   7.1591   7.1924
     7.2245   7.2448   7.2555   7.2875   7.2945   7.3103   7.3129   7.3391
     7.3737   7.3899   7.4295   7.4298   7.4901   7.5086   7.5176   7.5404
     7.5560   7.5636   7.5711   7.5897   7.5925   7.6014   7.6306   7.6344
     7.6467   7.6789   7.6926   7.7201   7.7284   7.7340   7.7670   7.8049
     7.8250   7.8297   7.8526   7.8671   7.8985   7.9309   7.9509   7.9511
     7.9680   8.0119   8.0317   8.0729   8.1036   8.1092   8.1237   8.1458
     8.1648   8.1672   8.1893   8.2141   8.2143   8.2734   8.2753   8.2860
     8.3100   8.3120   8.3238   8.3428   8.3641   8.3660   8.4195   8.4196
     8.4441   8.4771   8.4823   8.4893   8.5002   8.5102   8.5391   8.5564
     8.5708   8.5813   8.5840   8.6418   8.6596   8.6731   8.7025   8.7031
     8.7211   8.7218   8.7543   8.7845   8.8022   8.8457   8.8573   8.8696
     8.8767   8.8888   8.9105   8.9260   8.9523   8.9641   8.9696   8.9710
     8.9882   9.0231   9.0559   9.0593

          k = 0.0000 0.0000 0.0164 (133836 PWs)   bands (ev):

   -21.5626 -21.3998 -21.0889 -20.8821 -20.7074 -20.6178 -20.3185 -20.2586
   -20.1198 -19.9645 -19.7265 -19.6177 -19.6136 -19.3528 -19.0962 -19.0116
   -18.8411 -18.7479 -18.5589 -18.3421 -18.3335 -18.2250 -18.0751 -17.8899
   -17.6027 -17.5303 -17.3926 -17.3258 -17.2107 -17.0548 -16.9584 -16.7650
   -16.7536 -16.6124 -16.5228 -16.4695 -16.3314 -16.2441 -15.8644 -15.6917
   -15.6137 -15.5224 -14.9075 -14.7390 -14.7182 -14.7130 -14.5258 -14.3979
   -14.2288 -14.1157 -14.0703 -13.9429 -13.8631 -13.7452 -13.5877 -13.5387
   -13.5167 -13.0802 -13.0206 -12.8578 -12.6767 -12.6065 -12.4772 -12.3056
   -12.2643 -12.0189 -11.9983 -11.8461 -11.7679 -11.6509 -11.5495 -11.3825
   -11.2307 -11.1680 -11.0300 -11.0255 -10.9021 -10.8259 -10.6091 -10.5655
   -10.4361 -10.3631 -10.2990 -10.1847 -10.0807  -9.9813  -9.9401  -9.7536
    -9.7229  -9.6701  -9.5456  -9.4794  -9.3675  -9.3656  -9.2627  -9.2281
    -9.1354  -9.1203  -9.0569  -9.0233  -9.0092  -8.9318  -8.8430  -8.8310
    -8.7587  -8.7191  -8.7184  -8.6091  -8.6059  -8.5746  -8.5220  -8.5023
    -8.4424  -8.4048  -8.2270  -8.2257  -8.1924  -8.1774  -8.1624  -8.0348
    -8.0097  -7.9703  -7.9670  -7.7711  -7.7692  -7.7303  -7.6278  -7.5562
    -7.4848  -7.4598  -7.4362  -7.3580  -7.3555  -7.3547  -7.3204  -7.2080
    -7.0526  -7.0363  -7.0004  -6.9762  -6.7469  -6.7431  -6.6860  -6.6259
    -6.5433  -6.5387  -6.4870  -6.3746  -6.3680  -6.2999  -6.2147  -6.1555
    -5.9840  -5.9261  -5.9069  -5.8078  -5.7809  -5.7340  -5.5781  -5.5256
    -5.3466  -5.1864  -5.1749  -5.1438  -5.0415  -4.8981  -4.8799  -4.7559
    -4.5744  -4.5002  -4.3664  -4.3618  -4.2525  -4.1992  -4.0386  -3.8277
    -3.3436  -3.2770  -3.0298  -2.7677  -1.1130  -1.0459  -0.8441  -0.8056
    -0.4753  -0.3904  -0.2492  -0.1938   0.0160   0.1467   0.1579   0.2774
     0.3589   0.5270   0.5928   0.8946   0.9120   0.9366   1.0604   1.1336
     1.1854   1.2306   1.2627   1.2738   1.4782   1.5348   1.5532   1.6245
     1.7324   1.7694   1.9608   1.9634   1.9676   2.0133   2.0777   2.1166
     2.1317   2.2384   2.3033   2.3253   2.3597   2.4176   2.5078   2.5257
     2.5375   2.6167   2.6446   2.6577   2.6815   2.7034   2.7240   2.8191
     2.8399   2.8807   2.8989   2.9615   2.9652   3.0505   3.0560   3.0935
     3.1181   3.1228   3.2142   3.2683   3.3226   3.3613   3.3625   3.3895
     3.4100   3.4300   3.4317   3.4706   3.4948   3.5408   3.5670   3.6078
     3.6855   3.7261   3.7401   3.7892   3.8141   3.9064   3.9312   3.9585
     4.0020   4.0261   4.0334   4.1338   4.1377   4.1466   4.1643   4.1926
     4.2135   4.2410   4.2417   4.2576   4.2774   4.3019   4.3067   4.3475
     4.3601   4.3784   4.4146   4.4526   4.5371   4.5435   4.5478   4.5822
     4.5941   4.6714   4.7308   4.7845   4.7966   4.8174   4.8600   4.8636
     4.8977   4.9403   4.9510   4.9576   4.9741   4.9823   5.0360   5.0570
     5.0761   5.1245   5.1320   5.1402   5.1991   5.2042   5.2494   5.2776
[...]
    -6.5353  -6.5068  -6.4716  -6.4300  -6.3968  -6.3788  -6.1348  -6.0695
    -6.0476  -6.0100  -5.9262  -5.8974  -5.6981  -5.6888  -5.6274  -5.6223
    -5.2891  -5.2414  -5.1636  -5.1555  -4.9619  -4.9182  -4.8473  -4.8120
    -4.5395  -4.5225  -4.3460  -4.3441  -4.2360  -4.2285  -3.9270  -3.8701
    -3.2115  -3.1916  -3.1044  -3.0342  -1.0648  -1.0532  -0.7708  -0.7635
    -0.4377  -0.4135  -0.2475  -0.2349   0.0809   0.1042   0.2025   0.2881
     0.3446   0.4275   0.6652   0.7879   0.9319   0.9461   1.0090   1.0601
     1.1683   1.1687   1.3044   1.3630   1.3703   1.4477   1.5763   1.6065
     1.7526   1.7606   2.0094   2.0305   2.0418   2.0906   2.1372   2.1672
     2.1862   2.2595   2.2658   2.2842   2.4558   2.4930   2.5022   2.5224
     2.6054   2.6142   2.6181   2.6272   2.6602   2.6606   2.7139   2.7462
     2.7797   2.8057   2.8820   2.9237   2.9330   2.9851   3.0159   3.1083
     3.1225   3.1473   3.1927   3.2402   3.2403   3.2926   3.3050   3.3336
     3.4030   3.4577   3.5326   3.5680   3.5863   3.6175   3.6569   3.6655
     3.6850   3.7480   3.7779   3.7931   3.8385   3.8578   3.8587   3.9222
     3.9735   4.0258   4.0419   4.0585   4.0800   4.1334   4.1427   4.1652
     4.1789   4.1917   4.2875   4.3025   4.3338   4.3349   4.3638   4.4028
     4.4137   4.4388   4.4696   4.4755   4.4807   4.5276   4.5447   4.6067
     4.6245   4.6890   4.6981   4.7329   4.7543   4.7869   4.8099   4.8909
     4.9140   4.9234   4.9644   4.9728   4.9974   5.0276   5.0418   5.0589
     5.0882   5.1190   5.1743   5.1773   5.1822   5.1924   5.2445   5.2768
     5.3186   5.3272   5.3496   5.3847   5.4012   5.4228   5.4254   5.4653
     5.4680   5.4740   5.4779   5.5026   5.6274   5.6305   5.6382   5.6421
     5.7223   5.7509   5.7585   5.7659   5.7960   5.8209   5.8284   5.8544
     5.8961   5.9244   5.9402   5.9564   5.9719   6.0108   6.0294   6.0413
     6.0450   6.1282   6.1516   6.1861   6.1873   6.2103   6.2328   6.2376
     6.2453   6.2566   6.2815   6.3147   6.3718   6.3730   6.3991   6.4174
     6.4250   6.4465   6.4669   6.4715   6.4820   6.5023   6.5283   6.5740
     6.5922   6.5937   6.6220   6.6421   6.6545   6.6760   6.6874   6.7016
     6.7035   6.7132   6.7218   6.7321   6.7857   6.7868   6.7943   6.8321
     6.8326   6.8506   6.8634   6.8806   6.9140   6.9859   6.9860   6.9951
     7.0349   7.0486   7.0555   7.0625   7.0667   7.1249   7.1744   7.1969
     7.2148   7.2272   7.2360   7.2469   7.2830   7.3155   7.3314   7.3457
     7.3644   7.4050   7.4485   7.4595   7.5127   7.5231   7.5293   7.5561
     7.5609   7.5614   7.5860   7.5934   7.6091   7.6136   7.6518   7.6597
     7.6889   7.7091   7.7143   7.7461   7.7555   7.7764   7.8021   7.8252
     7.8427   7.8527   7.8680   7.8959   7.9049   7.9294   7.9432   7.9598
     7.9628   7.9636   8.0113   8.0336   8.0612   8.0711   8.1251   8.1445
     8.1598   8.1854   8.2243   8.2396   8.2566   8.2722   8.2869   8.3018
     8.3451   8.3513   8.3772   8.3780   8.4391   8.4416   8.4798   8.5009
     8.5105   8.5127   8.5189   8.5330   8.5434   8.5592   8.5712   8.6103
     8.6318   8.6536   8.6683   8.6836   8.6998   8.7022   8.7043   8.7376
     8.7587   8.7820   8.7831   8.8026   8.8088   8.8466   8.8500   8.8525
     8.8730   8.8987   8.9040   8.9153   8.9320   8.9561   8.9645   8.9802
     8.9845   9.0058   9.0219   9.0226

          k = 0.0000 0.0000 0.0290 (133782 PWs)   bands (ev):

   -21.5120 -21.4844 -20.9885 -20.9540 -20.6410 -20.6199 -20.3559 -20.3500
   -20.0512 -20.0251 -19.6815 -19.6625 -19.4761 -19.4315 -19.0347 -19.0237
   -18.7843 -18.7738 -18.4990 -18.4507 -18.3504 -18.3417 -17.9959 -17.9638
   -17.5682 -17.5533 -17.3018 -17.2722 -17.2202 -17.1713 -16.8497 -16.8167
   -16.6065 -16.5642 -16.5247 -16.4989 -16.3258 -16.2960 -15.8848 -15.8552
   -15.5856 -15.5811 -14.8094 -14.7684 -14.7410 -14.7394 -14.4959 -14.4717
   -14.0567 -14.0566 -13.9411 -13.9017 -13.8852 -13.7973 -13.6645 -13.6361
   -13.3674 -13.2851 -12.9875 -12.9602 -12.6778 -12.6641 -12.2885 -12.2443
   -12.2075 -12.1768 -11.9286 -11.8792 -11.7197 -11.6822 -11.5087 -11.4818
   -11.1915 -11.1781 -11.1419 -11.1204 -10.7539 -10.7371 -10.6285 -10.6269
   -10.3981 -10.3823 -10.3133 -10.2534  -9.9844  -9.9222  -9.9220  -9.9146
    -9.6206  -9.5883  -9.4885  -9.4577  -9.3860  -9.3731  -9.2798  -9.1683
    -9.0793  -9.0737  -9.0576  -9.0293  -8.9685  -8.9317  -8.9068  -8.8996
    -8.8804  -8.8777  -8.7202  -8.7145  -8.5585  -8.5415  -8.5120  -8.5017
    -8.4016  -8.3946  -8.2163  -8.2120  -8.1892  -8.1634  -8.1443  -8.1355
    -8.0437  -8.0291  -7.8875  -7.8544  -7.6779  -7.6736  -7.6429  -7.6009
    -7.4323  -7.4091  -7.4086  -7.4045  -7.3919  -7.3611  -7.1858  -7.1410
    -7.1403  -7.0864  -7.0162  -7.0067  -6.6797  -6.6738  -6.6652  -6.6189
    -6.5264  -6.5070  -6.4644  -6.4367  -6.3975  -6.3857  -6.1210  -6.0616
    -6.0599  -6.0203  -5.9240  -5.9057  -5.6855  -5.6779  -5.6381  -5.6335
    -5.2809  -5.2489  -5.1622  -5.1568  -4.9538  -4.9245  -4.8417  -4.8181
    -4.5364  -4.5251  -4.3448  -4.3434  -4.2352  -4.2304  -3.9158  -3.8778
    -3.1943  -3.1833  -3.1094  -3.0601  -1.0621  -1.0545  -0.7668  -0.7620
    -0.4334  -0.4172  -0.2462  -0.2379   0.0843   0.0995   0.2176   0.2758
     0.3554   0.4106   0.6837   0.7655   0.9354   0.9450   1.0170   1.0513
     1.1663   1.1663   1.3127   1.3519   1.3835   1.4352   1.5816   1.6020
     1.7536   1.7594   2.0136   2.0280   2.0517   2.0853   2.1465   2.1690
     2.2005   2.2505   2.2632   2.2774   2.4632   2.4947   2.5112   2.5299
     2.6039   2.6121   2.6156   2.6238   2.6464   2.6526   2.7252   2.7526
     2.7748   2.7885   2.8886   2.9226   2.9329   2.9747   3.0275   3.0955
     3.1334   3.1464   3.2005   3.2319   3.2488   3.2862   3.2927   3.3155
     3.4127   3.4506   3.5506   3.5873   3.5948   3.6244   3.6415   3.6721
     3.6936   3.7538   3.7718   3.7894   3.8399   3.8458   3.8505   3.9090
     3.9912   4.0299   4.0379   4.0611   4.0859   4.1190   4.1353   4.1611
     4.1671   4.1746   4.2965   4.3183   4.3281   4.3505   4.3647   4.3917
     4.4301   4.4350   4.4786   4.4864   4.4881   4.5265   4.5354   4.6043
     4.6141   4.7004   4.7021   4.7327   4.7578   4.7950   4.8338   4.8782
     4.8998   4.9112   4.9560   4.9767   4.9813   5.0285   5.0365   5.0768
     5.0924   5.1126   5.1658   5.1710   5.1949   5.2071   5.2294   5.2623
     5.3315   5.3578   5.3583   5.3917   5.3982   5.4105   5.4379   5.4445
     5.4611   5.4694   5.4726   5.4857   5.6159   5.6178   5.6262   5.6287
     5.7360   5.7604   5.7652   5.7676   5.7890   5.8176   5.8563   5.8697
     5.9073   5.9288   5.9507   5.9772   5.9829   6.0071   6.0227   6.0295
     6.0402   6.1611   6.1616   6.1783   6.1877   6.2017   6.2182   6.2237
     6.2316   6.2523   6.2707   6.2960   6.3751   6.3911   6.4087   6.4214
     6.4284   6.4329   6.4606   6.4686   6.4815   6.5070   6.5398   6.5752
     6.5826   6.6016   6.6401   6.6474   6.6485   6.6742   6.6773   6.6952
     6.6983   6.7075   6.7173   6.7254   6.7876   6.8041   6.8043   6.8188
     6.8303   6.8537   6.8642   6.8754   6.8998   6.9756   6.9809   6.9879
     7.0175   7.0349   7.0558   7.0753   7.0779   7.1237   7.1579   7.1702
     7.2281   7.2303   7.2342   7.2612   7.2808   7.3089   7.3390   7.3641
     7.3666   7.4098   7.4439   7.4585   7.5065   7.5308   7.5509   7.5600
     7.5674   7.5858   7.5886   7.6106   7.6117   7.6165   7.6401   7.6586
     7.6725   7.6973   7.7182   7.7447   7.7665   7.7743   7.7757   7.7944
     7.8180   7.8666   7.8702   7.8740   7.9339   7.9354   7.9525   7.9536
     7.9648   7.9699   8.0226   8.0259   8.0599   8.0781   8.1234   8.1339
     8.1443   8.1899   8.2091   8.2240   8.2747   8.2810   8.2841   8.3308
     8.3545   8.3645   8.3703   8.3957   8.4266   8.4541   8.4876   8.5051
     8.5158   8.5199   8.5258   8.5347   8.5509   8.5762   8.5841   8.5997
     8.6351   8.6549   8.6619   8.6724   8.6956   8.7034   8.7100   8.7161
     8.7216   8.7628   8.7912   8.8047   8.8303   8.8500   8.8578   8.8642
     8.8806   8.8885   8.9051   8.9225   8.9417   8.9458   8.9616   8.9743
     8.9838   9.0085   9.0108   9.0161

          k = 0.0000 0.0000 0.0303 (133756 PWs)   bands (ev):

   -21.5055 -21.4917 -20.9796 -20.9623 -20.6349 -20.6243 -20.3560 -20.3532
   -20.0446 -20.0316 -19.6768 -19.6673 -19.4643 -19.4420 -19.0311 -19.0257
   -18.7811 -18.7759 -18.4889 -18.4647 -18.3488 -18.3444 -17.9878 -17.9718
   -17.5644 -17.5569 -17.2942 -17.2794 -17.2080 -17.1835 -16.8410 -16.8245
   -16.5938 -16.5727 -16.5176 -16.5046 -16.3194 -16.3042 -15.8802 -15.8655
   -15.5843 -15.5821 -14.7988 -14.7782 -14.7411 -14.7403 -14.4903 -14.4782
   -14.0554 -14.0553 -13.9250 -13.9073 -13.8686 -13.8221 -13.6586 -13.6440
   -13.3471 -13.3059 -12.9816 -12.9679 -12.6749 -12.6681 -12.2712 -12.2480
   -12.2050 -12.1907 -11.9164 -11.8914 -11.7098 -11.6908 -11.5023 -11.4889
   -11.1845 -11.1753 -11.1447 -11.1312 -10.7447 -10.7361 -10.6318 -10.6307
   -10.3947 -10.3870 -10.2997 -10.2695  -9.9665  -9.9317  -9.9214  -9.9213
    -9.6106  -9.5942  -9.4812  -9.4658  -9.3846  -9.3781  -9.2471  -9.1887
    -9.0764  -9.0750  -9.0574  -9.0403  -8.9533  -8.9234  -8.9223  -8.9074
    -8.8817  -8.8809  -8.7189  -8.7161  -8.5541  -8.5456  -8.5082  -8.5030
    -8.3992  -8.3957  -8.2154  -8.2132  -8.1847  -8.1718  -8.1404  -8.1358
    -8.0417  -8.0341  -7.8792  -7.8627  -7.6759  -7.6734  -7.6333  -7.6116
    -7.4266  -7.4149  -7.4043  -7.3969  -7.3931  -7.3722  -7.1741  -7.1517
    -7.1262  -7.0993  -7.0137  -7.0090  -6.6772  -6.6743  -6.6542  -6.6310
    -6.5189  -6.5091  -6.4573  -6.4434  -6.3970  -6.3911  -6.1065  -6.0765
    -6.0502  -6.0304  -5.9211  -5.9122  -5.6731  -5.6668  -5.6493  -5.6446
    -5.2727  -5.2567  -5.1609  -5.1582  -4.9459  -4.9313  -4.8359  -4.8241
    -4.5334  -4.5278  -4.3439  -4.3432  -4.2343  -4.2320  -3.9052  -3.8862
    -3.1810  -3.1771  -3.1093  -3.0829  -1.0598  -1.0560  -0.7639  -0.7616
    -0.4292  -0.4210  -0.2446  -0.2405   0.0877   0.0953   0.2329   0.2624
     0.3673   0.3949   0.7029   0.7438   0.9385   0.9434   1.0253   1.0426
     1.1650   1.1651   1.3217   1.3413   1.3966   1.4224   1.5869   1.5972
     1.7549   1.7580   2.0176   2.0249   2.0612   2.0783   2.1553   2.1674
     2.2145   2.2398   2.2635   2.2712   2.4709   2.4868   2.5268   2.5358
     2.5969   2.6036   2.6183   2.6304   2.6349   2.6449   2.7392   2.7586
     2.7697   2.7713   2.8960   2.9130   2.9431   2.9642   3.0420   3.0772
     3.1420   3.1484   3.2081   3.2238   3.2585   3.2807   3.2851   3.3005
     3.4225   3.4419   3.5682   3.5948   3.6089   3.6280   3.6318   3.6530
     3.7216   3.7586   3.7668   3.7734   3.8411   3.8456   3.8517   3.8895
     4.0027   4.0197   4.0567   4.0723   4.0892   4.0993   4.1300   4.1447
     4.1625   4.1702   4.3052   4.3209   4.3343   4.3562   4.3670   4.3794
     4.4355   4.4579   4.4681   4.4908   4.4952   4.5052   4.5527   4.5966
     4.6177   4.6695   4.7155   4.7350   4.7908   4.8087   4.8565   4.8581
     4.8775   4.9007   4.9449   4.9578   4.9894   5.0153   5.0629   5.0858
     5.1028   5.1073   5.1500   5.1578   5.2081   5.2150   5.2274   5.2473
     5.3458   5.3627   5.3853   5.3952   5.3991   5.4003   5.4328   5.4461
     5.4512   5.4656   5.4678   5.4729   5.6015   5.6057   5.6223   5.6248
     5.7480   5.7652   5.7660   5.7682   5.7879   5.8063   5.8844   5.8940
     5.9049   5.9462   5.9593   5.9616   5.9860   6.0030   6.0101   6.0248
     6.0702   6.1561   6.1654   6.1718   6.1929   6.1931   6.2133   6.2246
     6.2288   6.2394   6.2654   6.2801   6.3827   6.4006   6.4193   6.4239
     6.4284   6.4328   6.4515   6.4548   6.4921   6.5064   6.5498   6.5708
     6.5838   6.6087   6.6327   6.6401   6.6563   6.6788   6.6829   6.6864
     6.6897   6.7063   6.7143   6.7208   6.7896   6.8023   6.8164   6.8206
     6.8272   6.8492   6.8629   6.8866   6.8957   6.9536   6.9776   6.9811
     7.0042   7.0184   7.0770   7.0873   7.0905   7.1219   7.1421   7.1428
     7.2295   7.2325   7.2468   7.2732   7.2749   7.2991   7.3494   7.3665
     7.3813   7.4066   7.4409   7.4512   7.5079   7.5235   7.5609   7.5668
     7.5788   7.6008   7.6096   7.6136   7.6238   7.6239   7.6324   7.6526
     7.6704   7.6909   7.7245   7.7311   7.7340   7.7521   7.7796   7.7967
     7.8063   7.8513   7.8731   7.8740   7.9389   7.9456   7.9520   7.9578
     7.9779   7.9869   8.0167   8.0397   8.0665   8.0790   8.1013   8.1097
     8.1463   8.1783   8.2034   8.2170   8.2772   8.2817   8.3136   8.3417
     8.3604   8.3623   8.3797   8.4119   8.4312   8.4679   8.4943   8.5041
     8.5147   8.5175   8.5223   8.5271   8.5430   8.5824   8.6048   8.6240
     8.6322   8.6455   8.6603   8.6629   8.6730   8.7016   8.7044   8.7101
     8.7304   8.7410   8.7949   8.7974   8.8424   8.8506   8.8582   8.8734
     8.8864   8.8897   8.8935   8.9385   8.9448   8.9532   8.9593   8.9609
     8.9778   8.9926   9.0067   9.0265

          k = 0.0000 0.0000-0.0316 (133724 PWs)   bands (ev):

   -21.4987 -21.4987 -20.9709 -20.9708 -20.6293 -20.6293 -20.3552 -20.3551
   -20.0381 -20.0380 -19.6720 -19.6720 -19.4530 -19.4529 -19.0282 -19.0281
   -18.7783 -18.7783 -18.4776 -18.4773 -18.3468 -18.3468 -17.9798 -17.9798
   -17.5607 -17.5606 -17.2868 -17.2868 -17.1958 -17.1957 -16.8327 -16.8326
   -16.5826 -16.5825 -16.5108 -16.5108 -16.3122 -16.3121 -15.8738 -15.8738
   -15.5832 -15.5831 -14.7884 -14.7883 -14.7409 -14.7408 -14.4844 -14.4844
   -14.0549 -14.0548 -13.9144 -13.9144 -13.8467 -13.8466 -13.6516 -13.6516
   -13.3266 -13.3266 -12.9750 -12.9750 -12.6717 -12.6716 -12.2571 -12.2570
   -12.2000 -12.2000 -11.9039 -11.9039 -11.7001 -11.7001 -11.4958 -11.4957
   -11.1783 -11.1782 -11.1402 -11.1402 -10.7387 -10.7386 -10.6325 -10.6325
   -10.3910 -10.3910 -10.2850 -10.2850  -9.9489  -9.9489  -9.9211  -9.9211
    -9.6018  -9.6017  -9.4736  -9.4736  -9.3820  -9.3819  -9.2161  -9.2159
    -9.0758  -9.0758  -9.0503  -9.0501  -8.9379  -8.9378  -8.9153  -8.9153
    -8.8821  -8.8820  -8.7176  -8.7175  -8.5499  -8.5498  -8.5052  -8.5052
    -8.3973  -8.3972  -8.2145  -8.2141  -8.1789  -8.1788  -8.1375  -8.1374
    -8.0385  -8.0383  -7.8710  -7.8709  -7.6744  -7.6743  -7.6226  -7.6225
    -7.4207  -7.4207  -7.4002  -7.4001  -7.3832  -7.3832  -7.1627  -7.1627
    -7.1126  -7.1126  -7.0113  -7.0113  -6.6754  -6.6754  -6.6428  -6.6428
    -6.5131  -6.5129  -6.4503  -6.4503  -6.3950  -6.3947  -6.0916  -6.0915
    -6.0404  -6.0403  -5.9173  -5.9171  -5.6612  -5.6609  -5.6558  -5.6557
    -5.2648  -5.2645  -5.1596  -5.1595  -4.9385  -4.9384  -4.8301  -4.8300
    -4.5306  -4.5305  -4.3434  -4.3433  -4.2333  -4.2332  -3.8954  -3.8953
    -3.1753  -3.1753  -3.1005  -3.1003  -1.0578  -1.0577  -0.7622  -0.7622
    -0.4250  -0.4250  -0.2428  -0.2427   0.0913   0.0914   0.2480   0.2480
     0.3804   0.3805   0.7229   0.7231   0.9412   0.9412   1.0338   1.0339
     1.1646   1.1646   1.3312   1.3312   1.4096   1.4096   1.5921   1.5921
     1.7564   1.7564   2.0214   2.0214   2.0702   2.0702   2.1625   2.1625
     2.2276   2.2278   2.2663   2.2663   2.4788   2.4788   2.5359   2.5359
     2.5960   2.5960   2.6258   2.6258   2.6374   2.6375   2.7548   2.7548
     2.7643   2.7644   2.9041   2.9042   2.9536   2.9536   3.0587   3.0588
     3.1473   3.1473   3.2158   3.2159   3.2692   3.2693   3.2899   3.2900
     3.4323   3.4324   3.5841   3.5841   3.6293   3.6293   3.6312   3.6312
     3.7488   3.7488   3.7626   3.7626   3.8427   3.8427   3.8690   3.8690
     4.0111   4.0111   4.0779   4.0779   4.0851   4.0851   4.1311   4.1311
     4.1660   4.1660   4.3132   4.3133   4.3489   4.3489   4.3711   4.3711
     4.4510   4.4510   4.4810   4.4810   4.4952   4.4952   4.5749   4.5749
     4.6411   4.6411   4.7269   4.7269   4.8191   4.8191   4.8476   4.8476
     4.8831   4.8831   4.9457   4.9457   5.0022   5.0023   5.0833   5.0833
     5.1056   5.1056   5.1461   5.1461   5.2152   5.2153   5.2348   5.2348
     5.3584   5.3584   5.3935   5.3935   5.4012   5.4012   5.4350   5.4351
     5.4592   5.4592   5.4663   5.4663   5.5986   5.5986   5.6225   5.6225
     5.7584   5.7585   5.7675   5.7675   5.7956   5.7956   5.8964   5.8964
     5.9303   5.9303   5.9610   5.9610   5.9875   5.9875   6.0182   6.0182
     6.1121   6.1121   6.1676   6.1676   6.2025   6.2026   6.2191   6.2191
     6.2275   6.2275   6.2689   6.2689   6.3931   6.3931   6.4240   6.4241
     6.4401   6.4401   6.4413   6.4413   6.5008   6.5011   6.5598   6.5598
     6.5991   6.5991   6.6314   6.6315   6.6703   6.6704   6.6854   6.6854
     6.6960   6.6960   6.7170   6.7171   6.7941   6.7941   6.8226   6.8227
     6.8351   6.8351   6.8742   6.8742   6.9234   6.9234   6.9775   6.9775
     7.0073   7.0073   7.0878   7.0879   7.1133   7.1133   7.1297   7.1297
     7.2310   7.2310   7.2615   7.2615   7.2876   7.2876   7.3600   7.3600
     7.3961   7.3961   7.4438   7.4438   7.5148   7.5148   7.5639   7.5640
     7.5978   7.5978   7.6176   7.6177   7.6265   7.6265   7.6366   7.6367
     7.7020   7.7020   7.7031   7.7031   7.7326   7.7326   7.7877   7.7877
     7.8276   7.8277   7.8752   7.8752   7.9431   7.9433   7.9556   7.9556
     7.9873   7.9874   8.0379   8.0379   8.0812   8.0812   8.0815   8.0815
     8.1615   8.1615   8.2092   8.2093   8.2794   8.2794   8.3403   8.3403
     8.3550   8.3551   8.3959   8.3959   8.4698   8.4699   8.4999   8.4999
     8.5030   8.5030   8.5209   8.5209   8.5609   8.5609   8.6285   8.6285
     8.6380   8.6380   8.6679   8.6679   8.6703   8.6703   8.7053   8.7053
     8.7381   8.7381   8.7927   8.7927   8.8482   8.8482   8.8637   8.8637
     8.8901   8.8901   8.9209   8.9209   8.9415   8.9416   8.9575   8.9575
     8.9969   8.9969   9.0140   9.0140

     the Fermi energy is    -2.4562 ev

     Writing output data file V9_m7.save/

     init_run     :     21.76s CPU     22.37s WALL (       1 calls)
     electrons    :  10542.07s CPU  10658.79s WALL (       1 calls)

     Called by init_run:
     wfcinit      :      0.00s CPU      0.00s WALL (       1 calls)
     potinit      :      1.29s CPU      1.41s WALL (       1 calls)
     hinit0       :     16.65s CPU     16.76s WALL (       1 calls)

     Called by electrons:
     c_bands      :  10542.06s CPU  10658.18s WALL (       1 calls)
     v_of_rho     :      1.00s CPU      1.05s WALL (       1 calls)
     newd         :      1.01s CPU      1.33s WALL (       1 calls)

     Called by c_bands:
     init_us_2    :      1.29s CPU      1.40s WALL (      26 calls)
     cegterg      :  10299.05s CPU  10404.68s WALL (      76 calls)

     Called by sum_band:

     Called by *egterg:
     h_psi        :   3375.73s CPU   3423.75s WALL (    1168 calls)
     s_psi        :    469.10s CPU    471.76s WALL (    1168 calls)
     g_psi        :     16.13s CPU     16.19s WALL (    1066 calls)
     cdiaghg      :   3134.72s CPU   3147.38s WALL (    1092 calls)

     Called by h_psi:
     h_psi:pot    :   3355.37s CPU   3396.54s WALL (    1168 calls)
     h_psi:calbec :    457.21s CPU    462.32s WALL (    1168 calls)
     vloc_psi     :   2430.19s CPU   2463.83s WALL (    1168 calls)
     add_vuspsi   :    467.95s CPU    470.29s WALL (    1168 calls)

     General routines
     calbec       :    457.20s CPU    462.31s WALL (    1168 calls)
     fft          :      0.95s CPU      1.03s WALL (      14 calls)
     ffts         :      0.01s CPU      0.01s WALL (       1 calls)
     fftw         :   1913.72s CPU   1939.64s WALL (  555534 calls)
     interpolate  :      0.07s CPU      0.07s WALL (       1 calls)
     davcio       :      0.00s CPU      6.30s WALL (      52 calls)

     Parallel routines
     fft_scatt_xy :    392.62s CPU    396.83s WALL (  555549 calls)
     fft_scatt_yz :    288.30s CPU    294.33s WALL (  555549 calls)

     PWSCF        :     2h56m CPU       56h 3m WALL

       3h

   This run was terminated on:  21: 8:52  20Apr2021            

=------------------------------------------------------------------------------=
   JOB DONE.
=------------------------------------------------------------------------------=
