
     Program PWSCF v.6.3 starts on 20Apr2021 at  8:16:42 

     This program is part of the open-source Quantum ESPRESSO suite
     for quantum simulation of materials; please cite
         "P. Giannozzi et al., J. Phys.:Condens. Matter 21 395502 (2009);
         "P. Giannozzi et al., J. Phys.:Condens. Matter 29 465901 (2017);
          URL http://www.quantum-espresso.org", 
     in publications or presentations arising from this work. More details at
     http://www.quantum-espresso.org/quote

     Parallel version (MPI), running on    16 processors
     R & G space division:  proc/nbgrp/npool/nimage =      16
     Waiting for input...
     Reading input from standard input
     Message from routine read_cards :
     DEPRECATED: no units specified in CELL_PARAMETERS card

     Current dimensions of program PWSCF are:
     Max number of different atomic species (ntypx) = 10
     Max number of k-points (npk) =  40000
     Max angular momentum in pseudopotentials (lmaxx) =  3

     Atomic positions and unit cell read from directory:
     /home/zfwang/scratch/GNRDATASET/AGNR/V9_1/V9_1.save/


     Subspace diagonalization in iterative solution of the eigenvalue problem:
     a serial algorithm will be used


     Parallelization info
     --------------------
     sticks:   dense  smooth     PW     G-vecs:    dense   smooth      PW
     Min        2497     832    214               377809    72708    9515
     Max        2498     834    215               377812    72709    9519
     Sum       39953   13323   3435              6044975  1163333  152265



     bravais-lattice index     =            0
     lattice parameter (alat)  =       1.8897  a.u.
     unit-cell volume          =   34041.0842 (a.u.)^3
     number of atoms/cell      =          108
     number of atomic types    =            2
     number of electrons       =       360.00
     number of Kohn-Sham states=          500
     kinetic-energy cutoff     =      40.0000  Ry
     charge density cutoff     =     480.0000  Ry
     Exchange-correlation      = PBE ( 1  4  3  4 0 0)

     celldm(1)=  18.897261  celldm(2)=   2.931000  celldm(3)=   1.721040
     celldm(4)=   0.000000  celldm(5)=   0.000000  celldm(6)=   0.000000

     crystal axes: (cart. coord. in units of alat)
               a(1) = (  10.000000   0.000000   0.000000 )  
               a(2) = (   0.000000  29.310000   0.000000 )  
               a(3) = (   0.000000   0.000000  17.210400 )  

     reciprocal axes: (cart. coord. in units 2 pi/alat)
               b(1) = (  0.100000  0.000000  0.000000 )  
               b(2) = (  0.000000  0.034118  0.000000 )  
               b(3) = (  0.000000  0.000000  0.058104 )  


     PseudoPot. # 1 for C  read from file:
     /home/zfwang/hp_home/MySoftware/qe-6.3/pseudo/C.pbe-n-rrkjus_psl.0.1.UPF
     MD5 check sum: fff530ed632a789b3b184014e67dd7f1
     Pseudo is Ultrasoft + core correction, Zval =  4.0
     Generated using "atomic" code by A. Dal Corso v.5.0.2 svn rev. 9415
     Using radial grid of 1073 points,  4 beta functions with: 
                l(1) =   0
                l(2) =   0
                l(3) =   1
                l(4) =   1
     Q(r) pseudized with 0 coefficients 


     PseudoPot. # 2 for H  read from file:
     /home/zfwang/hp_home/MySoftware/qe-6.3/pseudo/H.pbe-rrkjus_psl.0.1.UPF
     MD5 check sum: e164a6907b691c6980f16942be34de84
     Pseudo is Ultrasoft, Zval =  1.0
     Generated using "atomic" code by A. Dal Corso v.5.0.2 svn rev. 9415
     Using radial grid of  929 points,  2 beta functions with: 
                l(1) =   0
                l(2) =   0
     Q(r) pseudized with 0 coefficients 


     atomic species   valence    mass     pseudopotential
        C              4.00    12.01070     C ( 1.00)
        H              1.00     1.00794     H ( 1.00)

     No symmetry found



   Cartesian axes

     site n.     atom                  positions (alat units)
         1           C   tau(   1) = (   5.0000000   6.0249147   2.8461090  )
         2           C   tau(   2) = (   5.0000016   6.0210622  15.7521910  )
         3           C   tau(   3) = (   5.0000001   7.2274835   3.5344711  )
         4           C   tau(   4) = (   5.0000010   7.2178611  16.4823936  )
         5           C   tau(   5) = (   5.0000002   6.0210628   1.4582090  )
         6           C   tau(   6) = (   5.0000016   6.0249147  14.3642895  )
         7           C   tau(   7) = (   5.0000001   8.4550680   2.8535279  )
         8           C   tau(   8) = (   5.0000010   8.4588807  15.7814869  )
         9           C   tau(   9) = (   5.0000000   9.7158826   3.5701543  )
        10           C   tau(  10) = (   5.0000012   9.7554696  12.2343158  )
        11           C   tau(  11) = (   5.0000007   9.7058729  16.4991694  )
        12           C   tau(  12) = (   5.0000005   7.2178613   0.7280059  )
        13           C   tau(  13) = (   5.0000014   7.2274833  13.6759288  )
        14           C   tau(  14) = (   5.0000003   8.4588812   1.4289128  )
        15           C   tau(  15) = (   5.0000015   8.4550679  14.3568709  )
        16           C   tau(  16) = (   5.0000000  10.9422115   2.8602809  )
        17           C   tau(  17) = (   5.0000005  10.9433371  11.5445375  )
        18           C   tau(  18) = (   5.0000009  10.9402560  15.7888334  )
        19           C   tau(  19) = (   4.9999996  12.1780207   3.5797825  )
        20           C   tau(  20) = (   5.0000000  12.1820741  12.2097630  )
        21           C   tau(  21) = (   5.0000008  12.1713119  16.4975889  )
        22           C   tau(  22) = (   5.0000004   9.7058734   0.7112302  )
        23           C   tau(  23) = (   4.9999997   9.7554700   4.9760848  )
        24           C   tau(  24) = (   5.0000013   9.7158827  13.6402459  )
        25           C   tau(  25) = (   5.0000004  10.9402564   1.4215668  )
        26           C   tau(  26) = (   4.9999998  10.9433370   5.6658630  )
        27           C   tau(  27) = (   5.0000011  10.9422104  14.3501194  )
        28           C   tau(  28) = (   4.9999995  13.4193217   2.8610556  )
        29           C   tau(  29) = (   4.9999989  13.4756779   7.1349968  )
        30           C   tau(  30) = (   4.9999992  13.4362278  11.4738407  )
        31           C   tau(  31) = (   5.0000007  13.4126967  15.7734039  )
        32           C   tau(  32) = (   4.9999991  14.6480507   3.5854447  )
        33           C   tau(  33) = (   4.9999983  14.6602069   7.8736976  )
        34           C   tau(  34) = (   4.9999991  14.6619523  12.1906489  )
        35           C   tau(  35) = (   5.0000008  14.6497923  16.4788997  )
        36           C   tau(  36) = (   5.0000005  12.1713126   0.7128120  )
        37           C   tau(  37) = (   4.9999994  12.1820752   5.0006377  )
        38           C   tau(  38) = (   5.0000005  12.1780199  13.6306183  )
        39           C   tau(  39) = (   5.0000002  13.4126968   1.4369974  )
        40           C   tau(  40) = (   4.9999990  13.4362289   5.7365604  )
        41           C   tau(  41) = (   4.9999984  13.4756777  10.0754037  )
        42           C   tau(  42) = (   5.0000003  13.4193207  14.3493456  )
        43           C   tau(  43) = (   4.9999996  15.8737752   2.8686340  )
        44           C   tau(  44) = (   4.9999983  15.8973044   7.1682031  )
        45           C   tau(  45) = (   4.9999986  15.8906795  11.4662587  )
        46           C   tau(  46) = (   5.0000007  15.8343236  15.7402044  )
        47           C   tau(  47) = (   4.9999996  17.1279315   3.6045568  )
        48           C   tau(  48) = (   4.9999984  17.1386888   7.8923878  )
        49           C   tau(  49) = (   4.9999991  17.1319807  12.1849898  )
        50           C   tau(  50) = (   5.0000006  14.6497925   0.7315018  )
        51           C   tau(  51) = (   4.9999987  14.6619533   5.0197519  )
        52           C   tau(  52) = (   4.9999982  14.6602067   9.3367029  )
        53           C   tau(  53) = (   4.9999997  14.6480495  13.6249564  )
        54           C   tau(  54) = (   5.0000003  15.8343242   1.4701965  )
        55           C   tau(  55) = (   4.9999987  15.8906803   5.7441424  )
        56           C   tau(  56) = (   4.9999982  15.8973036  10.0421979  )
        57           C   tau(  57) = (   5.0000001  15.8737739  14.3417665  )
        58           C   tau(  58) = (   4.9999999  18.3666643   2.9393266  )
        59           C   tau(  59) = (   4.9999990  18.3697439   7.1836307  )
        60           C   tau(  60) = (   4.9999989  18.3677933  11.4654868  )
        61           C   tau(  61) = (   5.0000004  19.5545408   3.6291078  )
        62           C   tau(  62) = (   4.9999993  19.6041250   7.8939691  )
        63           C   tau(  63) = (   4.9999995  19.5941198  12.1753603  )
        64           C   tau(  64) = (   4.9999995  17.1319817   5.0254111  )
        65           C   tau(  65) = (   4.9999982  17.1386882   9.3180133  )
        66           C   tau(  66) = (   4.9999998  17.1279302  13.6058442  )
        67           C   tau(  67) = (   4.9999997  18.3677944   5.7449142  )
        68           C   tau(  68) = (   4.9999985  18.3697436  10.0267705  )
        69           C   tau(  69) = (   4.9999998  18.3666632  14.2710744  )
        70           C   tau(  70) = (   5.0000001  20.8511159   7.1762887  )
        71           C   tau(  71) = (   4.9999995  20.8549341  11.4587329  )
        72           C   tau(  72) = (   4.9999999  22.0921340   7.8771950  )
        73           C   tau(  73) = (   4.9999996  22.0825149  12.1396743  )
        74           C   tau(  74) = (   5.0000005  19.5941205   5.0350410  )
        75           C   tau(  75) = (   4.9999992  19.6041249   9.3164326  )
        76           C   tau(  76) = (   4.9999996  19.5545389  13.5812940  )
        77           C   tau(  77) = (   5.0000011  20.8549344   5.7516689  )
        78           C   tau(  78) = (   4.9999995  20.8511161  10.0341135  )
        79           C   tau(  79) = (   5.0000006  23.2889309   7.1469922  )
        80           C   tau(  80) = (   4.9999992  23.2850775  11.4513137  )
        81           C   tau(  81) = (   5.0000021  22.0825160   5.0707283  )
        82           C   tau(  82) = (   4.9999995  22.0921344   9.3332078  )
        83           C   tau(  83) = (   5.0000017  23.2850784   5.7590886  )
        84           C   tau(  84) = (   4.9999993  23.2889303  10.0634109  )
        85           H   tau(  85) = (   4.9999999   5.0818281   3.3937619  )
        86           H   tau(  86) = (   5.0000020   5.0642200  16.2684139  )
        87           H   tau(  87) = (   5.0000003   7.2047701   4.6209253  )
        88           H   tau(  88) = (   5.0000004   5.0642204   0.9419858  )
        89           H   tau(  89) = (   5.0000013   5.0818270  13.8166375  )
        90           H   tau(  90) = (   5.0000015   8.8312274  11.6625464  )
        91           H   tau(  91) = (   5.0000013   7.2047692  12.5894738  )
        92           H   tau(  92) = (   5.0000002  10.9053641  10.4578198  )
        93           H   tau(  93) = (   4.9999995   8.8312264   5.5478548  )
        94           H   tau(  94) = (   5.0000000  10.9053636   6.7525811  )
        95           H   tau(  95) = (   5.0000000  12.5334586   7.6730596  )
        96           H   tau(  96) = (   4.9999981  12.5334587   9.5373407  )
        97           H   tau(  97) = (   5.0000013  16.7765376  16.2782782  )
        98           H   tau(  98) = (   5.0000011  16.7765385   0.9321230  )
        99           H   tau(  99) = (   4.9999998  18.4046361   1.8526077  )
       100           H   tau( 100) = (   5.0000007  20.4787760   3.0573315  )
       101           H   tau( 101) = (   5.0000000  18.4046329  15.3577940  )
       102           H   tau( 102) = (   4.9999998  22.1052286  13.2261338  )
       103           H   tau( 103) = (   4.9999993  20.4787739  14.1530720  )
       104           H   tau( 104) = (   5.0000001  24.2457740   7.6632086  )
       105           H   tau( 105) = (   4.9999988  24.2281628  11.9989645  )
       106           H   tau( 106) = (   5.0000037  22.1052303   3.9842686  )
       107           H   tau( 107) = (   5.0000022  24.2281649   5.2114377  )
       108           H   tau( 108) = (   4.9999989  24.2457733   9.5471944  )

     number of k points=    26  Marzari-Vanderbilt smearing, width (Ry)=  0.0100
                       cart. coord. in units 2pi/alat
        k(    1) = (   0.0000000   0.0000000   0.0000000), wk =   0.0400000
        k(    2) = (   0.0000000   0.0000000   0.0011621), wk =   0.0800000
        k(    3) = (   0.0000000   0.0000000   0.0023242), wk =   0.0800000
        k(    4) = (   0.0000000   0.0000000   0.0034863), wk =   0.0800000
        k(    5) = (   0.0000000   0.0000000   0.0046484), wk =   0.0800000
        k(    6) = (   0.0000000   0.0000000   0.0058104), wk =   0.0800000
        k(    7) = (   0.0000000   0.0000000   0.0069725), wk =   0.0800000
        k(    8) = (   0.0000000   0.0000000   0.0081346), wk =   0.0800000
        k(    9) = (   0.0000000   0.0000000   0.0092967), wk =   0.0800000
        k(   10) = (   0.0000000   0.0000000   0.0104588), wk =   0.0800000
        k(   11) = (   0.0000000   0.0000000   0.0116209), wk =   0.0800000
        k(   12) = (   0.0000000   0.0000000   0.0127830), wk =   0.0800000
        k(   13) = (   0.0000000   0.0000000   0.0139451), wk =   0.0800000
        k(   14) = (   0.0000000   0.0000000   0.0151071), wk =   0.0800000
        k(   15) = (   0.0000000   0.0000000   0.0162692), wk =   0.0800000
        k(   16) = (   0.0000000   0.0000000   0.0174313), wk =   0.0800000
        k(   17) = (   0.0000000   0.0000000   0.0185934), wk =   0.0800000
        k(   18) = (   0.0000000   0.0000000   0.0197555), wk =   0.0800000
        k(   19) = (   0.0000000   0.0000000   0.0209176), wk =   0.0800000
        k(   20) = (   0.0000000   0.0000000   0.0220797), wk =   0.0800000
        k(   21) = (   0.0000000   0.0000000   0.0232418), wk =   0.0800000
        k(   22) = (   0.0000000   0.0000000   0.0244038), wk =   0.0800000
        k(   23) = (   0.0000000   0.0000000   0.0255659), wk =   0.0800000
        k(   24) = (   0.0000000   0.0000000   0.0267280), wk =   0.0800000
        k(   25) = (   0.0000000   0.0000000   0.0278901), wk =   0.0800000
        k(   26) = (   0.0000000   0.0000000  -0.0290522), wk =   0.0400000

     Dense  grid:  6044975 G-vectors     FFT dimensions: ( 135, 400, 240)

     Smooth grid:  1163333 G-vectors     FFT dimensions: (  80, 225, 135)

     Estimated max dynamical RAM per process >       1.28 GB

     Estimated total dynamical RAM >      20.44 GB

     The potential is recalculated from file :
     /home/zfwang/scratch/GNRDATASET/AGNR/V9_1/V9_1.save/charge-density.dat


     negative rho (up, down):  2.807E-04 0.000E+00
     Starting wfcs are  360 randomized atomic wfcs +  140 random wfcs

     Band Structure Calculation
     Davidson diagonalization with overlap

     ethr =  2.78E-09,  avg # of iterations = 41.3

     total cpu time spent up to now is    11288.3 secs

     End of band structure calculation

          k = 0.0000 0.0000 0.0000 (145253 PWs)   bands (ev):

   -21.3471 -21.1834 -21.0190 -20.7932 -20.6303 -20.5752 -20.2139 -20.1811
   -20.0693 -19.8240 -19.7852 -19.6997 -19.5528 -19.3426 -19.0718 -18.9228
   -18.8952 -18.5736 -18.5538 -18.3462 -18.3219 -18.1805 -18.0634 -17.8435
   -17.7067 -17.6430 -17.4808 -17.3256 -17.0962 -17.0100 -17.0083 -16.9057
   -16.7805 -16.6663 -16.6195 -16.4801 -16.2432 -16.2301 -15.9750 -15.7724
   -15.5203 -15.5131 -15.1127 -14.9082 -14.7344 -14.6413 -14.6281 -14.4577
   -14.2750 -14.2465 -14.1373 -14.1307 -13.9004 -13.8265 -13.6765 -13.6164
   -13.4131 -13.1004 -13.0855 -12.8317 -12.7911 -12.7800 -12.5478 -12.4628
   -12.3734 -12.1215 -11.9996 -11.9100 -11.8348 -11.8102 -11.4661 -11.4130
   -11.2521 -11.2519 -11.1161 -11.0769 -10.9854 -10.8788 -10.7179 -10.6603
   -10.6594 -10.4661 -10.4279 -10.2267 -10.0990  -9.9200  -9.9135  -9.8479
    -9.8262  -9.7804  -9.6238  -9.4587  -9.4317  -9.3875  -9.3745  -9.2532
    -9.2508  -9.2350  -9.1934  -9.1317  -9.0394  -8.9360  -8.9268  -8.8200
    -8.8042  -8.7913  -8.7753  -8.7635  -8.7060  -8.6467  -8.6427  -8.6055
    -8.5897  -8.5554  -8.5438  -8.4773  -8.3485  -8.2884  -8.2690  -8.1538
    -8.1151  -8.0939  -8.0084  -7.9465  -7.9010  -7.8664  -7.6951  -7.6677
    -7.6603  -7.6324  -7.5968  -7.5256  -7.4846  -7.4181  -7.3529  -7.3225
    -7.2404  -7.2376  -7.0682  -7.0529  -7.0415  -6.8692  -6.8537  -6.8194
    -6.7029  -6.6915  -6.6812  -6.6114  -6.4730  -6.3154  -6.2737  -6.2736
    -6.1685  -6.0420  -5.9843  -5.9769  -5.9454  -5.9276  -5.7965  -5.6064
    -5.5891  -5.5055  -5.2978  -5.2914  -5.1637  -5.1487  -4.9074  -4.8220
    -4.7084  -4.6146  -4.5032  -4.4398  -4.3957  -4.3851  -4.1213  -3.8856
    -3.5896  -3.5261  -3.1107  -2.9998  -1.4327  -1.3262  -1.1710  -0.9719
    -0.6342  -0.5757  -0.4055  -0.2793  -0.2396  -0.1384   0.0884   0.1141
     0.1634   0.1946   0.5373   0.6720   0.7581   0.8017   0.9022   0.9402
     0.9518   1.0391   1.1419   1.2200   1.2869   1.2954   1.3699   1.4413
     1.5618   1.5824   1.5877   1.6383   1.6589   1.7706   1.8250   1.9353
     1.9416   1.9468   2.0339   2.0830   2.2238   2.2472   2.2851   2.3265
     2.3318   2.3627   2.4319   2.4424   2.5902   2.6015   2.6168   2.6869
     2.7452   2.7710   2.7815   2.8046   2.8052   2.8162   2.8280   2.8417
     2.9376   2.9758   3.0594   3.0947   3.1012   3.1214   3.1268   3.1346
     3.1429   3.1533   3.1803   3.2165   3.2416   3.2462   3.2577   3.3997
     3.5090   3.5315   3.5346   3.5371   3.5591   3.5785   3.5879   3.6358
     3.6642   3.6757   3.7030   3.7277   3.7843   3.8595   3.9213   3.9560
     3.9560   3.9623   3.9863   3.9898   4.0309   4.0914   4.1558   4.1775
     4.1897   4.2459   4.2620   4.2837   4.2993   4.3605   4.3664   4.3702
     4.3779   4.3807   4.4463   4.4731   4.4732   4.4734   4.4860   4.5214
     4.5652   4.5677   4.5774   4.5930   4.6661   4.6665   4.6929   4.6989
     4.7558   4.7574   4.8560   4.8626   4.8697   4.9418   4.9471   4.9763
     4.9804   5.0065   5.0468   5.0754   5.0922   5.1173   5.1351   5.1548
     5.1849   5.1943   5.2307   5.2347   5.2887   5.3016   5.3193   5.3784
     5.3814   5.4460   5.4539   5.4599   5.4604   5.4816   5.5221   5.5304
     5.5355   5.6253   5.6322   5.6335   5.6393   5.6511   5.6800   5.6921
     5.7320   5.7323   5.7369   5.7567   5.7822   5.7828   5.7906   5.7960
     5.8155   5.8222   5.8493   5.8640   5.8857   5.8864   5.9106   5.9721
     6.0442   6.0454   6.0480   6.0642   6.0721   6.1116   6.1431   6.1485
     6.1496   6.1670   6.1970   6.2403   6.2583   6.2614   6.2810   6.3150
     6.3295   6.3586   6.3785   6.4084   6.4203   6.4270   6.4397   6.4655
     6.5078   6.5427   6.5524   6.5598   6.5662   6.5893   6.5917   6.6017
     6.6165   6.6178   6.6417   6.6551   6.6641   6.7105   6.7150   6.7280
     6.7445   6.7571   6.7621   6.8180   6.8256   6.8497   6.8523   6.8727
     6.9127   6.9320   6.9473   6.9480   6.9775   7.0004   7.0191   7.0577
     7.0741   7.0890   7.1007   7.1073   7.1465   7.1491   7.1537   7.1955
     7.1960   7.1987   7.2203   7.2333   7.3029   7.3036   7.3248   7.3399
     7.3559   7.3571   7.3676   7.3707   7.3753   7.3833   7.4181   7.4332
     7.4587   7.4682   7.4807   7.4858   7.5417   7.5710   7.5710   7.6065
     7.6094   7.6158   7.6627   7.6986   7.7297   7.7390   7.7427   7.7484
     7.7638   7.7655   7.7707   7.7853   7.8079   7.8797   7.8806   7.9003
     7.9064   7.9291   7.9334   7.9385   7.9767   8.0268   8.0720   8.0985
     8.1012   8.1132   8.1144   8.1287   8.1571   8.1947   8.1979   8.2004
     8.2043   8.2310   8.2316   8.2364   8.2650   8.2745   8.2817   8.2850
     8.2965   8.3103   8.3162   8.3973   8.4105   8.4400   8.4753   8.4822
     8.4989   8.5274   8.5349   8.5566

          k = 0.0000 0.0000 0.0012 (145291 PWs)   bands (ev):

   -21.3470 -21.1837 -21.0186 -20.7935 -20.6300 -20.5751 -20.2150 -20.1799
   -20.0699 -19.8252 -19.7846 -19.6984 -19.5530 -19.3427 -19.0717 -18.9243
   -18.8935 -18.5757 -18.5517 -18.3462 -18.3224 -18.1799 -18.0652 -17.8436
   -17.7054 -17.6429 -17.4805 -17.3255 -17.0965 -17.0104 -17.0080 -16.9054
   -16.7807 -16.6666 -16.6188 -16.4801 -16.2432 -16.2303 -15.9751 -15.7729
   -15.5221 -15.5131 -15.1099 -14.9079 -14.7347 -14.6430 -14.6265 -14.4578
   -14.2759 -14.2461 -14.1390 -14.1276 -13.9003 -13.8267 -13.6767 -13.6163
   -13.4142 -13.1015 -13.0854 -12.8323 -12.8116 -12.7580 -12.5491 -12.4616
   -12.3724 -12.1214 -12.0006 -11.9102 -11.8336 -11.8099 -11.4695 -11.4093
   -11.2524 -11.2521 -11.1171 -11.0794 -10.9827 -10.8801 -10.7181 -10.6605
   -10.6570 -10.4661 -10.4280 -10.2274 -10.0982  -9.9262  -9.9071  -9.8475
    -9.8375  -9.7693  -9.6240  -9.4589  -9.4316  -9.3867  -9.3751  -9.2532
    -9.2506  -9.2354  -9.1936  -9.1324  -9.0390  -8.9382  -8.9243  -8.8330
    -8.8058  -8.7916  -8.7640  -8.7620  -8.7056  -8.6467  -8.6425  -8.6041
    -8.5894  -8.5557  -8.5436  -8.4772  -8.3489  -8.2885  -8.2688  -8.1536
    -8.1173  -8.0916  -8.0088  -7.9472  -7.9004  -7.8660  -7.6951  -7.6676
    -7.6620  -7.6326  -7.5960  -7.5240  -7.4852  -7.4186  -7.3531  -7.3223
    -7.2415  -7.2367  -7.0692  -7.0532  -7.0411  -6.8693  -6.8534  -6.8185
    -6.7041  -6.6916  -6.6796  -6.6118  -6.4729  -6.3162  -6.2735  -6.2731
    -6.1695  -6.0420  -5.9832  -5.9778  -5.9450  -5.9264  -5.7979  -5.6066
    -5.5893  -5.5058  -5.2977  -5.2903  -5.1642  -5.1477  -4.9076  -4.8222
    -4.7083  -4.6147  -4.5031  -4.4396  -4.3959  -4.3849  -4.1211  -3.8860
    -3.5895  -3.5256  -3.1114  -3.0002  -1.4324  -1.3255  -1.1709  -0.9718
    -0.6342  -0.5758  -0.4055  -0.2811  -0.2381  -0.1382   0.0886   0.1138
     0.1629   0.1950   0.5360   0.6723   0.7582   0.8018   0.9009   0.9389
     0.9516   1.0391   1.1410   1.2195   1.2911   1.2961   1.3705   1.4407
     1.5591   1.5745   1.5968   1.6410   1.6588   1.7707   1.8252   1.9340
     1.9414   1.9470   2.0355   2.0833   2.2238   2.2474   2.2844   2.3271
     2.3306   2.3629   2.4329   2.4427   2.5891   2.6014   2.6162   2.6873
     2.7455   2.7656   2.7857   2.7912   2.8053   2.8266   2.8294   2.8431
     2.9354   2.9775   3.0579   3.0856   3.0965   3.1253   3.1290   3.1345
     3.1423   3.1535   3.1858   3.2168   3.2420   3.2489   3.2623   3.3987
     3.4996   3.5256   3.5325   3.5468   3.5597   3.5805   3.5923   3.6315
     3.6669   3.6762   3.7074   3.7282   3.7850   3.8589   3.9154   3.9552
     3.9559   3.9681   3.9858   3.9865   4.0309   4.0931   4.1548   4.1773
     4.1919   4.2446   4.2570   4.2799   4.3006   4.3358   4.3696   4.3781
     4.3852   4.3908   4.4484   4.4622   4.4671   4.4856   4.4884   4.5224
     4.5650   4.5748   4.5783   4.5878   4.6478   4.6704   4.6918   4.7177
     4.7564   4.7583   4.8531   4.8653   4.8695   4.9295   4.9498   4.9742
     4.9780   5.0252   5.0466   5.0742   5.0915   5.1174   5.1192   5.1539
     5.1837   5.2110   5.2297   5.2347   5.2906   5.3029   5.3121   5.3812
     5.3823   5.4349   5.4551   5.4607   5.4631   5.4804   5.5198   5.5294
     5.5351   5.6007   5.6283   5.6351   5.6439   5.6673   5.6867   5.6922
     5.7329   5.7359   5.7384   5.7533   5.7794   5.7881   5.7892   5.7893
     5.8162   5.8282   5.8321   5.8647   5.8857   5.9035   5.9166   5.9716
     6.0387   6.0394   6.0498   6.0560   6.0871   6.1116   6.1442   6.1487
     6.1497   6.1678   6.1970   6.2404   6.2430   6.2778   6.2823   6.3139
     6.3334   6.3581   6.3794   6.4044   6.4202   6.4270   6.4374   6.4651
     6.5121   6.5428   6.5519   6.5604   6.5641   6.5861   6.5882   6.5960
     6.6104   6.6150   6.6392   6.6479   6.6885   6.7111   6.7167   6.7293
     6.7439   6.7533   6.7587   6.8169   6.8230   6.8517   6.8547   6.8727
     6.9134   6.9283   6.9450   6.9537   6.9785   7.0030   7.0163   7.0519
     7.0769   7.0853   7.1066   7.1102   7.1448   7.1483   7.1568   7.1756
     7.1933   7.2144   7.2201   7.2299   7.3035   7.3051   7.3254   7.3430
     7.3467   7.3585   7.3670   7.3716   7.3817   7.3819   7.4199   7.4474
     7.4576   7.4708   7.4738   7.4819   7.5376   7.5639   7.5711   7.5983
     7.6217   7.6352   7.6654   7.6961   7.7308   7.7364   7.7461   7.7487
     7.7512   7.7680   7.7839   7.7891   7.8041   7.8799   7.8814   7.8915
     7.9103   7.9296   7.9360   7.9396   7.9714   8.0227   8.0665   8.0702
     8.1092   8.1134   8.1277   8.1380   8.1553   8.1710   8.1948   8.1997
     8.2099   8.2288   8.2431   8.2444   8.2646   8.2703   8.2848   8.2966
     8.3033   8.3122   8.3141   8.3805   8.4120   8.4495   8.4702   8.4854
     8.5103   8.5248   8.5334   8.5588

          k = 0.0000 0.0000 0.0023 (145321 PWs)   bands (ev):

   -21.3467 -21.1848 -21.0174 -20.7943 -20.6293 -20.5749 -20.2177 -20.1766
   -20.0717 -19.8287 -19.7829 -19.6948 -19.5537 -19.3431 -19.0712 -18.9279
   -18.8893 -18.5805 -18.5469 -18.3464 -18.3237 -18.1781 -18.0706 -17.8439
   -17.7014 -17.6425 -17.4794 -17.3253 -17.0973 -17.0117 -17.0073 -16.9044
   -16.7815 -16.6672 -16.6169 -16.4801 -16.2435 -16.2309 -15.9756 -15.7744
   -15.5273 -15.5132 -15.1018 -14.9070 -14.7353 -14.6470 -14.6232 -14.4581
   -14.2784 -14.2448 -14.1411 -14.1213 -13.9001 -13.8275 -13.6775 -13.6161
   -13.4174 -13.1051 -13.0849 -12.8346 -12.8340 -12.7302 -12.5527 -12.4583
   -12.3695 -12.1211 -12.0033 -11.9108 -11.8303 -11.8091 -11.4776 -11.4001
   -11.2534 -11.2525 -11.1202 -11.0858 -10.9755 -10.8842 -10.7185 -10.6613
   -10.6501 -10.4661 -10.4285 -10.2294 -10.0958  -9.9345  -9.8990  -9.8583
    -9.8461  -9.7488  -9.6244  -9.4594  -9.4312  -9.3845  -9.3767  -9.2531
    -9.2503  -9.2367  -9.1940  -9.1343  -9.0377  -8.9423  -8.9196  -8.8562
    -8.8103  -8.7925  -8.7654  -8.7379  -8.7045  -8.6468  -8.6420  -8.6002
    -8.5887  -8.5567  -8.5432  -8.4767  -8.3500  -8.2888  -8.2684  -8.1530
    -8.1222  -8.0861  -8.0098  -7.9492  -7.8986  -7.8649  -7.6950  -7.6671
    -7.6669  -7.6329  -7.5938  -7.5195  -7.4870  -7.4204  -7.3538  -7.3214
    -7.2434  -7.2352  -7.0721  -7.0540  -7.0401  -6.8697  -6.8526  -6.8159
    -6.7071  -6.6920  -6.6754  -6.6129  -6.4726  -6.3185  -6.2733  -6.2716
    -6.1723  -6.0420  -5.9803  -5.9799  -5.9438  -5.9230  -5.8023  -5.6074
    -5.5900  -5.5071  -5.2974  -5.2871  -5.1653  -5.1452  -4.9081  -4.8228
    -4.7079  -4.6149  -4.5026  -4.4393  -4.3966  -4.3844  -4.1208  -3.8872
    -3.5892  -3.5241  -3.1134  -3.0014  -1.4316  -1.3233  -1.1708  -0.9714
    -0.6339  -0.5759  -0.4056  -0.2859  -0.2344  -0.1375   0.0894   0.1128
     0.1617   0.1961   0.5321   0.6730   0.7587   0.8021   0.8956   0.9368
     0.9510   1.0391   1.1385   1.2180   1.2980   1.3031   1.3722   1.4391
     1.5519   1.5659   1.6090   1.6481   1.6583   1.7709   1.8256   1.9304
     1.9409   1.9476   2.0398   2.0841   2.2237   2.2480   2.2825   2.3271
     2.3289   2.3635   2.4357   2.4434   2.5858   2.6013   2.6142   2.6886
     2.7464   2.7559   2.7731   2.7922   2.8055   2.8225   2.8468   2.8470
     2.9291   2.9824   3.0534   3.0661   3.0871   3.1312   3.1322   3.1345
     3.1405   3.1544   3.1998   3.2175   3.2429   3.2568   3.2750   3.3959
     3.4833   3.5125   3.5267   3.5614   3.5640   3.5841   3.6031   3.6207
     3.6751   3.6776   3.7182   3.7300   3.7873   3.8572   3.9027   3.9528
     3.9556   3.9776   3.9805   3.9845   4.0310   4.0979   4.1518   4.1767
     4.1964   4.2410   4.2461   4.2701   4.3029   4.3081   4.3683   4.3792
     4.3956   4.4173   4.4530   4.4535   4.4544   4.4840   4.5072   4.5262
     4.5636   4.5767   4.5800   4.5922   4.6212   4.6794   4.6884   4.7469
     4.7579   4.7607   4.8460   4.8687   4.8736   4.9023   4.9565   4.9704
     4.9830   5.0460   5.0567   5.0697   5.0901   5.0905   5.1181   5.1511
     5.1804   5.2268   5.2347   5.2420   5.2954   5.2955   5.3066   5.3798
     5.3893   5.4158   5.4566   5.4586   5.4615   5.4769   5.5111   5.5286
     5.5380   5.5774   5.6182   5.6321   5.6397   5.6796   5.6962   5.7107
     5.7351   5.7437   5.7447   5.7497   5.7704   5.7721   5.7916   5.7974
     5.8051   5.8206   5.8398   5.8668   5.8851   5.9308   5.9313   5.9704
     6.0261   6.0279   6.0503   6.0523   6.1073   6.1116   6.1471   6.1488
     6.1495   6.1704   6.1968   6.2293   6.2408   6.2852   6.2953   6.3117
     6.3441   6.3566   6.3821   6.3940   6.4200   6.4271   6.4322   6.4639
     6.5207   6.5433   6.5506   6.5581   6.5586   6.5633   6.5810   6.5831
     6.6072   6.6250   6.6350   6.6443   6.7125   6.7192   6.7202   6.7308
     6.7406   6.7462   6.7512   6.8147   6.8160   6.8557   6.8608   6.8729
     6.9147   6.9177   6.9408   6.9670   6.9805   7.0087   7.0102   7.0408
     7.0809   7.0832   7.1063   7.1263   7.1336   7.1463   7.1649   7.1662
     7.1790   7.2184   7.2218   7.2250   7.3031   7.3075   7.3169   7.3477
     7.3545   7.3583   7.3626   7.3658   7.3925   7.3982   7.4276   7.4480
     7.4545   7.4645   7.4810   7.4857   7.5310   7.5483   7.5723   7.5989
     7.6492   7.6620   7.6696   7.6899   7.7316   7.7325   7.7329   7.7547
     7.7608   7.7771   7.7834   7.7961   7.8070   7.8775   7.8805   7.8840
     7.9060   7.9290   7.9354   7.9546   7.9551   8.0182   8.0397   8.0533
     8.0917   8.1123   8.1405   8.1506   8.1528   8.1620   8.1771   8.2027
     8.2120   8.2295   8.2591   8.2623   8.2636   8.2689   8.2845   8.3086
     8.3133   8.3197   8.3284   8.3531   8.4167   8.4595   8.4636   8.4925
     8.5152   8.5290   8.5323   8.5339

          k = 0.0000 0.0000 0.0035 (145321 PWs)   bands (ev):

   -21.3462 -21.1865 -21.0155 -20.7955 -20.6282 -20.5744 -20.2215 -20.1720
   -20.0745 -19.8339 -19.7805 -19.6890 -19.5548 -19.3436 -19.0703 -18.9325
   -18.8836 -18.5863 -18.5412 -18.3467 -18.3260 -18.1752 -18.0791 -17.8446
   -17.6948 -17.6419 -17.4776 -17.3248 -17.0988 -17.0138 -17.0060 -16.9029
   -16.7828 -16.6681 -16.6139 -16.4801 -16.2439 -16.2318 -15.9765 -15.7771
   -15.5351 -15.5133 -15.0888 -14.9056 -14.7365 -14.6518 -14.6195 -14.4586
   -14.2823 -14.2427 -14.1424 -14.1132 -13.8998 -13.8288 -13.6787 -13.6156
   -13.4227 -13.1113 -13.0843 -12.8549 -12.8369 -12.7018 -12.5583 -12.4532
   -12.3648 -12.1205 -12.0076 -11.9117 -11.8251 -11.8077 -11.4877 -11.3880
   -11.2549 -11.2531 -11.1258 -11.0944 -10.9652 -10.8906 -10.7183 -10.6626
   -10.6399 -10.4661 -10.4293 -10.2326 -10.0919  -9.9426  -9.8976  -9.8744
    -9.8439  -9.7273  -9.6247  -9.4602  -9.4306  -9.3810  -9.3794  -9.2529
    -9.2499  -9.2387  -9.1949  -9.1374  -9.0356  -8.9467  -8.9142  -8.8806
    -8.8173  -8.7938  -8.7677  -8.7120  -8.7028  -8.6469  -8.6411  -8.5940
    -8.5874  -8.5584  -8.5425  -8.4758  -8.3518  -8.2892  -8.2676  -8.1520
    -8.1281  -8.0793  -8.0113  -7.9525  -7.8956  -7.8630  -7.6949  -7.6740
    -7.6663  -7.6335  -7.5906  -7.5123  -7.4899  -7.4233  -7.3549  -7.3201
    -7.2457  -7.2337  -7.0766  -7.0555  -7.0386  -6.8702  -6.8513  -6.8118
    -6.7107  -6.6925  -6.6698  -6.6146  -6.4721  -6.3220  -6.2728  -6.2694
    -6.1767  -6.0421  -5.9838  -5.9747  -5.9418  -5.9179  -5.8094  -5.6087
    -5.5912  -5.5091  -5.2969  -5.2819  -5.1667  -5.1415  -4.9089  -4.8239
    -4.7074  -4.6153  -4.5019  -4.4387  -4.3977  -4.3836  -4.1202  -3.8891
    -3.5886  -3.5217  -3.1168  -3.0034  -1.4301  -1.3197  -1.1705  -0.9708
    -0.6335  -0.5760  -0.4057  -0.2924  -0.2297  -0.1364   0.0906   0.1112
     0.1597   0.1980   0.5259   0.6740   0.7594   0.8026   0.8846   0.9369
     0.9501   1.0391   1.1344   1.2156   1.3010   1.3217   1.3749   1.4361
     1.5419   1.5592   1.6219   1.6576   1.6581   1.7714   1.8264   1.9251
     1.9401   1.9486   2.0464   2.0856   2.2236   2.2490   2.2793   2.3218
     2.3319   2.3645   2.4400   2.4446   2.5805   2.6011   2.6111   2.6908
     2.7446   2.7479   2.7548   2.7989   2.8057   2.8164   2.8525   2.8641
     2.9192   2.9898   3.0431   3.0464   3.0765   3.1325   3.1349   3.1376
     3.1385   3.1563   3.2181   3.2188   3.2442   3.2686   3.2936   3.3920
     3.4660   3.4977   3.5181   3.5642   3.5826   3.5882   3.6070   3.6159
     3.6789   3.6885   3.7315   3.7330   3.7914   3.8540   3.8881   3.9491
     3.9551   3.9647   3.9825   3.9945   4.0311   4.1051   4.1467   4.1759
     4.1952   4.2357   4.2401   4.2566   4.2803   4.3051   4.3674   4.3817
     4.4064   4.4330   4.4457   4.4488   4.4594   4.4806   4.5290   4.5341
     4.5574   4.5703   4.5742   4.6039   4.6148   4.6824   4.6893   4.7604
     4.7642   4.7770   4.8371   4.8671   4.8716   4.8870   4.9645   4.9682
     4.9900   5.0449   5.0608   5.0617   5.0905   5.0911   5.1190   5.1465
     5.1755   5.2217   5.2350   5.2750   5.2762   5.3016   5.3121   5.3746
     5.3946   5.3963   5.4387   5.4615   5.4636   5.4717   5.4970   5.5287
     5.5459   5.5598   5.6042   5.6221   5.6469   5.6741   5.7012   5.7306
     5.7347   5.7495   5.7500   5.7535   5.7599   5.7611   5.7840   5.7970
     5.8076   5.8318   5.8509   5.8696   5.8825   5.9497   5.9583   5.9691
     6.0095   6.0193   6.0466   6.0559   6.1112   6.1273   6.1450   6.1510
     6.1515   6.1755   6.1968   6.2209   6.2412   6.2874   6.3099   6.3113
     6.3541   6.3598   6.3804   6.3868   6.4192   6.4258   6.4271   6.4616
     6.5182   6.5258   6.5436   6.5474   6.5489   6.5682   6.5730   6.5832
     6.5964   6.6340   6.6403   6.6416   6.7135   6.7233   6.7240   6.7312
     6.7453   6.7464   6.7488   6.8063   6.8125   6.8576   6.8690   6.8741
     6.9007   6.9148   6.9351   6.9813   6.9858   7.0051   7.0119   7.0332
     7.0758   7.0879   7.1105   7.1159   7.1431   7.1439   7.1590   7.1689
     7.1767   7.2121   7.2128   7.2265   7.3013   7.3020   7.3051   7.3565
     7.3582   7.3662   7.3692   7.3748   7.3944   7.4087   7.4339   7.4417
     7.4506   7.4723   7.4845   7.4935   7.5342   7.5361   7.5783   7.6053
     7.6678   7.6777   7.6850   7.6872   7.7204   7.7331   7.7336   7.7668
     7.7776   7.7815   7.7884   7.7899   7.8218   7.8598   7.8813   7.8891
     7.8977   7.9183   7.9308   7.9388   7.9781   8.0093   8.0180   8.0380
     8.0670   8.1073   8.1091   8.1445   8.1609   8.1743   8.1900   8.2011
     8.2117   8.2320   8.2617   8.2716   8.2749   8.2763   8.2841   8.3011
     8.3291   8.3345   8.3360   8.3595   8.4246   8.4473   8.4787   8.4905
     8.5034   8.5197   8.5217   8.5410

          k = 0.0000 0.0000 0.0046 (145311 PWs)   bands (ev):

   -21.3455 -21.1889 -21.0130 -20.7973 -20.6266 -20.5738 -20.2257 -20.1666
   -20.0785 -19.8403 -19.7774 -19.6815 -19.5563 -19.3444 -19.0691 -18.9374
   -18.8771 -18.5926 -18.5351 -18.3471 -18.3289 -18.1713 -18.0903 -17.8459
   -17.6861 -17.6409 -17.4750 -17.3242 -17.1007 -17.0168 -17.0041 -16.9006
   -16.7845 -16.6692 -16.6099 -16.4801 -16.2445 -16.2330 -15.9776 -15.7810
   -15.5449 -15.5135 -15.0717 -14.9036 -14.7380 -14.6570 -14.6159 -14.4593
   -14.2871 -14.2398 -14.1429 -14.1038 -13.8994 -13.8307 -13.6805 -13.6149
   -13.4300 -13.1204 -13.0834 -12.8718 -12.8407 -12.6731 -12.5654 -12.4466
   -12.3585 -12.1198 -12.0131 -11.9130 -11.8182 -11.8059 -11.4985 -11.3747
   -11.2571 -11.2540 -11.1343 -11.1034 -10.9532 -10.8987 -10.7171 -10.6644
   -10.6276 -10.4662 -10.4301 -10.2369 -10.0866  -9.9506  -9.9158  -9.8711
    -9.8408  -9.7074  -9.6238  -9.4612  -9.4298  -9.3829  -9.3764  -9.2525
    -9.2496  -9.2415  -9.1962  -9.1415  -9.0327  -8.9511  -8.9086  -8.9046
    -8.8263  -8.7957  -8.7707  -8.7007  -8.6861  -8.6470  -8.6399  -8.5858
    -8.5857  -8.5605  -8.5415  -8.4744  -8.3543  -8.2898  -8.2665  -8.1507
    -8.1341  -8.0720  -8.0132  -7.9571  -7.8917  -7.8603  -7.6947  -7.6826
    -7.6652  -7.6343  -7.5869  -7.5029  -7.4938  -7.4273  -7.3565  -7.3185
    -7.2482  -7.2322  -7.0825  -7.0575  -7.0367  -6.8710  -6.8494  -6.8062
    -6.7144  -6.6933  -6.6635  -6.6169  -6.4714  -6.3264  -6.2722  -6.2667
    -6.1824  -6.0421  -5.9879  -5.9678  -5.9390  -5.9116  -5.8189  -5.6105
    -5.5928  -5.5120  -5.2961  -5.2750  -5.1681  -5.1369  -4.9101  -4.8253
    -4.7066  -4.6158  -4.5009  -4.4380  -4.3990  -4.3828  -4.1193  -3.8918
    -3.5878  -3.5184  -3.1213  -3.0062  -1.4282  -1.3148  -1.1699  -0.9700
    -0.6329  -0.5763  -0.4059  -0.2998  -0.2248  -0.1346   0.0923   0.1089
     0.1568   0.2006   0.5175   0.6749   0.7603   0.8032   0.8684   0.9405
     0.9489   1.0390   1.1291   1.2125   1.3048   1.3452   1.3785   1.4319
     1.5303   1.5546   1.6351   1.6565   1.6696   1.7722   1.8274   1.9187
     1.9391   1.9497   2.0547   2.0876   2.2237   2.2504   2.2750   2.3151
     2.3360   2.3658   2.4454   2.4461   2.5735   2.6007   2.6068   2.6935
     2.7322   2.7366   2.7499   2.8057   2.8058   2.8089   2.8587   2.8808
     2.9062   2.9990   3.0189   3.0373   3.0657   3.1337   3.1342   3.1363
     3.1432   3.1593   3.2206   3.2378   3.2454   3.2834   3.3156   3.3882
     3.4487   3.4833   3.5081   3.5681   3.5922   3.5923   3.6017   3.6292
     3.6794   3.7061   3.7370   3.7452   3.7978   3.8491   3.8731   3.9445
     3.9498   3.9548   3.9803   4.0084   4.0310   4.1135   4.1386   4.1747
     4.1834   4.2299   4.2405   4.2460   4.2527   4.3072   4.3677   4.3854
     4.4144   4.4153   4.4444   4.4620   4.4705   4.4753   4.5404   4.5509
     4.5527   4.5592   4.5698   4.6050   4.6393   4.6736   4.6989   4.7637
     4.7681   4.8068   4.8285   4.8411   4.8645   4.9049   4.9660   4.9712
     4.9930   5.0391   5.0429   5.0513   5.0941   5.1203   5.1248   5.1404
     5.1701   5.2136   5.2355   5.2547   5.3055   5.3113   5.3188   5.3579
     5.3825   5.3967   5.4216   5.4588   5.4647   5.4651   5.4845   5.5295
     5.5391   5.5612   5.5882   5.6152   5.6562   5.6662   5.7019   5.7242
     5.7303   5.7328   5.7361   5.7519   5.7685   5.7739   5.7876   5.8044
     5.8264   5.8495   5.8571   5.8732   5.8789   5.9678   5.9685   5.9841
     5.9936   6.0131   6.0480   6.0607   6.1100   6.1348   6.1477   6.1535
     6.1571   6.1836   6.1970   6.2181   6.2409   6.2878   6.3098   6.3248
     6.3506   6.3645   6.3800   6.3934   6.4163   6.4185   6.4266   6.4578
     6.4788   6.5250   6.5293   6.5419   6.5486   6.5627   6.5685   6.5850
     6.5985   6.6348   6.6365   6.6593   6.7069   6.7196   6.7202   6.7245
     6.7441   6.7590   6.7637   6.7959   6.8111   6.8548   6.8773   6.8782
     6.8786   6.9119   6.9288   6.9788   7.0040   7.0072   7.0079   7.0324
     7.0691   7.0832   7.1067   7.1204   7.1363   7.1431   7.1590   7.1763
     7.1918   7.1998   7.2060   7.2209   7.2881   7.2964   7.3029   7.3546
     7.3674   7.3757   7.3776   7.3884   7.3922   7.4002   7.4468   7.4557
     7.4617   7.4668   7.4864   7.5072   7.5264   7.5430   7.5974   7.6150
     7.6572   7.6721   7.6943   7.7120   7.7311   7.7323   7.7389   7.7784
     7.7806   7.7885   7.8000   7.8005   7.8294   7.8401   7.8818   7.8882
     7.8977   7.9036   7.9081   7.9401   7.9803   7.9997   8.0181   8.0285
     8.0423   8.0785   8.0971   8.1371   8.1493   8.1914   8.1924   8.2103
     8.2139   8.2316   8.2587   8.2808   8.2809   8.2840   8.2862   8.3008
     8.3340   8.3409   8.3588   8.3894   8.4361   8.4381   8.4604   8.4944
     8.5121   8.5129   8.5183   8.5246

          k = 0.0000 0.0000 0.0058 (145299 PWs)   bands (ev):

   -21.3446 -21.1918 -21.0098 -20.7995 -20.6247 -20.5730 -20.2302 -20.1607
   -20.0834 -19.8476 -19.7738 -19.6726 -19.5583 -19.3455 -19.0676 -18.9424
   -18.8702 -18.5990 -18.5289 -18.3477 -18.3324 -18.1665 -18.1036 -17.8481
   -17.6756 -17.6398 -17.4718 -17.3233 -17.1032 -17.0206 -17.0018 -16.8977
   -16.7866 -16.6703 -16.6052 -16.4800 -16.2452 -16.2346 -15.9791 -15.7864
   -15.5555 -15.5138 -15.0515 -14.9010 -14.7399 -14.6624 -14.6125 -14.4602
   -14.2923 -14.2361 -14.1427 -14.0934 -13.8989 -13.8331 -13.6828 -13.6140
   -13.4394 -13.1325 -13.0822 -12.8849 -12.8455 -12.6445 -12.5735 -12.4388
   -12.3510 -12.1188 -12.0195 -11.9146 -11.8101 -11.8037 -11.5093 -11.3607
   -11.2597 -11.2552 -11.1457 -11.1121 -10.9401 -10.9082 -10.7146 -10.6665
   -10.6140 -10.4666 -10.4307 -10.2421 -10.0802  -9.9588  -9.9398  -9.8614
    -9.8369  -9.6914  -9.6200  -9.4625  -9.4287  -9.3873  -9.3708  -9.2518
    -9.2497  -9.2450  -9.1983  -9.1462  -9.0291  -8.9556  -8.9272  -8.9031
    -8.8367  -8.7981  -8.7742  -8.6983  -8.6613  -8.6471  -8.6385  -8.5835
    -8.5762  -8.5630  -8.5402  -8.4723  -8.3572  -8.2906  -8.2652  -8.1493
    -8.1401  -8.0644  -8.0154  -7.9628  -7.8870  -7.8570  -7.6945  -7.6921
    -7.6637  -7.6353  -7.5829  -7.4986  -7.4919  -7.4325  -7.3584  -7.3166
    -7.2508  -7.2308  -7.0894  -7.0601  -7.0344  -6.8719  -6.8471  -6.7994
    -6.7178  -6.6942  -6.6566  -6.6199  -6.4707  -6.3316  -6.2715  -6.2638
    -6.1891  -6.0421  -5.9923  -5.9595  -5.9354  -5.9044  -5.8306  -5.6128
    -5.5949  -5.5157  -5.2951  -5.2667  -5.1692  -5.1316  -4.9115  -4.8271
    -4.7055  -4.6165  -4.4996  -4.4369  -4.4004  -4.3819  -4.1182  -3.8951
    -3.5867  -3.5143  -3.1270  -3.0097  -1.4257  -1.3089  -1.1690  -0.9689
    -0.6322  -0.5766  -0.4061  -0.3077  -0.2203  -0.1321   0.0945   0.1059
     0.1532   0.2039   0.5071   0.6754   0.7616   0.8041   0.8492   0.9468
     0.9473   1.0389   1.1227   1.2089   1.3092   1.3723   1.3828   1.4263
     1.5177   1.5524   1.6485   1.6551   1.6819   1.7734   1.8289   1.9119
     1.9378   1.9510   2.0640   2.0902   2.2239   2.2522   2.2696   2.3073
     2.3410   2.3676   2.4480   2.4515   2.5650   2.6002   2.6014   2.6962
     2.7192   2.7193   2.7523   2.8006   2.8055   2.8127   2.8650   2.8911
     2.8969   2.9948   3.0094   3.0269   3.0551   3.1290   3.1374   3.1388
     3.1459   3.1634   3.2229   3.2456   3.2577   3.3003   3.3390   3.3857
     3.4319   3.4703   3.4980   3.5732   3.5770   3.5961   3.6208   3.6428
     3.6788   3.7264   3.7418   3.7575   3.8073   3.8418   3.8587   3.9348
     3.9393   3.9547   3.9782   4.0214   4.0307   4.1218   4.1260   4.1686
     4.1733   4.2234   4.2253   4.2257   4.2571   4.3094   4.3694   4.3889
     4.3965   4.4191   4.4407   4.4552   4.4730   4.4958   4.5191   4.5512
     4.5711   4.5730   4.5775   4.6127   4.6619   4.6631   4.7080   4.7676
     4.7722   4.8132   4.8211   4.8356   4.8608   4.9260   4.9634   4.9745
     4.9785   5.0396   5.0397   5.0404   5.0996   5.1220   5.1331   5.1539
     5.1697   5.2002   5.2362   5.2384   5.2995   5.3260   5.3390   5.3464
     5.3681   5.3957   5.4158   5.4415   5.4579   5.4648   5.4829   5.5217
     5.5300   5.5711   5.5734   5.6116   5.6565   5.6671   5.6979   5.7002
     5.7054   5.7247   5.7373   5.7466   5.7803   5.7830   5.8031   5.8135
     5.8425   5.8506   5.8663   5.8821   5.8900   5.9613   5.9860   5.9889
     6.0057   6.0070   6.0580   6.0664   6.1077   6.1249   6.1571   6.1627
     6.1636   6.1951   6.1978   6.2190   6.2388   6.2872   6.3116   6.3356
     6.3463   6.3522   6.3974   6.4014   6.4045   6.4121   6.4250   6.4483
     6.4522   6.5050   6.5203   6.5379   6.5498   6.5550   6.5667   6.5764
     6.6196   6.6274   6.6404   6.6771   6.6956   6.7109   6.7219   6.7228
     6.7429   6.7723   6.7729   6.7862   6.8102   6.8474   6.8531   6.8814
     6.8874   6.9054   6.9236   6.9756   6.9968   7.0051   7.0283   7.0352
     7.0607   7.0739   7.1052   7.1137   7.1256   7.1531   7.1730   7.1835
     7.1862   7.2031   7.2096   7.2099   7.2771   7.2866   7.3029   7.3497
     7.3674   7.3748   7.3871   7.3907   7.3935   7.4270   7.4448   7.4524
     7.4671   7.4970   7.4991   7.5183   7.5340   7.5413   7.6254   7.6270
     7.6408   7.6630   7.6901   7.7297   7.7386   7.7470   7.7553   7.7738
     7.7897   7.7942   7.8095   7.8230   7.8258   7.8263   7.8805   7.8810
     7.8879   7.8903   7.9118   7.9394   7.9550   8.0018   8.0056   8.0336
     8.0412   8.0497   8.0816   8.1282   8.1431   8.1806   8.2038   8.2076
     8.2248   8.2281   8.2547   8.2844   8.2846   8.2853   8.2996   8.3156
     8.3409   8.3476   8.3831   8.4157   8.4306   8.4368   8.4510   8.4971
     8.5000   8.5009   8.5075   8.5180

          k = 0.0000 0.0000 0.0070 (145299 PWs)   bands (ev):

   -21.3435 -21.1952 -21.0061 -20.8022 -20.6223 -20.5720 -20.2346 -20.1544
   -20.0893 -19.8554 -19.7698 -19.6627 -19.5606 -19.3468 -19.0658 -18.9473
   -18.8630 -18.6055 -18.5227 -18.3484 -18.3363 -18.1609 -18.1185 -17.8510
   -17.6638 -17.6383 -17.4678 -17.3221 -17.1063 -17.0251 -16.9991 -16.8943
   -16.7892 -16.6716 -16.5998 -16.4800 -16.2461 -16.2366 -15.9808 -15.7934
   -15.5661 -15.5141 -15.0287 -14.8979 -14.7421 -14.6679 -14.6095 -14.4614
   -14.2976 -14.2318 -14.1420 -14.0822 -13.8982 -13.8361 -13.6855 -13.6129
   -13.4507 -13.1477 -13.0807 -12.8941 -12.8511 -12.6163 -12.5823 -12.4302
   -12.3424 -12.1177 -12.0265 -11.9163 -11.8011 -11.8009 -11.5197 -11.3465
   -11.2626 -11.2565 -11.1595 -11.1204 -10.9264 -10.9184 -10.7108 -10.6690
   -10.5999 -10.4672 -10.4308 -10.2480 -10.0727  -9.9711  -9.9604  -9.8504
    -9.8323  -9.6814  -9.6112  -9.4641  -9.4274  -9.3922  -9.3645  -9.2507
    -9.2504  -9.2490  -9.2013  -9.1514  -9.0249  -8.9601  -8.9481  -8.8980
    -8.8479  -8.8009  -8.7780  -8.6958  -8.6477  -8.6378  -8.6369  -8.5809
    -8.5657  -8.5654  -8.5387  -8.4691  -8.3604  -8.2915  -8.2637  -8.1477
    -8.1460  -8.0565  -8.0174  -7.9696  -7.8816  -7.8531  -7.7021  -7.6942
    -7.6620  -7.6366  -7.5785  -7.5042  -7.4797  -7.4387  -7.3608  -7.3145
    -7.2537  -7.2295  -7.0972  -7.0632  -7.0318  -6.8731  -6.8442  -6.7916
    -6.7210  -6.6951  -6.6493  -6.6233  -6.4701  -6.3372  -6.2707  -6.2608
    -6.1965  -6.0421  -5.9967  -5.9502  -5.9310  -5.8966  -5.8441  -5.6157
    -5.5974  -5.5203  -5.2940  -5.2573  -5.1700  -5.1255  -4.9133  -4.8294
    -4.7043  -4.6174  -4.4981  -4.4357  -4.4020  -4.3810  -4.1168  -3.8991
    -3.5854  -3.5095  -3.1338  -3.0140  -1.4227  -1.3022  -1.1676  -0.9677
    -0.6313  -0.5771  -0.4064  -0.3158  -0.2164  -0.1288   0.0972   0.1022
     0.1488   0.2078   0.4951   0.6749   0.7631   0.8051   0.8293   0.9453
     0.9551   1.0387   1.1156   1.2049   1.3140   1.3876   1.4016   1.4194
     1.5046   1.5526   1.6533   1.6617   1.6946   1.7751   1.8307   1.9050
     1.9363   1.9521   2.0741   2.0935   2.2244   2.2542   2.2636   2.2988
     2.3468   2.3697   2.4502   2.4578   2.5554   2.5952   2.5994   2.6927
     2.7056   2.7091   2.7549   2.7919   2.8046   2.8197   2.8710   2.8746
     2.9118   2.9714   3.0160   3.0199   3.0451   3.1239   3.1420   3.1426
     3.1465   3.1686   3.2256   3.2442   3.2767   3.3188   3.3616   3.3857
     3.4155   3.4593   3.4901   3.5618   3.5795   3.5995   3.6394   3.6570
     3.6770   3.7465   3.7476   3.7678   3.8201   3.8319   3.8459   3.9207
     3.9339   3.9550   3.9763   4.0299   4.0327   4.1086   4.1280   4.1558
     4.1710   4.1996   4.2073   4.2238   4.2680   4.3118   4.3722   4.3780
     4.3880   4.4219   4.4373   4.4457   4.4726   4.4924   4.5208   4.5565
     4.5744   4.5964   4.6020   4.6226   4.6482   4.6813   4.7170   4.7719
     4.7766   4.7925   4.8154   4.8559   4.8620   4.9489   4.9547   4.9601
     4.9734   5.0300   5.0345   5.0552   5.1078   5.1242   5.1256   5.1543
     5.1806   5.1981   5.2281   5.2358   5.2773   5.3299   5.3333   5.3524
     5.3811   5.3909   5.4192   5.4198   5.4504   5.4645   5.4843   5.5036
     5.5292   5.5535   5.5857   5.6111   5.6445   5.6705   5.6775   5.6799
     5.6974   5.7177   5.7355   5.7437   5.7867   5.7968   5.8210   5.8238
     5.8354   5.8499   5.8670   5.8905   5.9273   5.9515   5.9963   5.9986
     6.0007   6.0260   6.0723   6.0725   6.1048   6.1171   6.1619   6.1702
     6.1751   6.1993   6.2093   6.2210   6.2346   6.2870   6.3131   6.3414
     6.3435   6.3440   6.3744   6.3987   6.4088   6.4197   6.4215   6.4365
     6.4462   6.4780   6.5141   6.5334   6.5490   6.5495   6.5638   6.5740
     6.6178   6.6408   6.6442   6.6860   6.6942   6.7078   6.7180   6.7243
     6.7443   6.7732   6.7784   6.7865   6.8086   6.8262   6.8371   6.8848
     6.8957   6.8968   6.9221   6.9739   6.9811   7.0011   7.0368   7.0427
     7.0517   7.0745   7.0966   7.1035   7.1227   7.1669   7.1738   7.1848
     7.1896   7.1996   7.2031   7.2312   7.2707   7.2746   7.3017   7.3429
     7.3585   7.3724   7.3963   7.3994   7.4075   7.4406   7.4463   7.4547
     7.4780   7.5094   7.5200   7.5350   7.5401   7.5597   7.6222   7.6403
     7.6519   7.6540   7.6890   7.7246   7.7561   7.7611   7.7648   7.7746
     7.7877   7.8038   7.8045   7.8173   7.8214   7.8546   7.8717   7.8767
     7.8784   7.8810   7.9329   7.9370   7.9371   7.9842   7.9975   8.0240
     8.0398   8.0411   8.0824   8.1186   8.1421   8.1706   8.2036   8.2118
     8.2135   8.2336   8.2493   8.2850   8.2883   8.2883   8.3156   8.3309
     8.3348   8.3672   8.3920   8.4163   8.4312   8.4391   8.4691   8.4788
     8.4809   8.4892   8.5030   8.5321

          k = 0.0000 0.0000 0.0081 (145269 PWs)   bands (ev):

   -21.3422 -21.1991 -21.0019 -20.8052 -20.6197 -20.5710 -20.2389 -20.1479
   -20.0959 -19.8635 -19.7653 -19.6521 -19.5634 -19.3484 -19.0637 -18.9520
   -18.8555 -18.6119 -18.5165 -18.3492 -18.3405 -18.1548 -18.1347 -17.8549
   -17.6512 -17.6367 -17.4631 -17.3206 -17.1098 -17.0303 -16.9959 -16.8901
   -16.7922 -16.6728 -16.5939 -16.4800 -16.2472 -16.2388 -15.9827 -15.8022
   -15.5759 -15.5146 -15.0042 -14.8942 -14.7445 -14.6735 -14.6069 -14.4629
   -14.3026 -14.2267 -14.1408 -14.0704 -13.8975 -13.8396 -13.6888 -13.6114
   -13.4639 -13.1655 -13.0789 -12.8996 -12.8574 -12.5917 -12.5888 -12.4207
   -12.3330 -12.1164 -12.0337 -11.9181 -11.7983 -11.7910 -11.5295 -11.3324
   -11.2658 -11.2581 -11.1749 -11.1288 -10.9288 -10.9125 -10.7060 -10.6717
   -10.5862 -10.4681 -10.4301 -10.2546 -10.0643  -9.9942  -9.9701  -9.8389
    -9.8269  -9.6775  -9.5973  -9.4660  -9.4258  -9.3977  -9.3576  -9.2536
    -9.2522  -9.2490  -9.2053  -9.1567  -9.0202  -8.9668  -8.9649  -8.8940
    -8.8594  -8.8042  -8.7818  -8.6932  -8.6479  -8.6352  -8.6179  -8.5780
    -8.5679  -8.5539  -8.5369  -8.4645  -8.3638  -8.2924  -8.2619  -8.1516
    -8.1462  -8.0485  -8.0193  -7.9773  -7.8757  -7.8486  -7.7125  -7.6938
    -7.6601  -7.6382  -7.5738  -7.5106  -7.4665  -7.4461  -7.3636  -7.3124
    -7.2568  -7.2283  -7.1054  -7.0670  -7.0288  -6.8745  -6.8409  -6.7831
    -6.7238  -6.6960  -6.6416  -6.6271  -6.4696  -6.3433  -6.2699  -6.2578
    -6.2043  -6.0422  -6.0010  -5.9400  -5.9260  -5.8883  -5.8592  -5.6190
    -5.6004  -5.5257  -5.2926  -5.2473  -5.1703  -5.1189  -4.9154  -4.8320
    -4.7028  -4.6183  -4.4963  -4.4343  -4.4037  -4.3801  -4.1151  -3.9036
    -3.5839  -3.5041  -3.1414  -3.0189  -1.4192  -1.2950  -1.1655  -0.9663
    -0.6302  -0.5776  -0.4067  -0.3240  -0.2132  -0.1247   0.0976   0.1004
     0.1438   0.2124   0.4817   0.6726   0.7648   0.8063   0.8106   0.9430
     0.9648   1.0384   1.1078   1.2009   1.3188   1.3927   1.4116   1.4324
     1.4911   1.5550   1.6512   1.6745   1.7073   1.7774   1.8330   1.8986
     1.9347   1.9529   2.0847   2.0975   2.2252   2.2540   2.2595   2.2899
     2.3533   2.3722   2.4526   2.4641   2.5449   2.5883   2.5982   2.6773
     2.6916   2.7116   2.7573   2.7832   2.8028   2.8264   2.8578   2.8761
     2.9253   2.9495   3.0050   3.0295   3.0359   3.1191   3.1452   3.1477
     3.1481   3.1750   3.2287   3.2404   3.2936   3.3384   3.3809   3.3889
     3.3999   3.4508   3.4872   3.5469   3.5870   3.6025   3.6569   3.6712
     3.6742   3.7509   3.7671   3.7761   3.8201   3.8358   3.8371   3.9081
     3.9288   3.9555   3.9752   4.0283   4.0413   4.0885   4.1306   4.1450
     4.1658   4.1750   4.1958   4.2268   4.2757   4.3145   4.3600   4.3762
     4.3772   4.4239   4.4341   4.4442   4.4678   4.4717   4.5453   4.5623
     4.5811   4.6180   4.6219   4.6345   4.6401   4.6846   4.7260   4.7760
     4.7816   4.7882   4.8111   4.8499   4.8800   4.9375   4.9560   4.9688
     4.9717   5.0202   5.0268   5.0764   5.1183   5.1195   5.1271   5.1491
     5.1574   5.2218   5.2278   5.2320   5.2556   5.3188   5.3400   5.3426
     5.3767   5.4032   5.4143   5.4290   5.4433   5.4631   5.4853   5.4855
     5.5264   5.5355   5.5974   5.6126   5.6297   5.6444   5.6512   5.6926
     5.6948   5.7085   5.7317   5.7429   5.7947   5.8082   5.8145   5.8391
     5.8397   5.8523   5.8628   5.9000   5.9427   5.9678   5.9865   6.0117
     6.0180   6.0403   6.0769   6.0789   6.1032   6.1223   6.1670   6.1761
     6.1853   6.2016   6.2212   6.2251   6.2294   6.2882   6.3117   6.3363
     6.3366   6.3410   6.3508   6.3907   6.4056   6.4229   6.4316   6.4338
     6.4428   6.4514   6.5093   6.5293   6.5440   6.5469   6.5598   6.5794
     6.6059   6.6467   6.6579   6.6791   6.7054   6.7099   6.7160   6.7267
     6.7507   6.7654   6.7732   6.7944   6.8007   6.8051   6.8313   6.8812
     6.8935   6.9022   6.9263   6.9630   6.9731   6.9889   7.0352   7.0396
     7.0440   7.0833   7.0940   7.1038   7.1175   7.1545   7.1674   7.1950
     7.1966   7.2021   7.2075   7.2553   7.2675   7.2697   7.2967   7.3342
     7.3479   7.3781   7.4037   7.4065   7.4247   7.4349   7.4533   7.4828
     7.4892   7.5207   7.5221   7.5271   7.5810   7.5895   7.6044   7.6473
     7.6540   7.6718   7.6927   7.7157   7.7528   7.7541   7.7711   7.7796
     7.7830   7.8064   7.8101   7.8186   7.8206   7.8557   7.8669   7.8749
     7.8828   7.8929   7.9311   7.9335   7.9606   7.9643   7.9932   8.0027
     8.0153   8.0504   8.1021   8.1137   8.1455   8.1637   8.1985   8.2013
     8.2162   8.2331   8.2427   8.2857   8.2928   8.2934   8.2940   8.3446
     8.3575   8.3661   8.3865   8.4104   8.4356   8.4572   8.4607   8.4780
     8.4897   8.4947   8.4996   8.5427

          k = 0.0000 0.0000 0.0093 (145269 PWs)   bands (ev):

   -21.3407 -21.2032 -20.9972 -20.8086 -20.6168 -20.5698 -20.2430 -20.1412
   -20.1031 -19.8719 -19.7605 -19.6408 -19.5665 -19.3503 -19.0613 -18.9565
   -18.8479 -18.6184 -18.5105 -18.3501 -18.3449 -18.1517 -18.1480 -17.8595
   -17.6383 -17.6348 -17.4575 -17.3186 -17.1139 -17.0363 -16.9922 -16.8854
   -16.7955 -16.6741 -16.5875 -16.4799 -16.2485 -16.2413 -15.9849 -15.8127
   -15.5843 -15.5152 -14.9786 -14.8901 -14.7470 -14.6791 -14.6048 -14.4647
   -14.3068 -14.2211 -14.1392 -14.0582 -13.8966 -13.8437 -13.6925 -13.6096
   -13.4789 -13.1854 -13.0767 -12.9018 -12.8642 -12.6014 -12.5622 -12.4106
   -12.3232 -12.1150 -12.0408 -11.9199 -11.7953 -11.7806 -11.5387 -11.3186
   -11.2692 -11.2599 -11.1915 -11.1374 -10.9389 -10.8984 -10.7002 -10.6748
   -10.5735 -10.4695 -10.4278 -10.2616 -10.0550 -10.0195  -9.9774  -9.8272
    -9.8210  -9.6778  -9.5802  -9.4684  -9.4240  -9.4036  -9.3502  -9.2585
    -9.2554  -9.2469  -9.2102  -9.1617  -9.0150  -8.9830  -8.9698  -8.8924
    -8.8697  -8.8079  -8.7852  -8.6905  -8.6483  -8.6334  -8.6028  -8.5748
    -8.5687  -8.5417  -8.5350  -8.4578  -8.3672  -8.2935  -8.2600  -8.1568
    -8.1448  -8.0403  -8.0207  -7.9859  -7.8693  -7.8435  -7.7229  -7.6933
    -7.6579  -7.6400  -7.5689  -7.5174  -7.4546  -7.4527  -7.3668  -7.3105
    -7.2600  -7.2271  -7.1141  -7.0713  -7.0254  -6.8762  -6.8371  -6.7741
    -6.7263  -6.6968  -6.6337  -6.6314  -6.4694  -6.3498  -6.2691  -6.2547
    -6.2123  -6.0422  -6.0051  -5.9292  -5.9202  -5.8796  -5.8755  -5.6228
    -5.6038  -5.5319  -5.2911  -5.2374  -5.1696  -5.1116  -4.9179  -4.8351
    -4.7012  -4.6194  -4.4944  -4.4326  -4.4054  -4.3794  -4.1132  -3.9087
    -3.5820  -3.4983  -3.1497  -3.0246  -1.4152  -1.2878  -1.1624  -0.9648
    -0.6291  -0.5782  -0.4070  -0.3320  -0.2107  -0.1199   0.0922   0.1040
     0.1382   0.2176   0.4671   0.6673   0.7668   0.7947   0.8076   0.9404
     0.9758   1.0380   1.0997   1.1969   1.3235   1.3980   1.4032   1.4638
     1.4774   1.5594   1.6488   1.6865   1.7200   1.7804   1.8358   1.8930
     1.9331   1.9533   2.0955   2.1022   2.2265   2.2474   2.2616   2.2808
     2.3603   2.3750   2.4552   2.4702   2.5336   2.5809   2.5967   2.6596
     2.6775   2.7175   2.7588   2.7749   2.7996   2.8326   2.8418   2.8802
     2.9295   2.9364   2.9948   3.0280   3.0370   3.1158   3.1425   3.1540
     3.1553   3.1825   3.2320   3.2344   3.3067   3.3587   3.3852   3.3951
     3.3953   3.4450   3.4922   3.5324   3.5957   3.6053   3.6706   3.6721
     3.6845   3.7545   3.7797   3.7830   3.8079   3.8375   3.8534   3.8965
     3.9242   3.9560   3.9753   4.0252   4.0463   4.0680   4.1294   4.1349
     4.1527   4.1557   4.1923   4.2342   4.2784   4.3175   4.3428   4.3584
     4.3811   4.4203   4.4310   4.4500   4.4528   4.4713   4.5664   4.5689
     4.5910   4.6055   4.6427   4.6524   4.6570   4.6702   4.7351   4.7792
     4.7875   4.8033   4.8079   4.8436   4.8757   4.9439   4.9511   4.9623
     4.9917   5.0096   5.0161   5.0996   5.1167   5.1304   5.1316   5.1335
     5.1442   5.2042   5.2175   5.2497   5.2652   5.3018   5.3389   5.3459
     5.3535   5.3957   5.4371   5.4407   5.4443   5.4601   5.4685   5.4856
     5.5173   5.5215   5.6048   5.6144   5.6157   5.6187   5.6290   5.6933
     5.6974   5.7061   5.7272   5.7436   5.7920   5.8028   5.8203   5.8513
     5.8536   5.8569   5.8585   5.9094   5.9433   5.9781   5.9980   6.0181
     6.0441   6.0495   6.0731   6.0787   6.1059   6.1422   6.1706   6.1815
     6.1943   6.2034   6.2203   6.2253   6.2389   6.2902   6.2983   6.3077
     6.3328   6.3431   6.3567   6.3829   6.3921   6.4265   6.4272   6.4332
     6.4362   6.4459   6.5099   6.5257   6.5397   6.5438   6.5552   6.5905
     6.5919   6.6474   6.6669   6.6746   6.6992   6.7119   6.7293   6.7352
     6.7491   6.7629   6.7708   6.7804   6.7847   6.7991   6.8419   6.8704
     6.8962   6.9083   6.9355   6.9444   6.9717   6.9724   7.0247   7.0305
     7.0405   7.0816   7.0952   7.1117   7.1119   7.1481   7.1524   7.1965
     7.2045   7.2099   7.2186   7.2704   7.2711   7.2814   7.2877   7.3242
     7.3404   7.3886   7.4089   7.4147   7.4295   7.4465   7.4664   7.4999
     7.5110   7.5137   7.5255   7.5325   7.5908   7.6093   7.6193   7.6541
     7.6671   7.6843   7.6988   7.7019   7.7367   7.7392   7.7589   7.7756
     7.7901   7.8124   7.8162   7.8173   7.8267   7.8460   7.8555   7.8849
     7.9043   7.9113   7.9304   7.9398   7.9468   7.9663   7.9823   7.9971
     8.0115   8.0625   8.0940   8.1323   8.1515   8.1639   8.1907   8.1930
     8.2180   8.2224   8.2350   8.2694   8.2863   8.2970   8.3008   8.3392
     8.3552   8.3732   8.3984   8.4007   8.4445   8.4546   8.4680   8.4722
     8.4977   8.5117   8.5188   8.5445

          k = 0.0000 0.0000 0.0105 (145259 PWs)   bands (ev):

   -21.3391 -21.2077 -20.9923 -20.8123 -20.6137 -20.5685 -20.2468 -20.1343
   -20.1110 -19.8804 -19.7554 -19.6292 -19.5699 -19.3526 -19.0587 -18.9607
   -18.8402 -18.6247 -18.5045 -18.3511 -18.3493 -18.1693 -18.1409 -17.8649
   -17.6326 -17.6256 -17.4510 -17.3161 -17.1184 -17.0429 -16.9882 -16.8801
   -16.7992 -16.6754 -16.5809 -16.4799 -16.2500 -16.2441 -15.9873 -15.8249
   -15.5912 -15.5159 -14.9523 -14.8854 -14.7496 -14.6847 -14.6033 -14.4667
   -14.3099 -14.2150 -14.1374 -14.0456 -13.8956 -13.8485 -13.6967 -13.6075
   -13.4956 -13.2065 -13.0743 -12.9014 -12.8715 -12.6114 -12.5367 -12.4000
   -12.3132 -12.1137 -12.0477 -11.9214 -11.7923 -11.7699 -11.5471 -11.3056
   -11.2724 -11.2618 -11.2090 -11.1465 -10.9484 -10.8842 -10.6936 -10.6781
   -10.5625 -10.4712 -10.4234 -10.2690 -10.0451 -10.0449  -9.9842  -9.8154
    -9.8145  -9.6801  -9.5621  -9.4713  -9.4220  -9.4097  -9.3426  -9.2639
    -9.2602  -9.2445  -9.2156  -9.1662  -9.0094  -8.9964  -8.9750  -8.8967
    -8.8756  -8.8119  -8.7880  -8.6877  -8.6489  -8.6315  -8.5951  -8.5713
    -8.5662  -8.5329  -8.5293  -8.4486  -8.3706  -8.2945  -8.2580  -8.1618
    -8.1435  -8.0320  -8.0214  -7.9952  -7.8626  -7.8381  -7.7334  -7.6927
    -7.6555  -7.6421  -7.5636  -7.5248  -7.4641  -7.4385  -7.3703  -7.3087
    -7.2634  -7.2259  -7.1228  -7.0761  -7.0217  -6.8780  -6.8330  -6.7649
    -6.7284  -6.6972  -6.6359  -6.6256  -6.4695  -6.3565  -6.2683  -6.2517
    -6.2201  -6.0423  -6.0090  -5.9179  -5.9138  -5.8928  -5.8705  -5.6272
    -5.6077  -5.5388  -5.2893  -5.2284  -5.1675  -5.1039  -4.9207  -4.8386
    -4.6993  -4.6207  -4.4922  -4.4307  -4.4072  -4.3787  -4.1109  -3.9141
    -3.5799  -3.4922  -3.1586  -3.0309  -1.4108  -1.2809  -1.1580  -0.9631
    -0.6278  -0.5789  -0.4074  -0.3399  -0.2088  -0.1143   0.0859   0.1081
     0.1319   0.2235   0.4515   0.6584   0.7691   0.7831   0.8091   0.9374
     0.9877   1.0373   1.0913   1.1931   1.3276   1.3946   1.4033   1.4634
     1.4954   1.5654   1.6462   1.6975   1.7324   1.7840   1.8392   1.8885
     1.9316   1.9532   2.1064   2.1075   2.2283   2.2392   2.2652   2.2718
     2.3678   2.3782   2.4579   2.4755   2.5217   2.5734   2.5946   2.6417
     2.6632   2.7245   2.7577   2.7673   2.7946   2.8286   2.8379   2.8830
     2.9122   2.9445   2.9860   3.0216   3.0404   3.1155   3.1390   3.1616
     3.1636   3.1911   3.2266   3.2353   3.3140   3.3717   3.3794   3.4037
     3.4053   3.4427   3.5053   3.5186   3.6057   3.6079   3.6663   3.6826
     3.6951   3.7578   3.7830   3.7889   3.7984   3.8508   3.8721   3.8848
     3.9204   3.9560   3.9775   4.0201   4.0469   4.0489   4.1245   4.1256
     4.1339   4.1434   4.1951   4.2434   4.2755   4.3211   4.3263   4.3377
     4.3867   4.4040   4.4281   4.4556   4.4556   4.4752   4.5698   4.5852
     4.5893   4.6017   4.6490   4.6569   4.6750   4.6773   4.7439   4.7797
     4.7952   4.8061   4.8287   4.8386   4.8594   4.9457   4.9560   4.9662
     4.9969   5.0009   5.0068   5.1096   5.1196   5.1201   5.1402   5.1423
     5.1434   5.1781   5.2144   5.2488   5.2837   5.2959   5.3293   5.3367
     5.3512   5.3903   5.4323   5.4491   5.4556   5.4572   5.4672   5.4855
     5.4987   5.5151   5.5876   5.5946   5.6146   5.6149   5.6227   5.6852
     5.6941   5.7199   5.7219   5.7448   5.7710   5.8085   5.8297   5.8446
     5.8571   5.8686   5.8769   5.9168   5.9480   5.9738   6.0197   6.0212
     6.0539   6.0599   6.0642   6.0859   6.1161   6.1643   6.1700   6.1887
     6.2015   6.2022   6.2172   6.2241   6.2513   6.2654   6.2921   6.3042
     6.3304   6.3439   6.3621   6.3778   6.3780   6.4083   6.4258   6.4332
     6.4332   6.4555   6.5168   6.5221   6.5359   6.5415   6.5516   6.5765
     6.6055   6.6459   6.6674   6.6719   6.6863   6.7206   6.7261   6.7323
     6.7564   6.7655   6.7658   6.7708   6.7794   6.7915   6.8538   6.8648
     6.8993   6.9153   6.9267   6.9472   6.9544   6.9692   7.0102   7.0247
     7.0418   7.0693   7.0884   7.1001   7.1055   7.1586   7.1609   7.1873
     7.2057   7.2126   7.2391   7.2694   7.2758   7.2825   7.3080   7.3157
     7.3389   7.4020   7.4134   7.4252   7.4280   7.4651   7.4844   7.5012
     7.5079   7.5318   7.5351   7.5387   7.5854   7.6114   7.6424   7.6788
     7.6831   7.6871   7.6906   7.6992   7.7207   7.7319   7.7450   7.7707
     7.7884   7.8008   7.8122   7.8304   7.8387   7.8463   7.8505   7.9021
     7.9158   7.9173   7.9278   7.9346   7.9465   7.9624   7.9734   8.0218
     8.0287   8.0723   8.0795   8.1380   8.1568   8.1742   8.1882   8.1906
     8.1983   8.2178   8.2267   8.2604   8.2871   8.2932   8.3072   8.3225
     8.3584   8.3607   8.4080   8.4150   8.4308   8.4595   8.4676   8.4815
     8.4984   8.5338   8.5366   8.5406

          k = 0.0000 0.0000 0.0116 (145311 PWs)   bands (ev):

   -21.3372 -21.2124 -20.9870 -20.8163 -20.6104 -20.5672 -20.2504 -20.1273
   -20.1192 -19.8890 -19.7500 -19.6172 -19.5737 -19.3552 -19.0558 -18.9647
   -18.8323 -18.6311 -18.4987 -18.3536 -18.3523 -18.1871 -18.1333 -17.8709
   -17.6303 -17.6135 -17.4435 -17.3131 -17.1234 -17.0501 -16.9837 -16.8742
   -16.8032 -16.6768 -16.5741 -16.4798 -16.2517 -16.2471 -15.9898 -15.8385
   -15.5963 -15.5168 -14.9259 -14.8803 -14.7522 -14.6902 -14.6023 -14.4691
   -14.3118 -14.2084 -14.1353 -14.0329 -13.8945 -13.8540 -13.7013 -13.6049
   -13.5138 -13.2285 -13.0715 -12.8989 -12.8792 -12.6215 -12.5124 -12.3889
   -12.3031 -12.1125 -12.0540 -11.9226 -11.7892 -11.7590 -11.5544 -11.2941
   -11.2749 -11.2639 -11.2272 -11.1559 -10.9567 -10.8701 -10.6865 -10.6817
   -10.5540 -10.4734 -10.4164 -10.2767 -10.0700 -10.0345  -9.9909  -9.8075
    -9.8041  -9.6831  -9.5443  -9.4749  -9.4197  -9.4160  -9.3347  -9.2695
    -9.2668  -9.2426  -9.2203  -9.1700  -9.0071  -9.0036  -8.9805  -8.9068
    -8.8772  -8.8162  -8.7896  -8.6849  -8.6496  -8.6297  -8.5941  -8.5675
    -8.5613  -8.5307  -8.5166  -8.4369  -8.3736  -8.2955  -8.2558  -8.1663
    -8.1424  -8.0236  -8.0211  -8.0052  -7.8556  -7.8323  -7.7438  -7.6920
    -7.6529  -7.6445  -7.5581  -7.5325  -7.4745  -7.4240  -7.3742  -7.3072
    -7.2669  -7.2248  -7.1315  -7.0815  -7.0176  -6.8800  -6.8284  -6.7557
    -6.7302  -6.6972  -6.6406  -6.6172  -6.4702  -6.3634  -6.2676  -6.2487
    -6.2278  -6.0424  -6.0126  -5.9107  -5.9067  -5.9062  -5.8611  -5.6319
    -5.6120  -5.5464  -5.2874  -5.2210  -5.1634  -5.0957  -4.9238  -4.8424
    -4.6973  -4.6221  -4.4899  -4.4287  -4.4091  -4.3782  -4.1083  -3.9200
    -3.5774  -3.4860  -3.1677  -3.0379  -1.4060  -1.2749  -1.1520  -0.9614
    -0.6264  -0.5798  -0.4078  -0.3476  -0.2074  -0.1081   0.0786   0.1127
     0.1253   0.2299   0.4352   0.6455   0.7715   0.7761   0.8106   0.9341
     1.0004   1.0363   1.0829   1.1898   1.3308   1.3867   1.4085   1.4494
     1.5266   1.5729   1.6435   1.7071   1.7442   1.7882   1.8434   1.8857
     1.9304   1.9524   2.1133   2.1172   2.2305   2.2306   2.2629   2.2694
     2.3757   2.3818   2.4607   2.4796   2.5094   2.5661   2.5920   2.6239
     2.6490   2.7324   2.7516   2.7604   2.7885   2.8199   2.8419   2.8841
     2.8980   2.9486   2.9792   3.0169   3.0386   3.1191   3.1355   3.1702
     3.1723   3.2007   3.2179   3.2384   3.3146   3.3600   3.4000   3.4121
     3.4152   3.4451   3.5060   3.5227   3.6104   3.6170   3.6614   3.6851
     3.7007   3.7615   3.7840   3.7939   3.7957   3.8719   3.8719   3.8912
     3.9173   3.9552   3.9820   4.0126   4.0323   4.0429   4.1135   4.1194
     4.1206   4.1319   4.2017   4.2489   4.2673   4.3105   4.3216   4.3251
     4.3839   4.3930   4.4257   4.4556   4.4676   4.4866   4.5630   4.5735
     4.5943   4.6118   4.6396   4.6705   4.6918   4.6929   4.7518   4.7759
     4.8049   4.8067   4.8369   4.8479   4.8575   4.9402   4.9507   4.9817
     4.9851   4.9923   5.0103   5.0893   5.1284   5.1291   5.1372   5.1544
     5.1582   5.1657   5.2121   5.2449   5.2691   5.3079   5.3197   5.3348
     5.3585   5.3852   5.4294   5.4378   5.4500   5.4673   5.4763   5.4806
     5.4847   5.5079   5.5640   5.5733   5.6119   5.6151   5.6326   5.6739
     5.6973   5.7155   5.7336   5.7398   5.7571   5.8103   5.8371   5.8382
     5.8623   5.8823   5.8946   5.9204   5.9553   5.9772   6.0164   6.0381
     6.0536   6.0555   6.0558   6.1005   6.1324   6.1639   6.1772   6.1882
     6.2017   6.2093   6.2168   6.2282   6.2448   6.2611   6.2907   6.3037
     6.3270   6.3396   6.3606   6.3741   6.3784   6.3985   6.4234   6.4275
     6.4333   6.4680   6.5183   6.5259   6.5321   6.5405   6.5516   6.5607
     6.6236   6.6423   6.6620   6.6698   6.6718   6.7007   6.7287   6.7355
     6.7450   6.7530   6.7727   6.7765   6.7847   6.7991   6.8428   6.8790
     6.9053   6.9112   6.9225   6.9361   6.9594   6.9671   7.0014   7.0202
     7.0466   7.0471   7.0786   7.0842   7.0992   7.1710   7.1753   7.1814
     7.1996   7.2192   7.2578   7.2625   7.2635   7.2994   7.3114   7.3337
     7.3415   7.4163   7.4188   7.4241   7.4382   7.4769   7.4918   7.5059
     7.5114   7.5329   7.5426   7.5636   7.5871   7.6086   7.6442   7.6602
     7.6810   7.6925   7.7025   7.7091   7.7212   7.7295   7.7430   7.7718
     7.7868   7.7948   7.8056   7.8354   7.8406   7.8489   7.8673   7.8844
     7.9019   7.9238   7.9295   7.9433   7.9671   7.9700   7.9890   8.0339
     8.0605   8.0642   8.0724   8.1359   8.1535   8.1717   8.1840   8.1855
     8.2153   8.2158   8.2193   8.2603   8.2732   8.2887   8.3108   8.3251
     8.3458   8.3486   8.4089   8.4258   8.4290   8.4523   8.4722   8.4834
     8.5022   8.5136   8.5206   8.5534

          k = 0.0000 0.0000 0.0128 (145311 PWs)   bands (ev):

   -21.3351 -21.2173 -20.9815 -20.8206 -20.6070 -20.5659 -20.2536 -20.1279
   -20.1202 -19.8975 -19.7444 -19.6050 -19.5778 -19.3583 -19.0527 -18.9684
   -18.8245 -18.6373 -18.4930 -18.3578 -18.3537 -18.2050 -18.1255 -17.8775
   -17.6277 -17.6024 -17.4349 -17.3095 -17.1289 -17.0578 -16.9789 -16.8677
   -16.8075 -16.6783 -16.5671 -16.4798 -16.2536 -16.2503 -15.9924 -15.8533
   -15.5997 -15.5180 -14.8999 -14.8747 -14.7547 -14.6956 -14.6019 -14.4719
   -14.3119 -14.2015 -14.1331 -14.0202 -13.8933 -13.8602 -13.7063 -13.6020
   -13.5334 -13.2507 -13.0684 -12.8948 -12.8871 -12.6318 -12.4895 -12.3774
   -12.2934 -12.1117 -12.0594 -11.9234 -11.7862 -11.7480 -11.5607 -11.2868
   -11.2742 -11.2662 -11.2459 -11.1658 -10.9635 -10.8562 -10.6857 -10.6791
   -10.5480 -10.4759 -10.4065 -10.2844 -10.0947 -10.0233  -9.9977  -9.8001
    -9.7935  -9.6855  -9.5277  -9.4790  -9.4224  -9.4172  -9.3269  -9.2753
    -9.2752  -9.2429  -9.2220  -9.1732  -9.0152  -8.9974  -8.9865  -8.9191
    -8.8786  -8.8208  -8.7898  -8.6821  -8.6505  -8.6280  -8.5965  -8.5637
    -8.5570  -8.5284  -8.5038  -8.4234  -8.3763  -8.2962  -8.2537  -8.1704
    -8.1417  -8.0197  -8.0156  -8.0151  -7.8485  -7.8263  -7.7541  -7.6912
    -7.6502  -7.6473  -7.5524  -7.5406  -7.4859  -7.4093  -7.3784  -7.3060
    -7.2706  -7.2237  -7.1400  -7.0874  -7.0132  -6.8823  -6.8236  -6.7469
    -6.7317  -6.6963  -6.6456  -6.6087  -6.4714  -6.3706  -6.2670  -6.2457
    -6.2351  -6.0426  -6.0160  -5.9291  -5.8991  -5.8943  -5.8515  -5.6372
    -5.6168  -5.5545  -5.2853  -5.2160  -5.1569  -5.0870  -4.9272  -4.8467
    -4.6950  -4.6235  -4.4874  -4.4264  -4.4111  -4.3778  -4.1054  -3.9262
    -3.5746  -3.4799  -3.1769  -3.0455  -1.4008  -1.2701  -1.1443  -0.9596
    -0.6250  -0.5808  -0.4082  -0.3549  -0.2063  -0.1014   0.0702   0.1177
     0.1182   0.2368   0.4184   0.6295   0.7733   0.7742   0.8122   0.9305
     1.0137   1.0351   1.0745   1.1869   1.3321   1.3801   1.4135   1.4352
     1.5569   1.5816   1.6408   1.7148   1.7553   1.7930   1.8484   1.8848
     1.9296   1.9509   2.1196   2.1277   2.2216   2.2335   2.2544   2.2742
     2.3838   2.3857   2.4636   2.4819   2.4968   2.5598   2.5886   2.6064
     2.6350   2.7393   2.7410   2.7545   2.7819   2.8162   2.8444   2.8835
     2.8872   2.9488   2.9751   3.0131   3.0320   3.1262   3.1327   3.1799
     3.1810   3.2094   3.2115   3.2406   3.3098   3.3508   3.4183   3.4193
     3.4266   3.4536   3.4956   3.5399   3.6128   3.6303   3.6559   3.6781
     3.6990   3.7670   3.7892   3.7978   3.8016   3.8573   3.8959   3.9096
     3.9147   3.9542   3.9885   4.0033   4.0189   4.0351   4.1015   4.1097
     4.1155   4.1220   4.2107   4.2426   4.2546   4.2956   4.3179   4.3295
     4.3648   4.3994   4.4238   4.4528   4.4831   4.5020   4.5399   4.5732
     4.5780   4.6204   4.6547   4.6818   4.6988   4.6994   4.7586   4.7696
     4.8088   4.8166   4.8403   4.8492   4.8845   4.9372   4.9466   4.9648
     4.9672   5.0039   5.0190   5.0729   5.1345   5.1354   5.1385   5.1390
     5.1693   5.1950   5.2124   5.2311   5.2640   5.2917   5.3297   5.3331
     5.3727   5.3798   5.4266   5.4286   5.4437   5.4583   5.4746   5.4772
     5.4832   5.5004   5.5400   5.5568   5.6063   5.6316   5.6379   5.6674
     5.7024   5.7077   5.7216   5.7466   5.7578   5.8088   5.8311   5.8455
     5.8705   5.8913   5.9108   5.9224   5.9636   5.9888   6.0082   6.0398
     6.0475   6.0484   6.0570   6.1120   6.1454   6.1540   6.1635   6.1728
     6.2119   6.2143   6.2270   6.2359   6.2462   6.2684   6.2833   6.3067
     6.3185   6.3344   6.3531   6.3812   6.3836   6.4014   6.4210   6.4238
     6.4335   6.4813   6.5144   6.5280   6.5319   6.5408   6.5461   6.5593
     6.6369   6.6439   6.6528   6.6563   6.6670   6.6750   6.7227   6.7317
     6.7407   6.7408   6.7758   6.7823   6.7944   6.8195   6.8300   6.8837
     6.8987   6.9177   6.9201   6.9274   6.9670   6.9690   7.0026   7.0182
     7.0189   7.0553   7.0707   7.0733   7.0929   7.1616   7.1767   7.1843
     7.2124   7.2229   7.2498   7.2568   7.2746   7.3136   7.3184   7.3441
     7.3572   7.4165   7.4259   7.4295   7.4522   7.4650   7.4979   7.5114
     7.5292   7.5344   7.5568   7.5785   7.5901   7.6170   7.6279   7.6357
     7.6772   7.6792   7.7009   7.7121   7.7286   7.7314   7.7607   7.7718
     7.7974   7.8010   7.8070   7.8381   7.8399   7.8437   7.8695   7.8848
     7.8896   7.9317   7.9344   7.9624   7.9641   7.9995   8.0136   8.0294
     8.0555   8.0652   8.0861   8.1321   8.1500   8.1721   8.1865   8.1865
     8.2078   8.2169   8.2443   8.2518   8.2631   8.2919   8.3059   8.3296
     8.3339   8.3345   8.4035   8.4195   8.4339   8.4461   8.4711   8.4819
     8.4874   8.4954   8.5059   8.5571

          k = 0.0000 0.0000 0.0139 (145351 PWs)   bands (ev):

   -21.3329 -21.2224 -20.9758 -20.8250 -20.6034 -20.5646 -20.2564 -20.1368
   -20.1129 -19.9061 -19.7386 -19.5928 -19.5821 -19.3617 -19.0494 -18.9719
   -18.8166 -18.6435 -18.4874 -18.3617 -18.3551 -18.2228 -18.1174 -17.8846
   -17.6250 -17.5927 -17.4251 -17.3053 -17.1348 -17.0661 -16.9738 -16.8607
   -16.8121 -16.6800 -16.5601 -16.4798 -16.2558 -16.2537 -15.9951 -15.8687
   -15.6015 -15.5193 -14.8747 -14.8687 -14.7571 -14.7008 -14.6020 -14.4749
   -14.3103 -14.1944 -14.1309 -14.0074 -13.8921 -13.8671 -13.7116 -13.5986
   -13.5542 -13.2727 -13.0649 -12.8953 -12.8893 -12.6421 -12.4680 -12.3657
   -12.2844 -12.1115 -12.0638 -11.9235 -11.7832 -11.7372 -11.5658 -11.2865
   -11.2701 -11.2679 -11.2636 -11.1758 -10.9683 -10.8423 -10.6901 -10.6716
   -10.5445 -10.4788 -10.3939 -10.2922 -10.1188 -10.0116 -10.0046  -9.7922
    -9.7844  -9.6866  -9.5138  -9.4830  -9.4287  -9.4145  -9.3193  -9.2851
    -9.2814  -9.2458  -9.2193  -9.1760  -9.0209  -8.9929  -8.9911  -8.9320
    -8.8812  -8.8256  -8.7883  -8.6791  -8.6516  -8.6263  -8.6001  -8.5596
    -8.5547  -8.5261  -8.4911  -8.4092  -8.3786  -8.2966  -8.2514  -8.1740
    -8.1413  -8.0263  -8.0169  -8.0066  -7.8413  -7.8202  -7.7644  -7.6902
    -7.6505  -7.6473  -7.5489  -7.5464  -7.4980  -7.3945  -7.3829  -7.3052
    -7.2743  -7.2227  -7.1481  -7.0938  -7.0086  -6.8847  -6.8184  -6.7390
    -6.7330  -6.6942  -6.6506  -6.6001  -6.4733  -6.3780  -6.2665  -6.2426
    -6.2418  -6.0428  -6.0191  -5.9477  -5.8909  -5.8823  -5.8416  -5.6429
    -5.6219  -5.5631  -5.2830  -5.2133  -5.1481  -5.0779  -4.9310  -4.8513
    -4.6927  -4.6251  -4.4847  -4.4240  -4.4131  -4.3775  -4.1021  -3.9327
    -3.5715  -3.4741  -3.1859  -3.0536  -1.3953  -1.2668  -1.1348  -0.9579
    -0.6234  -0.5819  -0.4086  -0.3619  -0.2053  -0.0943   0.0605   0.1108
     0.1231   0.2443   0.4014   0.6113   0.7736   0.7771   0.8138   0.9266
     1.0276   1.0336   1.0662   1.1848   1.3308   1.3761   1.4181   1.4209
     1.5859   1.5912   1.6381   1.7205   1.7655   1.7981   1.8543   1.8861
     1.9293   1.9488   2.1261   2.1377   2.2129   2.2369   2.2466   2.2796
     2.3899   2.3921   2.4665   2.4815   2.4840   2.5550   2.5846   2.5894
     2.6212   2.7227   2.7497   2.7502   2.7744   2.8170   2.8450   2.8794
     2.8813   2.9456   2.9739   3.0087   3.0220   3.1309   3.1353   3.1886
     3.1905   3.2023   3.2233   3.2413   3.3026   3.3448   3.4227   3.4342
     3.4393   3.4672   3.4905   3.5531   3.6152   3.6421   3.6539   3.6639
     3.6911   3.7755   3.7992   3.8002   3.8131   3.8418   3.9120   3.9205
     3.9257   3.9534   3.9947   3.9965   4.0089   4.0250   4.0883   4.1045
     4.1111   4.1135   4.2213   4.2244   4.2388   4.2815   4.3263   4.3340
     4.3474   4.4053   4.4234   4.4490   4.5006   4.5166   4.5188   4.5445
     4.5838   4.6270   4.6771   4.6778   4.6947   4.7081   4.7622   4.7641
     4.8103   4.8291   4.8501   4.8650   4.8993   4.9420   4.9465   4.9492
     4.9498   4.9891   5.0457   5.0607   5.1279   5.1347   5.1394   5.1418
     5.1800   5.2117   5.2196   5.2260   5.2644   5.2824   5.3288   5.3318
     5.3743   5.3872   5.4180   5.4303   5.4365   5.4372   5.4633   5.4787
     5.4807   5.4927   5.5222   5.5483   5.5985   5.6329   5.6589   5.6711
     5.6993   5.6993   5.7106   5.7581   5.7624   5.8055   5.8266   5.8509
     5.8803   5.8930   5.9247   5.9286   5.9717   5.9955   6.0059   6.0290
     6.0374   6.0406   6.0649   6.1224   6.1367   6.1441   6.1541   6.1592
     6.2098   6.2205   6.2284   6.2379   6.2678   6.2740   6.2769   6.3049
     6.3109   6.3357   6.3499   6.3834   6.3961   6.4146   6.4210   6.4252
     6.4340   6.4934   6.5113   6.5229   6.5338   6.5353   6.5425   6.5735
     6.6302   6.6409   6.6409   6.6497   6.6609   6.6668   6.7026   6.7283
     6.7289   6.7454   6.7796   6.7849   6.8096   6.8183   6.8391   6.8817
     6.8902   6.8993   6.9280   6.9343   6.9728   6.9753   6.9901   7.0128
     7.0225   7.0646   7.0653   7.0682   7.0866   7.1468   7.1742   7.1768
     7.2224   7.2354   7.2399   7.2534   7.2891   7.3215   7.3382   7.3444
     7.3780   7.4052   7.4345   7.4383   7.4468   7.4638   7.4993   7.5087
     7.5434   7.5510   7.5733   7.5843   7.5923   7.6076   7.6140   7.6397
     7.6630   7.6749   7.6964   7.7063   7.7217   7.7325   7.7602   7.7850
     7.7917   7.8079   7.8304   7.8379   7.8449   7.8521   7.8797   7.8899
     7.8922   7.9403   7.9423   7.9631   7.9711   8.0083   8.0264   8.0333
     8.0366   8.0815   8.1020   8.1305   8.1558   8.1788   8.1867   8.1914
     8.1993   8.2175   8.2411   8.2626   8.2655   8.2927   8.2970   8.3134
     8.3254   8.3459   8.3855   8.3978   8.4399   8.4461   8.4635   8.4676
     8.4694   8.4993   8.5073   8.5438

          k = 0.0000 0.0000 0.0151 (145387 PWs)   bands (ev):

   -21.3304 -21.2275 -20.9700 -20.8297 -20.5998 -20.5633 -20.2587 -20.1459
   -20.1056 -19.9146 -19.7326 -19.5867 -19.5805 -19.3655 -19.0460 -18.9751
   -18.8087 -18.6495 -18.4820 -18.3653 -18.3568 -18.2403 -18.1090 -17.8921
   -17.6220 -17.5845 -17.4142 -17.3005 -17.1411 -17.0749 -16.9684 -16.8531
   -16.8169 -16.6819 -16.5530 -16.4798 -16.2581 -16.2572 -15.9978 -15.8844
   -15.6020 -15.5209 -14.8624 -14.8509 -14.7593 -14.7057 -14.6024 -14.4784
   -14.3065 -14.1871 -14.1285 -13.9948 -13.8913 -13.8745 -13.7173 -13.5946
   -13.5758 -13.2944 -13.0612 -12.9035 -12.8829 -12.6525 -12.4480 -12.3538
   -12.2762 -12.1120 -12.0667 -11.9232 -11.7801 -11.7266 -11.5697 -11.2886
   -11.2862 -11.2695 -11.2606 -11.1861 -10.9707 -10.8287 -10.6950 -10.6642
   -10.5429 -10.4819 -10.3791 -10.2998 -10.1423 -10.0119  -9.9995  -9.7841
    -9.7777  -9.6852  -9.5063  -9.4837  -9.4351  -9.4116  -9.3125  -9.2965
    -9.2875  -9.2485  -9.2136  -9.1784  -9.0245  -8.9998  -8.9845  -8.9449
    -8.8856  -8.8307  -8.7854  -8.6759  -8.6531  -8.6248  -8.6040  -8.5556
    -8.5544  -8.5238  -8.4785  -8.3956  -8.3802  -8.2965  -8.2489  -8.1770
    -8.1412  -8.0373  -8.0125  -7.9979  -7.8340  -7.8141  -7.7745  -7.6891
    -7.6543  -7.6444  -7.5574  -7.5403  -7.5107  -7.3876  -7.3797  -7.3047
    -7.2781  -7.2216  -7.1558  -7.1007  -7.0036  -6.8874  -6.8131  -6.7341
    -6.7325  -6.6902  -6.6557  -6.5913  -6.4759  -6.3855  -6.2662  -6.2480
    -6.2394  -6.0431  -6.0219  -5.9664  -5.8822  -5.8703  -5.8315  -5.6490
    -5.6275  -5.5722  -5.2806  -5.2125  -5.1377  -5.0684  -4.9351  -4.8563
    -4.6902  -4.6269  -4.4820  -4.4214  -4.4152  -4.3773  -4.0985  -3.9394
    -3.5680  -3.4687  -3.1944  -3.0622  -1.3895  -1.2649  -1.1236  -0.9563
    -0.6218  -0.5831  -0.4090  -0.3685  -0.2042  -0.0870   0.0497   0.1033
     0.1288   0.2522   0.3844   0.5922   0.7761   0.7801   0.8155   0.9224
     1.0317   1.0418   1.0581   1.1833   1.3265   1.3750   1.4065   1.4223
     1.6015   1.6132   1.6357   1.7240   1.7745   1.8036   1.8614   1.8896
     1.9299   1.9460   2.1326   2.1467   2.2049   2.2395   2.2409   2.2854
     2.3945   2.4004   2.4695   2.4711   2.4780   2.5523   2.5729   2.5798
     2.6077   2.7039   2.7460   2.7599   2.7659   2.8207   2.8435   2.8742
     2.8781   2.9402   2.9755   3.0024   3.0097   3.1294   3.1448   3.1937
     3.1982   3.2020   3.2360   3.2400   3.2961   3.3427   3.4265   3.4392
     3.4523   3.4837   3.4964   3.5602   3.6176   3.6371   3.6457   3.6714
     3.6792   3.7879   3.8002   3.8121   3.8133   3.8396   3.9089   3.9358
     3.9449   3.9533   3.9921   4.0022   4.0054   4.0141   4.0738   4.1028
     4.1060   4.1080   4.2010   4.2210   4.2326   4.2684   4.3319   4.3381
     4.3396   4.4091   4.4260   4.4450   4.4938   4.5141   4.5188   4.5362
     4.5912   4.6315   4.6592   4.6814   4.7010   4.7239   4.7509   4.7688
     4.8111   4.8399   4.8653   4.8906   4.8971   4.9310   4.9332   4.9451
[...]
    -6.7144  -6.6976  -6.6004  -6.5362  -6.5108  -6.4584  -6.2720  -6.2693
    -6.1913  -6.1243  -6.0388  -6.0364  -5.7938  -5.7720  -5.7341  -5.7147
    -5.6934  -5.6665  -5.2536  -5.2334  -5.0383  -4.9875  -4.9751  -4.9184
    -4.6640  -4.6469  -4.4550  -4.4374  -4.3963  -4.3838  -4.0500  -4.0060
    -3.5181  -3.4745  -3.2062  -3.1531  -1.3298  -1.2920  -1.0032  -0.9595
    -0.6072  -0.5976  -0.4108  -0.4050  -0.1643  -0.0867  -0.0161   0.0321
     0.1959   0.2554   0.3457   0.4302   0.8104   0.8223   0.8318   0.8730
     1.0087   1.0088   1.1796   1.2051   1.2476   1.2725   1.4093   1.4300
     1.6392   1.6618   1.7473   1.7573   1.7900   1.8099   1.9376   1.9516
     1.9549   1.9661   2.1237   2.1372   2.2475   2.2531   2.2993   2.3381
     2.3582   2.3718   2.4495   2.4642   2.4716   2.5158   2.5168   2.5181
     2.5255   2.5504   2.7542   2.7605   2.7837   2.8320   2.8542   2.8603
     2.8701   2.8839   2.8859   2.9178   3.0515   3.0729   3.0987   3.1207
     3.2642   3.3141   3.3215   3.3307   3.3973   3.4132   3.4272   3.4476
     3.4829   3.4881   3.5170   3.5417   3.5497   3.5827   3.6181   3.6483
     3.7170   3.7241   3.8209   3.8709   3.8752   3.9076   3.9650   3.9669
     3.9837   3.9967   3.9988   4.0332   4.0372   4.0528   4.0632   4.0940
     4.1030   4.1277   4.1766   4.1959   4.1970   4.2178   4.2371   4.2637
     4.2893   4.3648   4.3995   4.4059   4.4377   4.4503   4.4803   4.5307
     4.5571   4.6259   4.6674   4.6822   4.7021   4.7615   4.7763   4.7904
     4.8038   4.8340   4.8420   4.9147   4.9194   4.9308   4.9528   4.9700
     5.0431   5.0624   5.0742   5.0820   5.1083   5.1241   5.1694   5.1697
     5.1878   5.2166   5.2591   5.2688   5.2816   5.3248   5.3330   5.3424
     5.3510   5.3627   5.3685   5.3879   5.3934   5.4110   5.4310   5.4707
     5.5095   5.5116   5.5389   5.5608   5.5749   5.5895   5.5901   5.5979
     5.6764   5.6948   5.7583   5.7703   5.7848   5.8015   5.8089   5.8519
     5.8809   5.9292   5.9381   5.9479   5.9760   5.9803   5.9947   6.0007
     6.0082   6.0314   6.0483   6.0750   6.0787   6.0935   6.1141   6.1173
     6.1411   6.1667   6.2184   6.2401   6.2508   6.2724   6.3110   6.3138
     6.3194   6.3232   6.3264   6.3512   6.3653   6.3939   6.4275   6.4283
     6.4738   6.4814   6.5198   6.5323   6.5534   6.5565   6.5869   6.6036
     6.6140   6.6225   6.6596   6.6681   6.6690   6.7033   6.7126   6.7255
     6.7438   6.7974   6.8305   6.8415   6.8649   6.8650   6.8833   6.8988
     6.9127   6.9192   6.9421   6.9590   6.9653   6.9687   6.9760   7.0069
     7.0267   7.0281   7.0291   7.0479   7.1179   7.1633   7.1801   7.1971
     7.2157   7.2186   7.2326   7.2409   7.2774   7.2954   7.3291   7.3524
     7.3557   7.3640   7.4037   7.4149   7.4515   7.4773   7.4904   7.5091
     7.5408   7.5493   7.5500   7.5767   7.6046   7.6060   7.6271   7.6464
     7.6569   7.6782   7.6794   7.7294   7.7309   7.7325   7.7920   7.8025
     7.8281   7.8343   7.8491   7.8684   7.8709   7.9065   7.9129   7.9382
     7.9466   7.9735   7.9833   8.0299   8.0419   8.0475   8.0776   8.0877
     8.1075   8.1113   8.1568   8.1662   8.1791   8.1964   8.2033   8.2140
     8.2224   8.2252   8.2332   8.2598   8.2852   8.2971   8.3238   8.3370
     8.3937   8.3998   8.4029   8.4048   8.4151   8.4171   8.4386   8.4783
     8.5001   8.5219   8.5369   8.5409

          k = 0.0000 0.0000 0.0267 (145380 PWs)   bands (ev):

   -21.2964 -21.2785 -20.9083 -20.8842 -20.5674 -20.5604 -20.2505 -20.2292
   -20.0293 -19.9974 -19.6686 -19.6431 -19.4657 -19.4284 -19.0112 -19.0003
   -18.7343 -18.7086 -18.4274 -18.3967 -18.3739 -18.3632 -18.0182 -17.9805
   -17.5864 -17.5734 -17.2755 -17.2271 -17.2223 -17.1797 -16.9039 -16.8765
   -16.7612 -16.7272 -16.4958 -16.4853 -16.2858 -16.2847 -16.0113 -15.9986
   -15.5689 -15.5510 -14.7930 -14.7756 -14.7542 -14.7345 -14.5651 -14.5330
   -14.1497 -14.1283 -14.1127 -14.0421 -13.8902 -13.8746 -13.7684 -13.7560
   -13.5207 -13.4709 -13.0096 -12.9826 -12.7944 -12.7547 -12.3185 -12.2908
   -12.2178 -12.1746 -12.0025 -11.9575 -11.7002 -11.6710 -11.5379 -11.4858
   -11.2922 -11.2826 -11.2706 -11.2675 -10.8684 -10.8027 -10.7030 -10.6660
   -10.5181 -10.5058 -10.3476 -10.3214 -10.1878 -10.1211  -9.8681  -9.8236
    -9.6848  -9.6322  -9.5523  -9.4994  -9.4511  -9.4316  -9.3704  -9.3488
    -9.2552  -9.2232  -9.1496  -9.1093  -9.0999  -9.0598  -9.0000  -8.9714
    -8.9165  -8.8901  -8.7215  -8.6947  -8.6393  -8.6304  -8.6109  -8.5951
    -8.5195  -8.5130  -8.3877  -8.3721  -8.3463  -8.3158  -8.1883  -8.1675
    -8.1652  -8.1407  -7.9085  -7.8715  -7.8670  -7.7970  -7.7714  -7.7490
    -7.6640  -7.6431  -7.6158  -7.6029  -7.4736  -7.4467  -7.3114  -7.3089
    -7.2410  -7.2093  -7.2017  -7.1935  -6.9473  -6.9262  -6.7601  -6.7469
    -6.7123  -6.7011  -6.5891  -6.5461  -6.5019  -6.4670  -6.2721  -6.2700
    -6.1824  -6.1377  -6.0387  -6.0371  -5.7845  -5.7667  -5.7228  -5.7190
    -5.7015  -5.6777  -5.2502  -5.2367  -5.0289  -4.9951  -4.9650  -4.9271
    -4.6610  -4.6496  -4.4520  -4.4402  -4.3938  -4.3855  -4.0430  -4.0136
    -3.5108  -3.4811  -3.1993  -3.1633  -1.3231  -1.2978  -0.9929  -0.9638
    -0.6056  -0.5993  -0.4105  -0.4068  -0.1543  -0.1022  -0.0081   0.0241
     0.2049   0.2444   0.3585   0.4148   0.8133   0.8213   0.8389   0.8664
     1.0069   1.0071   1.1952   1.2110   1.2395   1.2572   1.4135   1.4276
     1.6427   1.6587   1.7581   1.7646   1.7862   1.8012   1.9419   1.9528
     1.9617   1.9688   2.1228   2.1329   2.2545   2.2583   2.3081   2.3401
     2.3473   2.3610   2.4559   2.4672   2.4752   2.5113   2.5129   2.5134
     2.5204   2.5430   2.7581   2.7707   2.7777   2.8210   2.8550   2.8632
     2.8706   2.8746   2.8918   2.9122   3.0627   3.0707   3.0882   3.1091
     3.2731   3.3074   3.3422   3.3468   3.4057   3.4155   3.4271   3.4422
     3.4836   3.4843   3.5058   3.5330   3.5569   3.5798   3.6068   3.6334
     3.7375   3.7466   3.8090   3.8493   3.8731   3.8994   3.9748   3.9752
     3.9970   3.9996   4.0125   4.0313   4.0368   4.0608   4.0626   4.1034
     4.1144   4.1325   4.1449   4.1894   4.2155   4.2177   4.2303   4.2702
     4.2804   4.3642   4.3711   4.4024   4.4338   4.4511   4.4741   4.5117
     4.5763   4.6391   4.6540   4.6985   4.7013   4.7613   4.7619   4.7909
     4.8007   4.8200   4.8594   4.9215   4.9426   4.9440   4.9537   4.9551
     5.0390   5.0521   5.0549   5.0646   5.1239   5.1416   5.1753   5.1774
     5.1862   5.1994   5.2645   5.2740   5.2784   5.3213   5.3367   5.3457
     5.3590   5.3736   5.3741   5.3841   5.4012   5.4072   5.4493   5.4604
     5.5104   5.5222   5.5276   5.5363   5.5733   5.5864   5.5895   5.6018
     5.6718   5.6952   5.7463   5.7802   5.7842   5.8005   5.8089   5.8481
     5.8808   5.9325   5.9344   5.9441   5.9676   5.9775   5.9883   6.0073
     6.0176   6.0349   6.0548   6.0696   6.0888   6.0890   6.1156   6.1210
     6.1398   6.1561   6.2215   6.2366   6.2551   6.2779   6.2972   6.3088
     6.3126   6.3209   6.3272   6.3592   6.3706   6.3980   6.4038   6.4130
     6.4665   6.4701   6.5253   6.5443   6.5501   6.5548   6.5947   6.6125
     6.6184   6.6238   6.6545   6.6613   6.6772   6.7128   6.7142   6.7248
     6.7454   6.7859   6.8535   6.8577   6.8646   6.8649   6.9049   6.9063
     6.9137   6.9170   6.9367   6.9686   6.9765   6.9846   6.9934   6.9939
     7.0243   7.0254   7.0273   7.0404   7.1026   7.1629   7.1807   7.1828
     7.2025   7.2037   7.2098   7.2314   7.2845   7.2962   7.3262   7.3342
     7.3583   7.3642   7.4128   7.4407   7.4505   7.4798   7.4982   7.5312
     7.5496   7.5524   7.5580   7.5766   7.5941   7.6027   7.6305   7.6357
     7.6524   7.6645   7.6722   7.7135   7.7376   7.7469   7.7956   7.8010
     7.8106   7.8325   7.8579   7.8618   7.8697   7.9011   7.9153   7.9223
     7.9252   7.9768   7.9954   8.0473   8.0507   8.0548   8.0846   8.1035
     8.1083   8.1303   8.1506   8.1762   8.1861   8.1980   8.2070   8.2137
     8.2217   8.2229   8.2417   8.2570   8.2682   8.3130   8.3384   8.3450
     8.3719   8.3952   8.3987   8.4208   8.4243   8.4292   8.4299   8.4752
     8.4998   8.5247   8.5310   8.5346

          k = 0.0000 0.0000 0.0279 (145362 PWs)   bands (ev):

   -21.2921 -21.2831 -20.9022 -20.8901 -20.5652 -20.5617 -20.2461 -20.2354
   -20.0214 -20.0054 -19.6622 -19.6494 -19.4558 -19.4372 -19.0083 -19.0028
   -18.7276 -18.7148 -18.4203 -18.4049 -18.3721 -18.3669 -18.0088 -17.9899
   -17.5829 -17.5763 -17.2625 -17.2383 -17.2121 -17.1907 -16.8970 -16.8833
   -16.7521 -16.7350 -16.4924 -16.4872 -16.2865 -16.2859 -16.0096 -16.0033
   -15.5643 -15.5553 -14.7878 -14.7792 -14.7497 -14.7395 -14.5567 -14.5405
   -14.1319 -14.1260 -14.1067 -14.0661 -13.8841 -13.8763 -13.7688 -13.7629
   -13.5093 -13.4844 -13.0031 -12.9896 -12.7846 -12.7647 -12.3104 -12.2965
   -12.2069 -12.1851 -11.9908 -11.9680 -11.6900 -11.6750 -11.5276 -11.5015
   -11.2895 -11.2840 -11.2730 -11.2706 -10.8516 -10.8185 -10.6929 -10.6743
   -10.5141 -10.5079 -10.3442 -10.3311 -10.1700 -10.1366  -9.8560  -9.8337
    -9.6725  -9.6461  -9.5373  -9.5103  -9.4489  -9.4396  -9.3652  -9.3544
    -9.2469  -9.2308  -9.1367  -9.1119  -9.0967  -9.0718  -8.9938  -8.9795
    -8.9098  -8.8966  -8.7146  -8.7012  -8.6365  -8.6321  -8.6078  -8.5998
    -8.5172  -8.5140  -8.3834  -8.3756  -8.3383  -8.3229  -8.1818  -8.1703
    -8.1620  -8.1485  -7.8993  -7.8808  -7.8469  -7.8104  -7.7669  -7.7568
    -7.6595  -7.6491  -7.6130  -7.6067  -7.4668  -7.4534  -7.3114  -7.3102
    -7.2286  -7.2077  -7.2048  -7.2039  -6.9418  -6.9312  -6.7562  -6.7496
    -6.7100  -6.7044  -6.5780  -6.5564  -6.4931  -6.4756  -6.2718  -6.2707
    -6.1727  -6.1503  -6.0385  -6.0377  -5.7760  -5.7657  -5.7194  -5.7115
    -5.7092  -5.6890  -5.2468  -5.2400  -5.0199  -5.0030  -4.9551  -4.9361
    -4.6581  -4.6523  -4.4490  -4.4431  -4.3915  -4.3873  -4.0359  -4.0212
    -3.5033  -3.4883  -3.1914  -3.1732  -1.3165  -1.3038  -0.9837  -0.9692
    -0.6041  -0.6009  -0.4099  -0.4081  -0.1430  -0.1168  -0.0001   0.0160
     0.2142   0.2339   0.3718   0.4000   0.8159   0.8199   0.8459   0.8597
     1.0059   1.0060   1.2108   1.2174   1.2317   1.2418   1.4175   1.4246
     1.6466   1.6548   1.7693   1.7711   1.7818   1.7913   1.9461   1.9521
     1.9665   1.9699   2.1235   2.1289   2.2597   2.2616   2.3172   2.3369
     2.3424   2.3523   2.4616   2.4679   2.4816   2.5014   2.5078   2.5090
     2.5254   2.5366   2.7624   2.7721   2.7823   2.8080   2.8573   2.8667
     2.8670   2.8704   2.8972   2.9072   3.0710   3.0741   3.0798   3.0974
     3.2821   3.2995   3.3629   3.3632   3.3934   3.4055   3.4347   3.4572
     3.4709   3.4793   3.5082   3.5241   3.5639   3.5755   3.6032   3.6188
     3.7577   3.7714   3.7942   3.8232   3.8769   3.8903   3.9830   3.9835
     3.9946   3.9967   4.0318   4.0352   4.0447   4.0617   4.0618   4.1101
     4.1236   4.1247   4.1355   4.1705   4.2173   4.2245   4.2349   4.2682
     4.2912   4.3433   4.3674   4.3885   4.4406   4.4507   4.4741   4.4943
     4.5965   4.6363   4.6551   4.6895   4.7145   4.7460   4.7715   4.7938
     4.7959   4.8064   4.8798   4.9234   4.9303   4.9483   4.9638   4.9724
     5.0368   5.0381   5.0426   5.0462   5.1428   5.1573   5.1794   5.1803
     5.1810   5.1811   5.2691   5.2753   5.2828   5.3078   5.3481   5.3491
     5.3557   5.3737   5.3804   5.3947   5.4032   5.4199   5.4477   5.4571
     5.5115   5.5133   5.5201   5.5511   5.5626   5.5722   5.5840   5.5952
     5.6849   5.7165   5.7281   5.7685   5.7895   5.7988   5.8134   5.8357
     5.8907   5.9188   5.9455   5.9502   5.9617   5.9729   5.9863   5.9983
     6.0251   6.0347   6.0616   6.0671   6.0948   6.0971   6.1163   6.1215
     6.1407   6.1475   6.2248   6.2324   6.2550   6.2751   6.2845   6.3006
     6.3152   6.3233   6.3356   6.3740   6.3765   6.3795   6.4000   6.4015
     6.4595   6.4600   6.5313   6.5437   6.5520   6.5560   6.6018   6.6137
     6.6235   6.6334   6.6463   6.6527   6.6859   6.7041   6.7213   6.7311
     6.7498   6.7734   6.8580   6.8621   6.8728   6.8777   6.9085   6.9140
     6.9156   6.9272   6.9295   6.9691   6.9843   6.9843   6.9885   6.9944
     7.0244   7.0336   7.0359   7.0577   7.0821   7.1399   7.1768   7.1814
     7.1916   7.1916   7.2029   7.2214   7.2926   7.3021   7.3185   7.3205
     7.3606   7.3637   7.4260   7.4439   7.4573   7.4791   7.5188   7.5458
     7.5563   7.5581   7.5615   7.5748   7.5965   7.5993   7.6073   7.6371
     7.6491   7.6512   7.6722   7.6878   7.7513   7.7702   7.7897   7.7971
     7.8144   7.8323   7.8480   7.8650   7.8663   7.8700   7.9102   7.9123
     7.9418   7.9678   8.0223   8.0503   8.0641   8.0653   8.0819   8.1077
     8.1125   8.1496   8.1501   8.1510   8.1885   8.1944   8.2174   8.2200
     8.2222   8.2319   8.2470   8.2495   8.2650   8.3272   8.3343   8.3471
     8.3699   8.3904   8.3992   8.4170   8.4254   8.4280   8.4504   8.4724
     8.5023   8.5149   8.5318   8.5343

          k = 0.0000 0.0000-0.0291 (145334 PWs)   bands (ev):

   -21.2877 -21.2877 -20.8961 -20.8961 -20.5633 -20.5633 -20.2410 -20.2410
   -20.0134 -20.0134 -19.6558 -19.6558 -19.4463 -19.4463 -19.0055 -19.0055
   -18.7211 -18.7211 -18.4128 -18.4128 -18.3698 -18.3698 -17.9994 -17.9994
   -17.5795 -17.5795 -17.2501 -17.2501 -17.2015 -17.2015 -16.8901 -16.8901
   -16.7433 -16.7433 -16.4896 -16.4896 -16.2865 -16.2865 -16.0070 -16.0070
   -15.5597 -15.5597 -14.7832 -14.7832 -14.7447 -14.7447 -14.5485 -14.5485
   -14.1258 -14.1258 -14.0892 -14.0892 -13.8795 -13.8795 -13.7671 -13.7671
   -13.4972 -13.4972 -12.9965 -12.9965 -12.7747 -12.7747 -12.3031 -12.3031
   -12.1959 -12.1959 -11.9792 -11.9792 -11.6814 -11.6814 -11.5155 -11.5155
   -11.2866 -11.2866 -11.2726 -11.2726 -10.8349 -10.8349 -10.6833 -10.6833
   -10.5107 -10.5107 -10.3388 -10.3388 -10.1530 -10.1530  -9.8445  -9.8445
    -9.6596  -9.6596  -9.5231  -9.5231  -9.4453  -9.4453  -9.3599  -9.3599
    -9.2387  -9.2387  -9.1241  -9.1241  -9.0841  -9.0841  -8.9870  -8.9869
    -8.9032  -8.9032  -8.7078  -8.7078  -8.6341  -8.6341  -8.6041  -8.6041
    -8.5154  -8.5154  -8.3793  -8.3793  -8.3304  -8.3304  -8.1758  -8.1758
    -8.1556  -8.1556  -7.8901  -7.8901  -7.8276  -7.8276  -7.7623  -7.7623
    -7.6545  -7.6545  -7.6100  -7.6100  -7.4601  -7.4601  -7.3110  -7.3110
    -7.2166  -7.2166  -7.2059  -7.2059  -6.9364  -6.9364  -6.7527  -6.7527
    -6.7074  -6.7074  -6.5671  -6.5671  -6.4843  -6.4843  -6.2713  -6.2713
    -6.1620  -6.1619  -6.0381  -6.0381  -5.7693  -5.7693  -5.7157  -5.7156
    -5.7002  -5.7002  -5.2434  -5.2434  -5.0113  -5.0112  -4.9454  -4.9454
    -4.6552  -4.6552  -4.4460  -4.4460  -4.3893  -4.3893  -4.0286  -4.0286
    -3.4957  -3.4957  -3.1826  -3.1826  -1.3100  -1.3100  -0.9758  -0.9758
    -0.6025  -0.6025  -0.4092  -0.4092  -0.1305  -0.1305   0.0080   0.0080
     0.2238   0.2238   0.3857   0.3857   0.8181   0.8181   0.8529   0.8529
     1.0056   1.0056   1.2243   1.2243   1.2263   1.2263   1.4212   1.4212
     1.6507   1.6507   1.7768   1.7768   1.7805   1.7805   1.9497   1.9497
     1.9692   1.9692   2.1257   2.1257   2.2622   2.2622   2.3268   2.3268
     2.3461   2.3461   2.4660   2.4660   2.4906   2.4906   2.5071   2.5071
     2.5308   2.5308   2.7671   2.7671   2.7949   2.7949   2.8612   2.8612
     2.8691   2.8691   2.9023   2.9023   3.0741   3.0741   3.0857   3.0857
     3.2910   3.2910   3.3786   3.3786   3.3844   3.3844   3.4532   3.4532
     3.4702   3.4702   3.5156   3.5156   3.5702   3.5702   3.6078   3.6078
     3.7769   3.7769   3.7972   3.7972   3.8826   3.8826   3.9897   3.9897
     3.9910   3.9910   4.0335   4.0336   4.0615   4.0615   4.0772   4.0772
     4.1321   4.1321   4.1471   4.1471   4.2200   4.2200   4.2528   4.2528
     4.3164   4.3164   4.3755   4.3755   4.4476   4.4476   4.4808   4.4808
     4.6168   4.6168   4.6726   4.6726   4.7304   4.7304   4.7852   4.7852
     4.7981   4.7981   4.9016   4.9016   4.9398   4.9398   4.9774   4.9774
     5.0336   5.0336   5.0376   5.0376   5.1621   5.1621   5.1705   5.1705
     5.1814   5.1814   5.2724   5.2724   5.2945   5.2945   5.3524   5.3524
     5.3610   5.3610   5.3874   5.3874   5.4340   5.4340   5.4341   5.4342
     5.5150   5.5150   5.5334   5.5334   5.5673   5.5673   5.5841   5.5841
     5.7064   5.7064   5.7437   5.7437   5.7956   5.7956   5.8229   5.8229
     5.9039   5.9039   5.9561   5.9561   5.9620   5.9620   5.9888   5.9888
     6.0310   6.0310   6.0656   6.0656   6.0995   6.0995   6.1187   6.1187
     6.1429   6.1429   6.2284   6.2284   6.2604   6.2604   6.2922   6.2922
     6.3188   6.3189   6.3563   6.3563   6.3810   6.3810   6.3978   6.3978
     6.4562   6.4562   6.5374   6.5374   6.5555   6.5555   6.6082   6.6082
     6.6349   6.6349   6.6438   6.6438   6.6947   6.6947   6.7281   6.7281
     6.7607   6.7607   6.8596   6.8596   6.8815   6.8815   6.9143   6.9143
     6.9167   6.9167   6.9515   6.9515   6.9861   6.9861   6.9898   6.9898
     7.0275   7.0275   7.0574   7.0574   7.1010   7.1010   7.1800   7.1800
     7.1848   7.1848   7.2114   7.2114   7.3024   7.3024   7.3134   7.3134
     7.3625   7.3625   7.4363   7.4363   7.4699   7.4699   7.5413   7.5413
     7.5605   7.5605   7.5704   7.5704   7.5864   7.5864   7.6277   7.6277
     7.6450   7.6450   7.6742   7.6742   7.7693   7.7693   7.7910   7.7910
     7.8299   7.8299   7.8417   7.8417   7.8687   7.8687   7.9089   7.9089
     7.9561   7.9561   8.0426   8.0426   8.0772   8.0772   8.0819   8.0819
     8.1265   8.1265   8.1667   8.1667   8.1806   8.1806   8.2291   8.2291
     8.2317   8.2317   8.2343   8.2343   8.2961   8.2961   8.3466   8.3466
     8.3808   8.3808   8.4056   8.4056   8.4281   8.4281   8.4651   8.4651
     8.5076   8.5076   8.5325   8.5325

     the Fermi energy is    -2.9399 ev

     Writing output data file V9_1.save/

     init_run     :     24.58s CPU     25.13s WALL (       1 calls)
     electrons    :  11112.65s CPU  11262.20s WALL (       1 calls)

     Called by init_run:
     wfcinit      :      0.00s CPU      0.00s WALL (       1 calls)
     potinit      :      1.51s CPU      1.64s WALL (       1 calls)
     hinit0       :     19.49s CPU     19.64s WALL (       1 calls)

     Called by electrons:
     c_bands      :  11112.63s CPU  11262.09s WALL (       1 calls)
     v_of_rho     :      1.14s CPU      1.20s WALL (       1 calls)
     newd         :      1.18s CPU      1.41s WALL (       1 calls)

     Called by c_bands:
     init_us_2    :      0.81s CPU      0.84s WALL (      26 calls)
     cegterg      :  10842.01s CPU  10976.57s WALL (      72 calls)

     Called by sum_band:

     Called by *egterg:
     h_psi        :   3636.00s CPU   3724.93s WALL (    1172 calls)
     s_psi        :    402.50s CPU    403.04s WALL (    1172 calls)
     g_psi        :     17.12s CPU     17.15s WALL (    1074 calls)
     cdiaghg      :   3360.32s CPU   3364.54s WALL (    1100 calls)

     Called by h_psi:
     h_psi:pot    :   3628.41s CPU   3713.39s WALL (    1172 calls)
     h_psi:calbec :    437.97s CPU    441.26s WALL (    1172 calls)
     vloc_psi     :   2788.24s CPU   2869.40s WALL (    1172 calls)
     add_vuspsi   :    402.19s CPU    402.72s WALL (    1172 calls)

     General routines
     calbec       :    437.96s CPU    441.26s WALL (    1172 calls)
     fft          :      1.25s CPU      1.33s WALL (      14 calls)
     ffts         :      0.02s CPU      0.02s WALL (       1 calls)
     fftw         :   2622.04s CPU   2702.44s WALL (  555050 calls)
     interpolate  :      0.10s CPU      0.10s WALL (       1 calls)
     davcio       :      0.00s CPU     10.02s WALL (      52 calls)

     Parallel routines
     fft_scatt_xy :    198.40s CPU    199.21s WALL (  555065 calls)
     fft_scatt_yz :   1759.10s CPU   1836.06s WALL (  555065 calls)

     PWSCF        :     3h 6m CPU        6h 3m WALL

      14h

   This run was terminated on:  11:31: 7  20Apr2021            

=------------------------------------------------------------------------------=
   JOB DONE.
=------------------------------------------------------------------------------=
