
     Program PWSCF v.6.3 starts on 20Apr2021 at 11:55:51 

     This program is part of the open-source Quantum ESPRESSO suite
     for quantum simulation of materials; please cite
         "P. Giannozzi et al., J. Phys.:Condens. Matter 21 395502 (2009);
         "P. Giannozzi et al., J. Phys.:Condens. Matter 29 465901 (2017);
          URL http://www.quantum-espresso.org", 
     in publications or presentations arising from this work. More details at
     http://www.quantum-espresso.org/quote

     Parallel version (MPI), running on    16 processors
     R & G space division:  proc/nbgrp/npool/nimage =      16
     Waiting for input...
     Reading input from standard input
     Message from routine read_cards :
     DEPRECATED: no units specified in CELL_PARAMETERS card

     Current dimensions of program PWSCF are:
     Max number of different atomic species (ntypx) = 10
     Max number of k-points (npk) =  40000
     Max angular momentum in pseudopotentials (lmaxx) =  3

     Atomic positions and unit cell read from directory:
     /home/zfwang/scratch/GNRDATASET/AGNR/V9_5/V9_5.save/


     Subspace diagonalization in iterative solution of the eigenvalue problem:
     a serial algorithm will be used


     Parallelization info
     --------------------
     sticks:   dense  smooth     PW     G-vecs:    dense   smooth      PW
     Min        2497     832    214               392759    75561    9874
     Max        2498     834    215               392762    75563    9879
     Sum       39953   13323   3431              6284163  1208991  158023



     bravais-lattice index     =            0
     lattice parameter (alat)  =       1.8897  a.u.
     unit-cell volume          =   35389.2460 (a.u.)^3
     number of atoms/cell      =          108
     number of atomic types    =            2
     number of electrons       =       360.00
     number of Kohn-Sham states=          500
     kinetic-energy cutoff     =      40.0000  Ry
     charge density cutoff     =     480.0000  Ry
     Exchange-correlation      = PBE ( 1  4  3  4 0 0)

     celldm(1)=  18.897261  celldm(2)=   2.931000  celldm(3)=   1.789200
     celldm(4)=   0.000000  celldm(5)=   0.000000  celldm(6)=   0.000000

     crystal axes: (cart. coord. in units of alat)
               a(1) = (  10.000000   0.000000   0.000000 )  
               a(2) = (   0.000000  29.310000   0.000000 )  
               a(3) = (   0.000000   0.000000  17.892000 )  

     reciprocal axes: (cart. coord. in units 2 pi/alat)
               b(1) = (  0.100000  0.000000  0.000000 )  
               b(2) = (  0.000000  0.034118  0.000000 )  
               b(3) = (  0.000000  0.000000  0.055891 )  


     PseudoPot. # 1 for C  read from file:
     /home/zfwang/hp_home/MySoftware/qe-6.3/pseudo/C.pbe-n-rrkjus_psl.0.1.UPF
     MD5 check sum: fff530ed632a789b3b184014e67dd7f1
     Pseudo is Ultrasoft + core correction, Zval =  4.0
     Generated using "atomic" code by A. Dal Corso v.5.0.2 svn rev. 9415
     Using radial grid of 1073 points,  4 beta functions with: 
                l(1) =   0
                l(2) =   0
                l(3) =   1
                l(4) =   1
     Q(r) pseudized with 0 coefficients 


     PseudoPot. # 2 for H  read from file:
     /home/zfwang/hp_home/MySoftware/qe-6.3/pseudo/H.pbe-rrkjus_psl.0.1.UPF
     MD5 check sum: e164a6907b691c6980f16942be34de84
     Pseudo is Ultrasoft, Zval =  1.0
     Generated using "atomic" code by A. Dal Corso v.5.0.2 svn rev. 9415
     Using radial grid of  929 points,  2 beta functions with: 
                l(1) =   0
                l(2) =   0
     Q(r) pseudized with 0 coefficients 


     atomic species   valence    mass     pseudopotential
        C              4.00    12.01070     C ( 1.00)
        H              1.00     1.00794     H ( 1.00)

     No symmetry found



   Cartesian axes

     site n.     atom                  positions (alat units)
         1           C   tau(   1) = (   4.9999998   6.0829787   2.8314230  )
         2           C   tau(   2) = (   5.0000005   6.0914994  16.4460382  )
         3           C   tau(   3) = (   4.9999996   7.2815116   3.5241290  )
         4           C   tau(   4) = (   5.0000005   7.2940133  17.1661751  )
         5           C   tau(   5) = (   5.0000003   6.0914959   1.4459558  )
         6           C   tau(   6) = (   4.9999997   6.0829745  15.0605851  )
         7           C   tau(   7) = (   4.9999999   8.5139110   2.8506290  )
         8           C   tau(   8) = (   5.0000002   8.5341041  16.4649705  )
         9           C   tau(   9) = (   4.9999998   9.7654979   3.5800812  )
        10           C   tau(  10) = (   4.9999993   9.7690336  12.9066383  )
        11           C   tau(  11) = (   5.0000002   9.7896208  17.1778459  )
        12           C   tau(  12) = (   5.0000004   7.2940165   0.7258269  )
        13           C   tau(  13) = (   4.9999991   7.2815149  14.3678651  )
        14           C   tau(  14) = (   5.0000002   8.5341020   1.4270259  )
        15           C   tau(  15) = (   4.9999997   8.5139119  15.0413762  )
        16           C   tau(  16) = (   4.9999999  11.0059117   2.8906332  )
        17           C   tau(  17) = (   4.9999992  10.9325540  12.1787006  )
        18           C   tau(  18) = (   5.0000000  11.0246984  16.4543617  )
        19           C   tau(  19) = (   4.9999997  12.2237040   3.6509135  )
        20           C   tau(  20) = (   4.9999993  12.1925701  12.7965419  )
        21           C   tau(  21) = (   5.0000002  12.2629609  17.1671591  )
        22           C   tau(  22) = (   5.0000002   9.7896210   0.7141558  )
        23           C   tau(  23) = (   4.9999995   9.7690260   4.9853613  )
        24           C   tau(  24) = (   4.9999995   9.7654949  14.3119175  )
        25           C   tau(  25) = (   5.0000001  11.0246988   1.4376385  )
        26           C   tau(  26) = (   4.9999992  10.9325602   5.7133034  )
        27           C   tau(  27) = (   4.9999997  11.0059147  15.0013685  )
        28           C   tau(  28) = (   5.0000002  13.4729381   2.9385213  )
        29           C   tau(  29) = (   4.9999985  13.4065871   7.3517414  )
        30           C   tau(  30) = (   4.9999992  13.4099987  11.9750929  )
        31           C   tau(  31) = (   5.0000003  13.4996664  16.4127411  )
        32           C   tau(  32) = (   5.0000002  14.6669912   3.7349379  )
        33           C   tau(  33) = (   4.9999991  14.5555652   8.1792462  )
        34           C   tau(  34) = (   4.9999998  14.6429990  12.6809293  )
        35           C   tau(  35) = (   5.0000009  14.7544330  17.1252437  )
        36           C   tau(  36) = (   5.0000002  12.2629601   0.7248419  )
        37           C   tau(  37) = (   4.9999992  12.1925681   5.0954587  )
        38           C   tau(  38) = (   4.9999996  12.2237024  14.2410882  )
        39           C   tau(  39) = (   5.0000004  13.4996671   1.4792601  )
        40           C   tau(  40) = (   4.9999990  13.4099985   5.9169083  )
        41           C   tau(  41) = (   4.9999987  13.4065874  10.5402595  )
        42           C   tau(  42) = (   5.0000000  13.4729384  14.9534795  )
        43           C   tau(  43) = (   5.0000008  15.8999905   3.0291054  )
        44           C   tau(  44) = (   4.9999998  15.8103303   7.4667424  )
        45           C   tau(  45) = (   4.9999999  15.8370568  11.8845162  )
        46           C   tau(  46) = (   5.0000011  15.9034001  16.2977288  )
        47           C   tau(  47) = (   5.0000006  17.1174318   3.8505526  )
        48           C   tau(  48) = (   5.0000000  17.0470417   8.2211594  )
        49           C   tau(  49) = (   5.0000003  17.0862889  12.5969077  )
        50           C   tau(  50) = (   5.0000009  14.7544327   0.7667575  )
        51           C   tau(  51) = (   4.9999997  14.6429990   5.2110715  )
        52           C   tau(  52) = (   4.9999991  14.5555653   9.7127548  )
        53           C   tau(  53) = (   5.0000002  14.6669907  14.1570632  )
        54           C   tau(  54) = (   5.0000011  15.9034003   1.5942725  )
        55           C   tau(  55) = (   5.0000001  15.8370568   6.0074852  )
        56           C   tau(  56) = (   4.9999996  15.8103302  10.4252584  )
        57           C   tau(  57) = (   5.0000007  15.8999906  14.8628956  )
        58           C   tau(  58) = (   5.0000003  18.3774270   3.2327109  )
        59           C   tau(  59) = (   5.0000002  18.2853036   7.5083684  )
        60           C   tau(  60) = (   5.0000001  18.3040957  11.8366289  )
        61           C   tau(  61) = (   5.0000000  19.5409897   3.9606606  )
        62           C   tau(  62) = (   5.0000003  19.5203883   8.2318403  )
        63           C   tau(  63) = (   5.0000000  19.5444950  12.5260637  )
        64           C   tau(  64) = (   5.0000004  17.0862894   5.2950933  )
        65           C   tau(  65) = (   4.9999999  17.0470421   9.6708416  )
        66           C   tau(  66) = (   5.0000005  17.1174324  14.0414485  )
        67           C   tau(  67) = (   5.0000002  18.3040941   6.0553730  )
        68           C   tau(  68) = (   5.0000000  18.2853030  10.3836320  )
        69           C   tau(  69) = (   5.0000001  18.3774234  14.6592927  )
        70           C   tau(  70) = (   5.0000004  20.7759014   7.5189875  )
        71           C   tau(  71) = (   5.0000002  20.7960970  11.7966333  )
        72           C   tau(  72) = (   5.0000007  22.0159889   8.2201721  )
        73           C   tau(  73) = (   5.0000004  22.0284902  12.4701130  )
        74           C   tau(  74) = (   5.0000000  19.5444967   5.3659363  )
        75           C   tau(  75) = (   5.0000002  19.5203884   9.6601612  )
        76           C   tau(  76) = (   4.9999998  19.5409937  13.9313401  )
        77           C   tau(  77) = (   5.0000002  20.7960965   6.0953707  )
        78           C   tau(  78) = (   5.0000003  20.7759024  10.3730116  )
        79           C   tau(  79) = (   5.0000011  23.2185074   7.5000577  )
        80           C   tau(  80) = (   5.0000009  23.2270110  11.7774262  )
        81           C   tau(  81) = (   5.0000002  22.0284882   5.4218850  )
        82           C   tau(  82) = (   5.0000006  22.0159863   9.6718307  )
        83           C   tau(  83) = (   5.0000008  23.2270137   6.1145807  )
        84           C   tau(  84) = (   5.0000010  23.2185101  10.3919401  )
        85           H   tau(  85) = (   4.9999996   5.1360874   3.3723818  )
        86           H   tau(  86) = (   5.0000010   5.1387745  16.9690073  )
        87           H   tau(  87) = (   4.9999991   7.2468355   4.6097815  )
        88           H   tau(  88) = (   5.0000004   5.1387764   0.9229940  )
        89           H   tau(  89) = (   4.9999994   5.1360880  14.5196180  )
        90           H   tau(  90) = (   4.9999995   8.8305940  12.3596777  )
        91           H   tau(  91) = (   4.9999983   7.2468356  13.2822210  )
        92           H   tau(  92) = (   4.9999989  10.8556617  11.0932121  )
        93           H   tau(  93) = (   4.9999997   8.8305962   5.5323222  )
        94           H   tau(  94) = (   4.9999991  10.8556611   6.7987873  )
        95           H   tau(  95) = (   4.9999973  12.4363093   7.8459416  )
        96           H   tau(  96) = (   4.9999980  12.4363096  10.0460593  )
        97           H   tau(  97) = (   5.0000017  16.8736847  16.7919098  )
        98           H   tau(  98) = (   5.0000016  16.8736848   1.1000908  )
        99           H   tau(  99) = (   5.0000004  18.4543490   2.1472398  )
       100           H   tau( 100) = (   4.9999997  20.4794058   3.4137022  )
       101           H   tau( 101) = (   4.9999999  18.4543487  15.7447608  )
       102           H   tau( 102) = (   5.0000004  22.0631763  13.5557791  )
       103           H   tau( 103) = (   4.9999993  20.4794046  14.4782989  )
       104           H   tau( 104) = (   5.0000016  24.1712265   8.0230049  )
       105           H   tau( 105) = (   5.0000013  24.1739057  12.3183690  )
       106           H   tau( 106) = (   5.0000001  22.0631766   4.3362239  )
       107           H   tau( 107) = (   5.0000009  24.1739056   5.5736326  )
       108           H   tau( 108) = (   5.0000016  24.1712250   9.8689978  )

     number of k points=    26  Marzari-Vanderbilt smearing, width (Ry)=  0.0100
                       cart. coord. in units 2pi/alat
        k(    1) = (   0.0000000   0.0000000   0.0000000), wk =   0.0400000
        k(    2) = (   0.0000000   0.0000000   0.0011178), wk =   0.0800000
        k(    3) = (   0.0000000   0.0000000   0.0022356), wk =   0.0800000
        k(    4) = (   0.0000000   0.0000000   0.0033535), wk =   0.0800000
        k(    5) = (   0.0000000   0.0000000   0.0044713), wk =   0.0800000
        k(    6) = (   0.0000000   0.0000000   0.0055891), wk =   0.0800000
        k(    7) = (   0.0000000   0.0000000   0.0067069), wk =   0.0800000
        k(    8) = (   0.0000000   0.0000000   0.0078247), wk =   0.0800000
        k(    9) = (   0.0000000   0.0000000   0.0089425), wk =   0.0800000
        k(   10) = (   0.0000000   0.0000000   0.0100604), wk =   0.0800000
        k(   11) = (   0.0000000   0.0000000   0.0111782), wk =   0.0800000
        k(   12) = (   0.0000000   0.0000000   0.0122960), wk =   0.0800000
        k(   13) = (   0.0000000   0.0000000   0.0134138), wk =   0.0800000
        k(   14) = (   0.0000000   0.0000000   0.0145316), wk =   0.0800000
        k(   15) = (   0.0000000   0.0000000   0.0156495), wk =   0.0800000
        k(   16) = (   0.0000000   0.0000000   0.0167673), wk =   0.0800000
        k(   17) = (   0.0000000   0.0000000   0.0178851), wk =   0.0800000
        k(   18) = (   0.0000000   0.0000000   0.0190029), wk =   0.0800000
        k(   19) = (   0.0000000   0.0000000   0.0201207), wk =   0.0800000
        k(   20) = (   0.0000000   0.0000000   0.0212385), wk =   0.0800000
        k(   21) = (   0.0000000   0.0000000   0.0223564), wk =   0.0800000
        k(   22) = (   0.0000000   0.0000000   0.0234742), wk =   0.0800000
        k(   23) = (   0.0000000   0.0000000   0.0245920), wk =   0.0800000
        k(   24) = (   0.0000000   0.0000000   0.0257098), wk =   0.0800000
        k(   25) = (   0.0000000   0.0000000   0.0268276), wk =   0.0800000
        k(   26) = (   0.0000000   0.0000000  -0.0279455), wk =   0.0400000

     Dense  grid:  6284163 G-vectors     FFT dimensions: ( 135, 400, 240)

     Smooth grid:  1208991 G-vectors     FFT dimensions: (  80, 225, 144)

     Estimated max dynamical RAM per process >       1.32 GB

     Estimated total dynamical RAM >      21.10 GB

     The potential is recalculated from file :
     /home/zfwang/scratch/GNRDATASET/AGNR/V9_5/V9_5.save/charge-density.dat


     negative rho (up, down):  2.980E-04 0.000E+00
     Starting wfcs are  360 randomized atomic wfcs +  140 random wfcs

     Band Structure Calculation
     Davidson diagonalization with overlap

     ethr =  2.78E-09,  avg # of iterations = 41.2

     total cpu time spent up to now is     9939.2 secs

     End of band structure calculation

          k = 0.0000 0.0000 0.0000 (150997 PWs)   bands (ev):

   -21.2573 -21.1450 -20.9422 -20.7577 -20.6215 -20.4895 -20.2194 -20.1245
   -20.0225 -19.7965 -19.7795 -19.6457 -19.5111 -19.3483 -19.0179 -18.9124
   -18.8645 -18.5613 -18.4607 -18.3554 -18.3200 -18.2015 -18.0584 -17.8475
   -17.7410 -17.6594 -17.4702 -17.3103 -17.0315 -17.0295 -17.0271 -16.8578
   -16.8545 -16.7307 -16.5978 -16.4811 -16.2258 -16.2043 -16.0540 -15.9134
   -15.6463 -15.4407 -15.0119 -14.8915 -14.7614 -14.6095 -14.6006 -14.5564
   -14.2380 -14.2345 -14.1643 -14.1634 -13.9548 -13.8260 -13.6824 -13.6806
   -13.4218 -13.1461 -13.1035 -12.8900 -12.8842 -12.8708 -12.5896 -12.4183
   -12.3226 -12.1812 -12.0066 -11.9485 -11.9078 -11.7320 -11.5535 -11.3772
   -11.3301 -11.2615 -11.1223 -11.0721 -11.0161 -10.9069 -10.7200 -10.7104
   -10.6298 -10.5561 -10.4735 -10.2767 -10.0443 -10.0078  -9.9846  -9.9076
    -9.8891  -9.8480  -9.6376  -9.4914  -9.4505  -9.3706  -9.3246  -9.3189
    -9.2736  -9.2716  -9.2193  -9.1627  -9.0002  -8.9969  -8.9964  -8.9740
    -8.9206  -8.8807  -8.8205  -8.7797  -8.7750  -8.6766  -8.6654  -8.6010
    -8.5927  -8.5467  -8.5209  -8.4908  -8.4449  -8.2886  -8.1913  -8.1745
    -8.1380  -8.0943  -8.0707  -7.9450  -7.9153  -7.8518  -7.7417  -7.7174
    -7.6746  -7.6465  -7.6234  -7.5731  -7.5330  -7.3972  -7.3504  -7.2929
    -7.2917  -7.2904  -7.1279  -7.1111  -7.0750  -6.9521  -6.9000  -6.8520
    -6.7792  -6.7122  -6.7062  -6.6798  -6.5660  -6.4220  -6.2883  -6.2869
    -6.1039  -6.0778  -6.0249  -6.0161  -6.0141  -5.9542  -5.8838  -5.7600
    -5.6149  -5.5467  -5.4167  -5.3534  -5.1817  -5.1538  -4.9054  -4.8860
    -4.7296  -4.7243  -4.5837  -4.4670  -4.4632  -4.4049  -4.1360  -3.9016
    -3.6859  -3.6501  -3.2776  -3.0139  -1.6141  -1.3911  -1.2831  -1.0309
    -0.7173  -0.6894  -0.4888  -0.3904  -0.3252  -0.2594   0.0059   0.0168
     0.0559   0.0782   0.4206   0.5684   0.6844   0.7179   0.7601   0.8211
     0.8250   0.9851   1.0169   1.0703   1.1888   1.1973   1.2632   1.3879
     1.5072   1.5156   1.5162   1.5457   1.6034   1.6886   1.7067   1.8388
     1.8678   1.8892   1.9125   2.0050   2.0331   2.1825   2.1828   2.2425
     2.2733   2.3129   2.3522   2.3814   2.5024   2.5505   2.5523   2.5945
     2.6610   2.6658   2.6705   2.6855   2.6920   2.7134   2.7240   2.7268
     2.7942   2.9044   2.9188   2.9300   2.9778   2.9788   3.0051   3.0150
     3.0194   3.0603   3.0703   3.1374   3.1524   3.1643   3.1652   3.2195
     3.3746   3.4104   3.4113   3.4224   3.4349   3.4421   3.5301   3.5466
     3.5515   3.5632   3.6095   3.6250   3.6390   3.7065   3.7143   3.8150
     3.8459   3.8587   3.8596   3.9162   3.9459   3.9646   4.0007   4.0115
     4.0762   4.0911   4.1175   4.1177   4.1622   4.1634   4.1679   4.1890
     4.2095   4.2554   4.2841   4.3148   4.3150   4.3310   4.3811   4.3878
     4.4081   4.4211   4.4432   4.4801   4.4892   4.4956   4.5156   4.5337
     4.5573   4.5716   4.6116   4.6394   4.6905   4.7023   4.7080   4.7252
     4.7805   4.8020   4.8189   4.8524   4.8847   4.8996   4.9511   4.9558
     4.9592   4.9604   4.9895   4.9915   5.0729   5.1444   5.1489   5.1496
     5.1766   5.1897   5.1941   5.2055   5.2592   5.2753   5.3030   5.3102
     5.3280   5.3517   5.3778   5.3794   5.4022   5.4177   5.4511   5.4640
     5.5088   5.5276   5.5278   5.5374   5.5533   5.5744   5.5920   5.6305
     5.6331   5.6623   5.6716   5.6740   5.6997   5.7115   5.7516   5.7732
     5.7849   5.7907   5.8478   5.8842   5.9018   5.9051   5.9054   5.9250
     5.9559   5.9647   5.9745   6.0007   6.0349   6.0599   6.0707   6.0737
     6.0775   6.1362   6.1585   6.1618   6.1971   6.2167   6.2725   6.2812
     6.2917   6.2998   6.3235   6.3513   6.3519   6.3791   6.3845   6.4011
     6.4047   6.4092   6.4206   6.4633   6.4845   6.5257   6.5328   6.5525
     6.5571   6.5708   6.5953   6.6060   6.6183   6.6297   6.6615   6.6693
     6.7123   6.7320   6.7374   6.7414   6.7552   6.7671   6.8022   6.8129
     6.8261   6.8499   6.8611   6.8823   6.9098   6.9182   6.9329   6.9881
     7.0007   7.0110   7.0282   7.0368   7.0389   7.0424   7.0573   7.0774
     7.0803   7.0997   7.1281   7.1288   7.1501   7.1703   7.1907   7.2039
     7.2531   7.2805   7.2857   7.3212   7.3265   7.3387   7.3488   7.3594
     7.3715   7.4290   7.4846   7.4939   7.4957   7.5155   7.5168   7.5685
     7.5758   7.6027   7.6156   7.6159   7.6207   7.6230   7.6256   7.6404
     7.7103   7.7159   7.7509   7.7599   7.7845   7.7885   7.7928   7.8296
     7.8451   7.8469   7.8883   7.8903   7.8911   7.9094   7.9424   7.9479
     7.9723   7.9833   7.9845   7.9971   8.0529   8.0639   8.0881   8.0930
     8.1047   8.1085   8.1291   8.1789   8.2029   8.2160   8.2230   8.2412
     8.2532   8.2870   8.2994   8.3122

          k = 0.0000 0.0000 0.0011 (151005 PWs)   bands (ev):

   -21.2572 -21.1452 -20.9420 -20.7580 -20.6212 -20.4895 -20.2195 -20.1241
   -20.0230 -19.7983 -19.7781 -19.6448 -19.5113 -19.3483 -19.0178 -18.9131
   -18.8635 -18.5618 -18.4602 -18.3555 -18.3206 -18.2008 -18.0598 -17.8475
   -17.7399 -17.6592 -17.4698 -17.3103 -17.0319 -17.0292 -17.0276 -16.8576
   -16.8544 -16.7311 -16.5973 -16.4811 -16.2259 -16.2045 -16.0542 -15.9140
   -15.6464 -15.4409 -15.0106 -14.8913 -14.7616 -14.6122 -14.5983 -14.5560
   -14.2379 -14.2361 -14.1671 -14.1583 -13.9547 -13.8263 -13.6862 -13.6770
   -13.4230 -13.1480 -13.1030 -12.9056 -12.8845 -12.8528 -12.5905 -12.4174
   -12.3221 -12.1809 -12.0085 -11.9487 -11.9057 -11.7320 -11.5540 -11.3766
   -11.3299 -11.2616 -11.1236 -11.0764 -11.0115 -10.9080 -10.7195 -10.7105
   -10.6286 -10.5560 -10.4736 -10.2770 -10.0441 -10.0101  -9.9847  -9.9070
    -9.8960  -9.8382  -9.6382  -9.4926  -9.4490  -9.3705  -9.3315  -9.3123
    -9.2775  -9.2679  -9.2196  -9.1639  -9.0034  -8.9999  -8.9893  -8.9794
    -8.9141  -8.8826  -8.8196  -8.7800  -8.7752  -8.6765  -8.6647  -8.6007
    -8.5924  -8.5480  -8.5198  -8.4907  -8.4450  -8.2886  -8.1915  -8.1745
    -8.1386  -8.0947  -8.0699  -7.9456  -7.9147  -7.8516  -7.7415  -7.7174
    -7.6745  -7.6493  -7.6215  -7.5739  -7.5315  -7.3986  -7.3506  -7.2931
    -7.2910  -7.2904  -7.1306  -7.1088  -7.0753  -6.9508  -6.9001  -6.8518
    -6.7792  -6.7160  -6.7020  -6.6801  -6.5660  -6.4217  -6.2938  -6.2817
    -6.1061  -6.0778  -6.0227  -6.0170  -6.0139  -5.9530  -5.8850  -5.7602
    -5.6152  -5.5468  -5.4159  -5.3533  -5.1819  -5.1533  -4.9058  -4.8860
    -4.7295  -4.7243  -4.5836  -4.4669  -4.4635  -4.4048  -4.1359  -3.9022
    -3.6859  -3.6496  -3.2778  -3.0144  -1.6137  -1.3903  -1.2834  -1.0308
    -0.7173  -0.6894  -0.4888  -0.3914  -0.3252  -0.2584   0.0052   0.0170
     0.0556   0.0785   0.4192   0.5681   0.6823   0.7181   0.7602   0.8210
     0.8259   0.9850   1.0207   1.0693   1.1878   1.1982   1.2644   1.3872
     1.5025   1.5074   1.5257   1.5501   1.6033   1.6886   1.7066   1.8384
     1.8683   1.8842   1.9177   2.0050   2.0337   2.1819   2.1827   2.2416
     2.2736   2.3131   2.3531   2.3819   2.5014   2.5504   2.5510   2.5945
     2.6554   2.6577   2.6770   2.6850   2.6976   2.7151   2.7232   2.7277
     2.7927   2.9023   2.9141   2.9324   2.9751   2.9775   3.0040   3.0180
     3.0268   3.0584   3.0730   3.1385   3.1526   3.1598   3.1671   3.2240
     3.3728   3.4033   3.4118   3.4126   3.4429   3.4530   3.5283   3.5471
     3.5523   3.5611   3.6052   3.6318   3.6380   3.7047   3.7182   3.8080
     3.8527   3.8575   3.8582   3.9164   3.9469   3.9643   4.0001   4.0114
     4.0758   4.0901   4.1126   4.1175   4.1538   4.1696   4.1703   4.1792
     4.2150   4.2656   4.2802   4.3139   4.3201   4.3350   4.3731   4.3846
     4.4082   4.4296   4.4455   4.4668   4.4859   4.4942   4.5194   4.5457
     4.5559   4.5711   4.6173   4.6357   4.6907   4.7072   4.7084   4.7267
     4.7583   4.8165   4.8240   4.8471   4.8903   4.8991   4.9392   4.9437
     4.9596   4.9612   4.9921   5.0103   5.0730   5.1404   5.1417   5.1512
     5.1580   5.1933   5.2059   5.2116   5.2503   5.2752   5.3028   5.3110
     5.3362   5.3453   5.3832   5.3854   5.4009   5.4177   5.4499   5.4630
     5.5055   5.5247   5.5266   5.5380   5.5595   5.5764   5.5887   5.6322
     5.6345   5.6541   5.6570   5.6789   5.7135   5.7187   5.7506   5.7723
     5.7842   5.7868   5.8497   5.8745   5.9032   5.9070   5.9098   5.9234
     5.9611   5.9661   5.9759   6.0005   6.0367   6.0562   6.0714   6.0769
     6.0804   6.1246   6.1579   6.1747   6.1948   6.2169   6.2722   6.2744
     6.2820   6.3002   6.3226   6.3517   6.3571   6.3741   6.3840   6.4051
     6.4085   6.4121   6.4187   6.4576   6.4868   6.5267   6.5268   6.5495
     6.5590   6.5703   6.5963   6.6085   6.6197   6.6302   6.6601   6.6707
     6.7163   6.7327   6.7357   6.7412   6.7559   6.7682   6.8031   6.8108
     6.8243   6.8548   6.8603   6.8816   6.9108   6.9120   6.9347   6.9923
     6.9973   7.0085   7.0276   7.0324   7.0359   7.0408   7.0578   7.0794
     7.0930   7.1005   7.1302   7.1303   7.1530   7.1715   7.1784   7.2093
     7.2543   7.2723   7.2864   7.3195   7.3362   7.3377   7.3488   7.3696
     7.3715   7.4281   7.4822   7.4922   7.4985   7.5168   7.5175   7.5590
     7.5739   7.6036   7.6095   7.6194   7.6195   7.6284   7.6353   7.6398
     7.7065   7.7152   7.7529   7.7547   7.7709   7.7905   7.7957   7.8263
     7.8498   7.8514   7.8863   7.8882   7.8987   7.9025   7.9381   7.9495
     7.9675   7.9748   8.0012   8.0044   8.0486   8.0642   8.0865   8.0882
     8.1080   8.1110   8.1308   8.1759   8.2082   8.2145   8.2210   8.2407
     8.2426   8.2895   8.3037   8.3127

          k = 0.0000 0.0000 0.0022 (151008 PWs)   bands (ev):

   -21.2570 -21.1458 -20.9414 -20.7588 -20.6204 -20.4896 -20.2198 -20.1230
   -20.0245 -19.8026 -19.7747 -19.6423 -19.5121 -19.3485 -19.0175 -18.9153
   -18.8607 -18.5633 -18.4588 -18.3557 -18.3222 -18.1987 -18.0641 -17.8477
   -17.7367 -17.6588 -17.4688 -17.3102 -17.0331 -17.0292 -17.0282 -16.8570
   -16.8540 -16.7321 -16.5957 -16.4811 -16.2263 -16.2050 -16.0545 -15.9158
   -15.6465 -15.4413 -15.0067 -14.8906 -14.7624 -14.6173 -14.5943 -14.5551
   -14.2404 -14.2375 -14.1686 -14.1506 -13.9544 -13.8274 -13.6909 -13.6729
   -13.4263 -13.1539 -13.1014 -12.9249 -12.8855 -12.8262 -12.5930 -12.4148
   -12.3205 -12.1802 -12.0138 -11.9494 -11.8999 -11.7322 -11.5557 -11.3751
   -11.3293 -11.2621 -11.1277 -11.0862 -11.0004 -10.9112 -10.7179 -10.7110
   -10.6251 -10.5557 -10.4739 -10.2780 -10.0436 -10.0164  -9.9871  -9.9060
    -9.9051  -9.8184  -9.6400  -9.4959  -9.4448  -9.3702  -9.3408  -9.3038
    -9.2825  -9.2638  -9.2204  -9.1672  -9.0096  -8.9990  -8.9911  -8.9815
    -8.8991  -8.8881  -8.8171  -8.7809  -8.7754  -8.6764  -8.6624  -8.5999
    -8.5916  -8.5517  -8.5172  -8.4906  -8.4452  -8.2887  -8.1921  -8.1744
    -8.1402  -8.0958  -8.0676  -7.9474  -7.9130  -7.8509  -7.7410  -7.7174
    -7.6743  -7.6559  -7.6174  -7.5763  -7.5272  -7.4025  -7.3513  -7.2936
    -7.2902  -7.2892  -7.1367  -7.1043  -7.0761  -6.9472  -6.9003  -6.8512
    -6.7791  -6.7214  -6.6955  -6.6808  -6.5659  -6.4208  -6.3002  -6.2761
    -6.1122  -6.0779  -6.0194  -6.0166  -6.0134  -5.9497  -5.8885  -5.7609
    -5.6158  -5.5473  -5.4134  -5.3529  -5.1824  -5.1517  -4.9071  -4.8862
    -4.7292  -4.7240  -4.5834  -4.4666  -4.4644  -4.4043  -4.1355  -3.9040
    -3.6856  -3.6479  -3.2786  -3.0157  -1.6125  -1.3879  -1.2840  -1.0306
    -0.7171  -0.6895  -0.4890  -0.3944  -0.3253  -0.2555   0.0032   0.0176
     0.0548   0.0795   0.4151   0.5671   0.6767   0.7185   0.7605   0.8206
     0.8286   0.9848   1.0316   1.0664   1.1849   1.2010   1.2679   1.3848
     1.4921   1.5005   1.5365   1.5599   1.6027   1.6889   1.7061   1.8373
     1.8697   1.8747   1.9280   2.0052   2.0353   2.1803   2.1822   2.2389
     2.2744   2.3135   2.3555   2.3835   2.4985   2.5473   2.5501   2.5944
     2.6443   2.6464   2.6832   2.6836   2.7087   2.7200   2.7211   2.7301
     2.7884   2.8972   2.9020   2.9384   2.9690   2.9736   3.0047   3.0251
     3.0427   3.0558   3.0782   3.1420   3.1490   3.1533   3.1727   3.2345
     3.3682   3.3898   3.3952   3.4185   3.4564   3.4701   3.5231   3.5484
     3.5551   3.5553   3.5998   3.6357   3.6446   3.6995   3.7289   3.7944
     3.8541   3.8543   3.8657   3.9171   3.9491   3.9633   3.9980   4.0112
     4.0743   4.0873   4.1011   4.1167   4.1440   4.1588   4.1745   4.1762
     4.2284   4.2730   4.2875   4.3126   4.3310   4.3450   4.3574   4.3763
     4.4077   4.4460   4.4465   4.4497   4.4722   4.4967   4.5267   4.5517
     4.5680   4.5689   4.6278   4.6326   4.6916   4.7098   4.7186   4.7285
     4.7309   4.8079   4.8394   4.8524   4.8986   4.8988   4.9104   4.9326
     4.9581   4.9661   4.9939   5.0417   5.0735   5.1287   5.1292   5.1383
     5.1433   5.2017   5.2070   5.2323   5.2350   5.2744   5.3029   5.3137
     5.3336   5.3470   5.3933   5.3972   5.4049   5.4176   5.4468   5.4609
     5.4978   5.5162   5.5260   5.5390   5.5741   5.5807   5.5808   5.6196
     5.6369   5.6483   5.6487   5.6862   5.7186   5.7445   5.7469   5.7715
     5.7795   5.7822   5.8521   5.8601   5.9003   5.9120   5.9155   5.9245
     5.9700   5.9726   5.9797   6.0001   6.0405   6.0490   6.0740   6.0842
     6.0874   6.1090   6.1563   6.1881   6.1945   6.2174   6.2397   6.2714
     6.2843   6.3010   6.3205   6.3527   6.3613   6.3614   6.3822   6.4055
     6.4061   6.4142   6.4386   6.4450   6.4919   6.5112   6.5273   6.5437
     6.5575   6.5719   6.5996   6.6162   6.6218   6.6311   6.6564   6.6751
     6.7257   6.7322   6.7323   6.7409   6.7577   6.7740   6.8041   6.8054
     6.8242   6.8584   6.8653   6.8795   6.8955   6.9169   6.9369   6.9897
     7.0017   7.0023   7.0132   7.0281   7.0344   7.0454   7.0582   7.0893
     7.1031   7.1144   7.1345   7.1355   7.1562   7.1604   7.1744   7.2165
     7.2520   7.2593   7.2886   7.3197   7.3351   7.3485   7.3603   7.3715
     7.3888   7.4269   7.4760   7.4829   7.5102   7.5165   7.5236   7.5430
     7.5678   7.6010   7.6064   7.6160   7.6280   7.6353   7.6376   7.6528
     7.7009   7.7089   7.7400   7.7533   7.7611   7.7878   7.7921   7.8244
     7.8534   7.8639   7.8778   7.8871   7.8873   7.9174   7.9320   7.9461
     7.9561   7.9810   8.0133   8.0208   8.0419   8.0674   8.0827   8.0887
     8.1062   8.1115   8.1320   8.1678   8.2055   8.2163   8.2168   8.2334
     8.2463   8.2957   8.3139   8.3144

          k = 0.0000 0.0000 0.0034 (151022 PWs)   bands (ev):

   -21.2566 -21.1467 -20.9403 -20.7601 -20.6191 -20.4898 -20.2204 -20.1211
   -20.0269 -19.8083 -19.7706 -19.6381 -19.5134 -19.3489 -19.0169 -18.9184
   -18.8565 -18.5657 -18.4564 -18.3561 -18.3248 -18.1954 -18.0709 -17.8482
   -17.7314 -17.6582 -17.4670 -17.3100 -17.0352 -17.0317 -17.0266 -16.8560
   -16.8533 -16.7338 -16.5932 -16.4810 -16.2270 -16.2057 -16.0551 -15.9187
   -15.6466 -15.4421 -15.0004 -14.8893 -14.7636 -14.6232 -14.5903 -14.5535
   -14.2463 -14.2369 -14.1691 -14.1410 -13.9540 -13.8293 -13.6959 -13.6688
   -13.4318 -13.1635 -13.0991 -12.9411 -12.8870 -12.7979 -12.5970 -12.4106
   -12.3178 -12.1789 -12.0214 -11.9505 -11.8913 -11.7325 -11.5582 -11.3729
   -11.3283 -11.2630 -11.1353 -11.0972 -10.9867 -10.9163 -10.7154 -10.7118
   -10.6194 -10.5554 -10.4743 -10.2797 -10.0426 -10.0253  -9.9941  -9.9108
    -9.9021  -9.7959  -9.6429  -9.5006  -9.4387  -9.3697  -9.3506  -9.2956
    -9.2875  -9.2599  -9.2217  -9.1726  -9.0153  -9.0042  -8.9976  -8.9734
    -8.8959  -8.8807  -8.8143  -8.7823  -8.7757  -8.6762  -8.6588  -8.5985
    -8.5902  -8.5566  -8.5138  -8.4903  -8.4454  -8.2889  -8.1930  -8.1743
    -8.1425  -8.0976  -8.0640  -7.9503  -7.9102  -7.8497  -7.7400  -7.7173
    -7.6740  -7.6643  -7.6125  -7.5805  -7.5205  -7.4086  -7.3525  -7.2944
    -7.2900  -7.2865  -7.1440  -7.0994  -7.0775  -6.9413  -6.9006  -6.8503
    -6.7789  -6.7266  -6.6884  -6.6821  -6.5657  -6.4192  -6.3069  -6.2707
    -6.1208  -6.0780  -6.0230  -6.0126  -6.0079  -5.9446  -5.8942  -5.7620
    -5.6168  -5.5483  -5.4093  -5.3522  -5.1831  -5.1492  -4.9093  -4.8866
    -4.7286  -4.7237  -4.5829  -4.4660  -4.4658  -4.4036  -4.1349  -3.9069
    -3.6852  -3.6453  -3.2799  -3.0179  -1.6106  -1.3841  -1.2851  -1.0303
    -0.7169  -0.6896  -0.4892  -0.3989  -0.3255  -0.2508  -0.0002   0.0186
     0.0534   0.0810   0.4086   0.5648   0.6688   0.7191   0.7610   0.8200
     0.8331   0.9845   1.0487   1.0619   1.1807   1.2052   1.2731   1.3810
     1.4795   1.4953   1.5480   1.5715   1.6017   1.6892   1.7055   1.8355
     1.8643   1.8719   1.9397   2.0056   2.0380   2.1776   2.1812   2.2349
     2.2758   2.3143   2.3593   2.3861   2.4937   2.5413   2.5495   2.5933
     2.6327   2.6343   2.6812   2.6876   2.7177   2.7209   2.7276   2.7335
     2.7820   2.8862   2.8904   2.9465   2.9617   2.9675   3.0082   3.0339
     3.0545   3.0619   3.0839   3.1357   3.1479   3.1543   3.1815   3.2473
     3.3621   3.3762   3.3781   3.4267   3.4698   3.4880   3.5149   3.5473
     3.5503   3.5603   3.5966   3.6324   3.6594   3.6913   3.7443   3.7793
     3.8483   3.8492   3.8799   3.9183   3.9509   3.9614   3.9945   4.0104
     4.0716   4.0830   4.0885   4.1145   4.1353   4.1359   4.1811   4.1816
     4.2446   4.2668   4.3118   4.3130   4.3403   4.3432   4.3590   4.3643
     4.4024   4.4288   4.4477   4.4653   4.4701   4.4975   4.5337   4.5446
     4.5641   4.5923   4.6206   4.6539   4.6934   4.6991   4.7126   4.7327
     4.7373   4.7934   4.8352   4.8730   4.8825   4.9012   4.9042   4.9195
     4.9594   4.9683   4.9971   5.0737   5.0749   5.1035   5.1182   5.1275
     5.1277   5.2088   5.2093   5.2255   5.2438   5.2737   5.3050   5.3149
     5.3234   5.3564   5.3915   5.4042   5.4175   5.4242   5.4502   5.4595
     5.4905   5.5041   5.5272   5.5364   5.5735   5.5851   5.5912   5.5923
     5.6393   5.6440   5.6597   5.6924   5.7247   5.7300   5.7716   5.7751
     5.7763   5.7793   5.8479   5.8520   5.8928   5.9176   5.9203   5.9329
     5.9754   5.9785   5.9915   5.9995   6.0296   6.0559   6.0785   6.0950
     6.0957   6.0979   6.1538   6.1769   6.2000   6.2124   6.2188   6.2707
     6.2887   6.3014   6.3177   6.3441   6.3547   6.3625   6.3780   6.3981
     6.4056   6.4113   6.4340   6.4640   6.4961   6.4966   6.5197   6.5439
     6.5504   6.5737   6.6056   6.6216   6.6276   6.6301   6.6525   6.6821
     6.7236   6.7277   6.7408   6.7419   6.7601   6.7878   6.7988   6.8037
     6.8300   6.8559   6.8706   6.8757   6.8840   6.9210   6.9381   6.9815
     6.9938   6.9951   7.0117   7.0286   7.0322   7.0523   7.0577   7.1041
     7.1073   7.1334   7.1380   7.1401   7.1411   7.1703   7.1782   7.2252
     7.2287   7.2672   7.2921   7.3228   7.3321   7.3475   7.3712   7.3907
     7.4059   7.4278   7.4679   7.4703   7.5153   7.5252   7.5302   7.5336
     7.5613   7.5939   7.6094   7.6114   7.6327   7.6347   7.6408   7.6668
     7.6878   7.7131   7.7209   7.7352   7.7738   7.7797   7.7869   7.8198
     7.8474   7.8698   7.8702   7.8812   7.8859   7.9250   7.9377   7.9404
     7.9514   7.9896   8.0147   8.0388   8.0420   8.0721   8.0818   8.0898
     8.1025   8.1035   8.1271   8.1573   8.2023   8.2119   8.2175   8.2362
     8.2653   8.3017   8.3020   8.3090

          k = 0.0000 0.0000 0.0045 (151056 PWs)   bands (ev):

   -21.2561 -21.1480 -20.9388 -20.7619 -20.6172 -20.4901 -20.2211 -20.1186
   -20.0302 -19.8149 -19.7661 -19.6326 -19.5152 -19.3494 -19.0162 -18.9221
   -18.8513 -18.5690 -18.4534 -18.3566 -18.3281 -18.1909 -18.0799 -17.8494
   -17.7242 -17.6572 -17.4647 -17.3097 -17.0384 -17.0349 -17.0244 -16.8548
   -16.8523 -16.7361 -16.5897 -16.4809 -16.2279 -16.2068 -16.0560 -15.9228
   -15.6466 -15.4432 -14.9918 -14.8876 -14.7652 -14.6293 -14.5868 -14.5514
   -14.2530 -14.2361 -14.1689 -14.1300 -13.9534 -13.8319 -13.7011 -13.6649
   -13.4393 -13.1766 -13.0963 -12.9532 -12.8891 -12.7687 -12.6023 -12.4049
   -12.3141 -12.1770 -12.0304 -11.9519 -11.8808 -11.7330 -11.5614 -11.3701
   -11.3268 -11.2641 -11.1468 -11.1072 -10.9719 -10.9227 -10.7128 -10.7121
   -10.6121 -10.5549 -10.4746 -10.2820 -10.0411 -10.0373 -10.0047  -9.9093
    -9.8980  -9.7725  -9.6467  -9.5063  -9.4313  -9.3690  -9.3605  -9.2925
    -9.2878  -9.2565  -9.2235  -9.1799  -9.0207  -9.0168  -8.9956  -8.9650
    -8.9054  -8.8607  -8.8121  -8.7843  -8.7756  -8.6759  -8.6539  -8.5966
    -8.5884  -8.5623  -8.5104  -8.4900  -8.4456  -8.2892  -8.1943  -8.1743
    -8.1454  -8.1000  -8.0594  -7.9543  -7.9065  -7.8482  -7.7387  -7.7172
    -7.6738  -7.6735  -7.6076  -7.5862  -7.5118  -7.4164  -7.3541  -7.2955
    -7.2896  -7.2834  -7.1519  -7.0946  -7.0795  -6.9335  -6.9011  -6.8490
    -6.7787  -6.7315  -6.6838  -6.6810  -6.5655  -6.4172  -6.3137  -6.2656
    -6.1309  -6.0782  -6.0273  -6.0114  -5.9977  -5.9383  -5.9018  -5.7635
    -5.6182  -5.5499  -5.4036  -5.3513  -5.1840  -5.1458  -4.9121  -4.8873
    -4.7279  -4.7232  -4.5824  -4.4678  -4.4652  -4.4026  -4.1341  -3.9108
    -3.6847  -3.6417  -3.2816  -3.0209  -1.6079  -1.3787  -1.2866  -1.0299
    -0.7165  -0.6898  -0.4894  -0.4047  -0.3260  -0.2446  -0.0051   0.0200
     0.0516   0.0832   0.3998   0.5605   0.6605   0.7200   0.7617   0.8191
     0.8393   0.9841   1.0560   1.0707   1.1757   1.2106   1.2796   1.3757
     1.4659   1.4921   1.5600   1.5836   1.6003   1.6898   1.7049   1.8330
     1.8540   1.8747   1.9519   2.0062   2.0416   2.1741   2.1797   2.2300
     2.2777   2.3154   2.3640   2.3893   2.4873   2.5335   2.5486   2.5898
     2.6217   2.6235   2.6779   2.6905   2.7133   2.7331   2.7367   2.7372
     2.7741   2.8693   2.8824   2.9546   2.9562   2.9596   3.0133   3.0426
     3.0551   3.0824   3.0895   3.1218   3.1558   3.1562   3.1932   3.2609
     3.3553   3.3612   3.3638   3.4366   3.4815   3.5046   3.5060   3.5386
     3.5528   3.5683   3.5956   3.6284   3.6755   3.6807   3.7626   3.7639
     3.8409   3.8429   3.8937   3.9198   3.9508   3.9584   3.9898   4.0084
     4.0671   4.0773   4.0786   4.1095   4.1133   4.1305   4.1856   4.1901
     4.2598   4.2629   4.3114   4.3230   4.3397   4.3500   4.3544   4.3756
     4.3840   4.4259   4.4423   4.4786   4.4840   4.4979   4.5335   4.5404
     4.5576   4.6162   4.6168   4.6715   4.6763   4.6958   4.7187   4.7441
     4.7470   4.7759   4.8333   4.8586   4.8756   4.8938   4.9047   4.9248
     4.9657   4.9672   5.0024   5.0751   5.0780   5.1035   5.1077   5.1125
     5.1166   5.2086   5.2110   5.2284   5.2374   5.2765   5.3099   5.3121
     5.3193   5.3693   5.3841   5.4141   5.4182   5.4191   5.4596   5.4652
     5.4898   5.4985   5.5253   5.5303   5.5622   5.5734   5.5884   5.6105
     5.6308   5.6514   5.6737   5.6962   5.7101   5.7301   5.7681   5.7768
     5.7823   5.8020   5.8402   5.8504   5.8814   5.9198   5.9315   5.9466
     5.9753   5.9818   5.9991   6.0092   6.0124   6.0681   6.0840   6.0906
     6.1030   6.1114   6.1512   6.1586   6.1619   6.2214   6.2252   6.2707
     6.2953   6.3002   6.3155   6.3258   6.3570   6.3614   6.3699   6.3858
     6.4043   6.4127   6.4293   6.4536   6.4991   6.5074   6.5135   6.5418
     6.5484   6.5729   6.6145   6.6173   6.6247   6.6387   6.6506   6.6906
     6.7160   6.7198   6.7410   6.7549   6.7636   6.7927   6.8048   6.8094
     6.8393   6.8529   6.8542   6.8712   6.8934   6.9223   6.9385   6.9741
     6.9753   6.9907   7.0197   7.0273   7.0294   7.0578   7.0615   7.1128
     7.1134   7.1258   7.1398   7.1495   7.1624   7.1804   7.1819   7.2066
     7.2369   7.2779   7.2968   7.3279   7.3300   7.3451   7.3704   7.4153
     7.4220   7.4319   7.4569   7.4603   7.5118   7.5260   7.5393   7.5468
     7.5566   7.5909   7.6033   7.6164   7.6231   7.6352   7.6446   7.6658
     7.6813   7.7038   7.7186   7.7284   7.7632   7.7874   7.7874   7.8092
     7.8346   7.8541   7.8566   7.8839   7.9014   7.9115   7.9394   7.9523
     7.9639   7.9993   8.0070   8.0465   8.0528   8.0624   8.0772   8.0925
     8.0933   8.1002   8.1319   8.1467   8.2109   8.2137   8.2150   8.2436
     8.2780   8.2853   8.2864   8.3104

          k = 0.0000 0.0000 0.0056 (151056 PWs)   bands (ev):

   -21.2554 -21.1496 -20.9369 -20.7642 -20.6149 -20.4904 -20.2218 -20.1155
   -20.0343 -19.8220 -19.7612 -19.6260 -19.5175 -19.3501 -19.0153 -18.9261
   -18.8454 -18.5729 -18.4497 -18.3573 -18.3321 -18.1856 -18.0906 -17.8514
   -17.7152 -17.6560 -17.4617 -17.3093 -17.0427 -17.0387 -17.0216 -16.8534
   -16.8510 -16.7387 -16.5856 -16.4808 -16.2290 -16.2082 -16.0570 -15.9279
   -15.6465 -15.4446 -14.9811 -14.8854 -14.7670 -14.6358 -14.5838 -14.5490
   -14.2598 -14.2350 -14.1683 -14.1180 -13.9526 -13.8353 -13.7065 -13.6611
   -13.4488 -13.1929 -13.0932 -12.9612 -12.8917 -12.7391 -12.6087 -12.3981
   -12.3096 -12.1746 -12.0402 -11.9538 -11.8691 -11.7339 -11.5649 -11.3671
   -11.3247 -11.2656 -11.1616 -11.1160 -10.9568 -10.9302 -10.7141 -10.7081
   -10.6035 -10.5545 -10.4747 -10.2850 -10.0528 -10.0390 -10.0157  -9.9035
    -9.8929  -9.7490  -9.6512  -9.5128  -9.4230  -9.3707  -9.3681  -9.2974
    -9.2805  -9.2535  -9.2258  -9.1888  -9.0281  -9.0257  -8.9930  -8.9568
    -8.9156  -8.8400  -8.8112  -8.7867  -8.7748  -8.6754  -8.6479  -8.5942
    -8.5861  -8.5683  -8.5071  -8.4896  -8.4458  -8.2895  -8.1959  -8.1743
    -8.1487  -8.1027  -8.0540  -7.9594  -7.9019  -7.8461  -7.7371  -7.7171
    -7.6839  -7.6729  -7.6024  -7.5937  -7.5016  -7.4254  -7.3562  -7.2969
    -7.2892  -7.2804  -7.1599  -7.0899  -7.0820  -6.9240  -6.9018  -6.8474
    -6.7784  -6.7360  -6.6859  -6.6733  -6.5653  -6.4145  -6.3208  -6.2608
    -6.1418  -6.0785  -6.0319  -6.0099  -5.9866  -5.9310  -5.9112  -5.7654
    -5.6201  -5.5523  -5.3963  -5.3502  -5.1851  -5.1416  -4.9156  -4.8882
    -4.7270  -4.7226  -4.5816  -4.4701  -4.4642  -4.4015  -4.1331  -3.9156
    -3.6840  -3.6375  -3.2837  -3.0248  -1.6045  -1.3720  -1.2884  -1.0293
    -0.7161  -0.6900  -0.4898  -0.4113  -0.3268  -0.2373  -0.0114   0.0218
     0.0493   0.0860   0.3891   0.5534   0.6535   0.7212   0.7625   0.8180
     0.8470   0.9835   1.0492   1.0965   1.1703   1.2169   1.2869   1.3692
     1.4519   1.4907   1.5722   1.5956   1.5985   1.6905   1.7044   1.8301
     1.8441   1.8777   1.9643   2.0072   2.0461   2.1700   2.1773   2.2249
     2.2801   2.3168   2.3694   2.3930   2.4796   2.5244   2.5473   2.5817
     2.6086   2.6191   2.6732   2.6924   2.7082   2.7407   2.7446   2.7467
     2.7657   2.8530   2.8732   2.9479   2.9507   2.9670   3.0192   3.0502
     3.0574   3.0953   3.1031   3.1086   3.1577   3.1668   3.2072   3.2743
     3.3446   3.3481   3.3533   3.4479   3.4908   3.4930   3.5235   3.5304
     3.5557   3.5793   3.5965   3.6236   3.6688   3.6922   3.7487   3.7824
     3.8331   3.8352   3.9065   3.9217   3.9479   3.9536   3.9840   4.0042
     4.0608   4.0700   4.0730   4.0925   4.1028   4.1297   4.1899   4.1989
     4.2619   4.2720   4.3061   4.3115   4.3346   4.3592   4.3645   4.3667
     4.3935   4.4312   4.4423   4.4899   4.4984   4.5001   4.5180   4.5474
     4.5510   4.6139   4.6404   4.6479   4.6932   4.6987   4.7330   4.7473
     4.7563   4.7620   4.8325   4.8429   4.8702   4.8786   4.8881   4.9486
     4.9620   4.9745   5.0119   5.0540   5.0764   5.0829   5.1048   5.1054
     5.1409   5.2040   5.2136   5.2200   5.2364   5.2782   5.3068   5.3081
     5.3289   5.3755   5.3850   5.4053   5.4159   5.4270   5.4613   5.4640
     5.4740   5.5079   5.5321   5.5339   5.5350   5.5794   5.5910   5.6225
     5.6258   5.6569   5.6887   5.6889   5.6979   5.7339   5.7672   5.7760
     5.7906   5.8264   5.8377   5.8487   5.8684   5.9231   5.9453   5.9614
     5.9701   5.9851   5.9973   5.9992   6.0270   6.0791   6.0871   6.0884
     6.1090   6.1169   6.1317   6.1439   6.1490   6.2251   6.2320   6.2715
     6.2976   6.3032   6.3076   6.3146   6.3570   6.3589   6.3598   6.3725
     6.4063   6.4152   6.4293   6.4294   6.4953   6.4984   6.5337   6.5418
     6.5536   6.5701   6.6091   6.6152   6.6257   6.6472   6.6503   6.6981
     6.7075   6.7109   6.7416   6.7625   6.7702   6.7875   6.8103   6.8325
     6.8369   6.8492   6.8534   6.8683   6.9010   6.9207   6.9402   6.9586
     6.9670   6.9918   7.0196   7.0249   7.0260   7.0599   7.0724   7.1091
     7.1189   7.1339   7.1445   7.1593   7.1733   7.1885   7.1898   7.1987
     7.2521   7.2873   7.3024   7.3293   7.3343   7.3404   7.3703   7.4187
     7.4390   7.4430   7.4495   7.4561   7.5056   7.5278   7.5452   7.5581
     7.5622   7.5952   7.5997   7.6076   7.6236   7.6265   7.6467   7.6556
     7.6848   7.6929   7.7048   7.7435   7.7463   7.7886   7.7955   7.7979
     7.8242   7.8347   7.8415   7.8813   7.8986   7.9190   7.9476   7.9573
     7.9856   7.9930   8.0069   8.0442   8.0451   8.0590   8.0674   8.0966
     8.0969   8.0974   8.1363   8.1497   8.2130   8.2151   8.2276   8.2495
     8.2552   8.2715   8.2982   8.3153

          k = 0.0000 0.0000 0.0067 (151088 PWs)   bands (ev):

   -21.2545 -21.1514 -20.9347 -20.7669 -20.6123 -20.4908 -20.2226 -20.1118
   -20.0391 -19.8295 -19.7561 -19.6184 -19.5203 -19.3510 -19.0143 -18.9302
   -18.8390 -18.5773 -18.4456 -18.3581 -18.3365 -18.1794 -18.1026 -17.8543
   -17.7049 -17.6545 -17.4581 -17.3086 -17.0480 -17.0429 -17.0183 -16.8519
   -16.8494 -16.7417 -16.5807 -16.4807 -16.2303 -16.2099 -16.0583 -15.9341
   -15.6459 -15.4463 -14.9685 -14.8828 -14.7691 -14.6423 -14.5815 -14.5462
   -14.2661 -14.2336 -14.1673 -14.1054 -13.9516 -13.8395 -13.7121 -13.6574
   -13.4602 -13.2117 -13.0899 -12.9653 -12.8948 -12.7096 -12.6160 -12.3903
   -12.3044 -12.1716 -12.0503 -11.9559 -11.8566 -11.7354 -11.5685 -11.3642
   -11.3219 -11.2675 -11.1788 -11.1241 -10.9417 -10.9381 -10.7157 -10.7036
   -10.5944 -10.5541 -10.4740 -10.2888 -10.0715 -10.0362 -10.0253  -9.8952
    -9.8871  -9.7261  -9.6558  -9.5199  -9.4142  -9.3809  -9.3670  -9.3020
    -9.2737  -9.2509  -9.2286  -9.1990  -9.0379  -9.0306  -8.9900  -8.9499
    -8.9252  -8.8191  -8.8118  -8.7896  -8.7732  -8.6747  -8.6411  -8.5913
    -8.5834  -8.5746  -8.5042  -8.4892  -8.4456  -8.2900  -8.1980  -8.1744
    -8.1520  -8.1055  -8.0479  -7.9653  -7.8966  -7.8437  -7.7351  -7.7171
    -7.6942  -7.6722  -7.6028  -7.5971  -7.4902  -7.4352  -7.3587  -7.2985
    -7.2886  -7.2776  -7.1678  -7.0851  -7.0851  -6.9132  -6.9026  -6.8454
    -6.7780  -6.7401  -6.6884  -6.6653  -6.5653  -6.4114  -6.3281  -6.2563
    -6.1532  -6.0788  -6.0365  -6.0080  -5.9751  -5.9230  -5.9221  -5.7677
    -5.6223  -5.5556  -5.3877  -5.3488  -5.1861  -5.1368  -4.9197  -4.8895
    -4.7259  -4.7219  -4.5807  -4.4728  -4.4630  -4.4004  -4.1318  -3.9212
    -3.6831  -3.6327  -3.2860  -3.0294  -1.6004  -1.3642  -1.2904  -1.0287
    -0.7156  -0.6902  -0.4902  -0.4185  -0.3279  -0.2290  -0.0192   0.0241
     0.0467   0.0893   0.3769   0.5432   0.6490   0.7227   0.7636   0.8166
     0.8562   0.9826   1.0416   1.1249   1.1648   1.2236   1.2946   1.3617
     1.4375   1.4912   1.5843   1.5962   1.6074   1.6913   1.7043   1.8269
     1.8348   1.8807   1.9769   2.0087   2.0514   2.1654   2.1737   2.2202
     2.2830   2.3184   2.3752   2.3966   2.4707   2.5143   2.5457   2.5698
     2.5953   2.6190   2.6667   2.6933   2.7027   2.7433   2.7551   2.7570
     2.7575   2.8385   2.8630   2.9412   2.9419   2.9788   3.0253   3.0552
     3.0613   3.0974   3.1012   3.1230   3.1599   3.1794   3.2230   3.2871
     3.3284   3.3410   3.3455   3.4604   3.4806   3.4980   3.5235   3.5400
     3.5589   3.5930   3.5987   3.6177   3.6566   3.7094   3.7340   3.8017
     3.8258   3.8264   3.9174   3.9240   3.9426   3.9466   3.9777   3.9983
     4.0534   4.0612   4.0708   4.0744   4.0965   4.1311   4.1943   4.2069
     4.2633   4.2802   4.2895   4.3117   4.3195   4.3365   4.3709   4.3938
     4.4113   4.4398   4.4491   4.4994   4.4994   4.5024   4.5096   4.5451
     4.5554   4.6125   4.6324   4.6623   4.7019   4.7020   4.7403   4.7417
     4.7571   4.7712   4.8327   4.8414   4.8596   4.8621   4.8701   4.9522
     4.9671   4.9824   5.0284   5.0322   5.0641   5.0779   5.0924   5.1016
     5.1738   5.1985   5.1996   5.2162   5.2435   5.2772   5.3020   5.3036
     5.3422   5.3660   5.3879   5.4005   5.4152   5.4378   5.4570   5.4622
     5.4640   5.4877   5.5071   5.5410   5.5680   5.5882   5.5958   5.6167
     5.6323   5.6549   5.6726   5.7006   5.7044   5.7357   5.7704   5.7769
     5.7995   5.8396   5.8468   5.8474   5.8568   5.9278   5.9528   5.9610
     5.9821   5.9887   5.9887   6.0003   6.0416   6.0753   6.0816   6.0880
     6.0926   6.1168   6.1249   6.1474   6.1530   6.2296   6.2348   6.2726
     6.2899   6.2939   6.3084   6.3153   6.3456   6.3488   6.3617   6.3630
     6.4091   6.4112   6.4194   6.4321   6.4849   6.4939   6.5272   6.5593
     6.5640   6.5657   6.5995   6.6032   6.6380   6.6505   6.6526   6.6992
     6.7024   6.7026   6.7421   6.7666   6.7753   6.7834   6.8115   6.8242
     6.8450   6.8639   6.8687   6.8690   6.9022   6.9163   6.9449   6.9466
     6.9593   6.9987   7.0065   7.0221   7.0276   7.0639   7.0846   7.1143
     7.1238   7.1246   7.1535   7.1640   7.1701   7.1985   7.2027   7.2174
     7.2709   7.2909   7.3086   7.3238   7.3383   7.3414   7.3730   7.4244
     7.4292   7.4445   7.4600   7.4653   7.5012   7.5257   7.5373   7.5703
     7.5716   7.5945   7.6011   7.6092   7.6109   7.6348   7.6473   7.6510
     7.6842   7.6890   7.6936   7.7217   7.7593   7.7819   7.7902   7.7980
     7.8079   7.8309   7.8327   7.8784   7.8885   7.9211   7.9574   7.9644
     7.9831   8.0021   8.0031   8.0359   8.0372   8.0577   8.0632   8.0948
     8.1032   8.1086   8.1254   8.1695   8.2121   8.2165   8.2289   8.2302
     8.2571   8.2716   8.3050   8.3185

          k = 0.0000 0.0000 0.0078 (151088 PWs)   bands (ev):

   -21.2535 -21.1536 -20.9321 -20.7699 -20.6092 -20.4914 -20.2233 -20.1076
   -20.0446 -19.8374 -19.7507 -19.6100 -19.5235 -19.3521 -19.0130 -18.9343
   -18.8321 -18.5821 -18.4411 -18.3591 -18.3412 -18.1727 -18.1155 -17.8582
   -17.6935 -17.6528 -17.4539 -17.3076 -17.0544 -17.0476 -17.0144 -16.8505
   -16.8476 -16.7448 -16.5754 -16.4805 -16.2319 -16.2118 -16.0597 -15.9413
   -15.6450 -15.4484 -14.9543 -14.8797 -14.7712 -14.6490 -14.5798 -14.5433
   -14.2717 -14.2319 -14.1661 -14.0923 -13.9505 -13.8445 -13.7179 -13.6537
   -13.4733 -13.2324 -13.0863 -12.9661 -12.8984 -12.6804 -12.6241 -12.3817
   -12.2985 -12.1680 -12.0602 -11.9583 -11.8437 -11.7374 -11.5718 -11.3617
   -11.3185 -11.2697 -11.1975 -11.1322 -10.9462 -10.9266 -10.7177 -10.6987
   -10.5853 -10.5537 -10.4721 -10.2932 -10.0924 -10.0336 -10.0326  -9.8854
    -9.8805  -9.7048  -9.6598  -9.5277  -9.4048  -9.3913  -9.3657  -9.3060
    -9.2676  -9.2488  -9.2317  -9.2102  -9.0459  -9.0354  -8.9866  -8.9487
    -8.9297  -8.8138  -8.7985  -8.7930  -8.7708  -8.6736  -8.6338  -8.5881
    -8.5808  -8.5803  -8.5017  -8.4888  -8.4451  -8.2905  -8.2004  -8.1747
    -8.1553  -8.1083  -8.0413  -7.9721  -7.8907  -7.8410  -7.7329  -7.7171
    -7.7048  -7.6714  -7.6135  -7.5915  -7.4781  -7.4456  -7.3616  -7.3004
    -7.2880  -7.2754  -7.1756  -7.0887  -7.0803  -6.9036  -6.9013  -6.8431
    -6.7776  -6.7437  -6.6913  -6.6571  -6.5653  -6.4079  -6.3356  -6.2521
    -6.1647  -6.0792  -6.0412  -6.0058  -5.9633  -5.9341  -5.9144  -5.7703
    -5.6250  -5.5597  -5.3779  -5.3472  -5.1872  -5.1313  -4.9244  -4.8912
    -4.7247  -4.7210  -4.5797  -4.4757  -4.4616  -4.3992  -4.1303  -3.9274
    -3.6821  -3.6275  -3.2884  -3.0349  -1.5956  -1.3556  -1.2923  -1.0281
    -0.7150  -0.6906  -0.4907  -0.4259  -0.3291  -0.2201  -0.0286   0.0267
     0.0439   0.0932   0.3636   0.5301   0.6473   0.7244   0.7648   0.8150
     0.8665   0.9816   1.0336   1.1553   1.1595   1.2306   1.3027   1.3536
     1.4229   1.4933   1.5934   1.5962   1.6188   1.6924   1.7045   1.8235
     1.8263   1.8834   1.9894   2.0109   2.0573   2.1605   2.1687   2.2164
     2.2863   2.3203   2.3812   2.3998   2.4610   2.5041   2.5436   2.5560
     2.5817   2.6215   2.6581   2.6933   2.6970   2.7430   2.7513   2.7646
     2.7672   2.8267   2.8517   2.9317   2.9364   2.9913   3.0314   3.0556
     3.0666   3.0904   3.1075   3.1416   3.1625   3.1934   3.2402   3.2987
     3.3127   3.3346   3.3411   3.4680   3.4741   3.5033   3.5187   3.5537
     3.5621   3.6019   3.6084   3.6106   3.6463   3.7204   3.7267   3.8113
     3.8141   3.8296   3.9254   3.9265   3.9360   3.9369   3.9717   3.9914
     4.0464   4.0510   4.0598   4.0693   4.0915   4.1339   4.1989   4.2126
     4.2657   4.2735   4.2847   4.3061   4.3122   4.3173   4.3763   4.4206
     4.4268   4.4497   4.4620   4.4800   4.5010   4.5070   4.5157   4.5396
     4.5648   4.6108   4.6302   4.6794   4.7048   4.7068   4.7259   4.7308
     4.7746   4.7852   4.8346   4.8416   4.8510   4.8526   4.8539   4.9382
     4.9784   4.9864   5.0127   5.0505   5.0526   5.0787   5.0797   5.1003
     5.1802   5.1916   5.2057   5.2187   5.2476   5.2742   5.2986   5.3005
     5.3539   5.3559   5.3698   5.4095   5.4140   5.4388   5.4486   5.4667
     5.4667   5.4668   5.4828   5.5477   5.5841   5.5983   5.6123   5.6153
     5.6302   5.6382   5.6743   5.7070   5.7196   5.7353   5.7776   5.7785
     5.8075   5.8364   5.8465   5.8568   5.8614   5.9341   5.9369   5.9775
     5.9837   5.9924   6.0002   6.0020   6.0346   6.0503   6.0796   6.0821
     6.1026   6.1079   6.1279   6.1470   6.1701   6.2342   6.2374   6.2726
     6.2740   6.2900   6.3074   6.3174   6.3244   6.3429   6.3552   6.3664
     6.3979   6.4147   6.4295   6.4367   6.4770   6.4852   6.5229   6.5608
     6.5660   6.5667   6.5906   6.5993   6.6488   6.6508   6.6550   6.6932
     6.6956   6.7036   6.7423   6.7705   6.7761   6.7803   6.7955   6.8382
     6.8398   6.8673   6.8730   6.9034   6.9061   6.9098   6.9350   6.9508
     6.9554   6.9931   7.0097   7.0179   7.0296   7.0680   7.0974   7.1147
     7.1257   7.1264   7.1346   7.1814   7.1820   7.2056   7.2072   7.2497
     7.2880   7.2927   7.3103   7.3148   7.3425   7.3485   7.3790   7.4168
     7.4363   7.4463   7.4605   7.4718   7.5072   7.5211   7.5215   7.5539
     7.5798   7.5995   7.6004   7.6061   7.6318   7.6485   7.6505   7.6516
     7.6768   7.6797   7.6913   7.7034   7.7602   7.7706   7.7884   7.7920
     7.7972   7.8278   7.8440   7.8752   7.8811   7.9020   7.9626   7.9685
     7.9860   7.9865   8.0140   8.0377   8.0405   8.0516   8.0599   8.0958
     8.1079   8.1095   8.1297   8.1854   8.1905   8.2075   8.2094   8.2435
     8.2461   8.2840   8.2970   8.3118

          k = 0.0000 0.0000 0.0089 (151084 PWs)   bands (ev):

   -21.2524 -21.1560 -20.9292 -20.7733 -20.6058 -20.4921 -20.2238 -20.1029
   -20.0507 -19.8456 -19.7450 -19.6010 -19.5271 -19.3535 -19.0116 -18.9383
   -18.8251 -18.5873 -18.4364 -18.3603 -18.3460 -18.1654 -18.1291 -17.8629
   -17.6815 -17.6508 -17.4492 -17.3061 -17.0615 -17.0528 -17.0100 -16.8493
   -16.8455 -16.7481 -16.5697 -16.4803 -16.2336 -16.2139 -16.0613 -15.9492
   -15.6435 -15.4508 -14.9388 -14.8762 -14.7733 -14.6557 -14.5789 -14.5404
   -14.2762 -14.2299 -14.1647 -14.0790 -13.9493 -13.8504 -13.7238 -13.6499
   -13.4879 -13.2541 -13.0826 -12.9643 -12.9023 -12.6517 -12.6327 -12.3725
   -12.2923 -12.1639 -12.0697 -11.9608 -11.8305 -11.7403 -11.5746 -11.3597
   -11.3145 -11.2724 -11.2171 -11.1406 -10.9540 -10.9117 -10.7200 -10.6934
   -10.5771 -10.5535 -10.4685 -10.2983 -10.1143 -10.0408 -10.0282  -9.8747
    -9.8733  -9.6884  -9.6598  -9.5363  -9.4018  -9.3953  -9.3642  -9.3094
    -9.2625  -9.2469  -9.2351  -9.2221  -9.0523  -9.0402  -8.9827  -8.9570
    -8.9255  -8.8168  -8.7967  -8.7787  -8.7680  -8.6720  -8.6264  -8.5867
    -8.5845  -8.5767  -8.4996  -8.4883  -8.4442  -8.2912  -8.2033  -8.1752
    -8.1585  -8.1109  -8.0344  -7.9796  -7.8844  -7.8378  -7.7304  -7.7172
    -7.7155  -7.6704  -7.6256  -7.5857  -7.4653  -7.4563  -7.3649  -7.3025
    -7.2872  -7.2739  -7.1831  -7.0929  -7.0753  -6.9048  -6.8886  -6.8405
    -6.7771  -6.7470  -6.6944  -6.6486  -6.5656  -6.4039  -6.3433  -6.2481
    -6.1763  -6.0798  -6.0456  -6.0032  -5.9516  -5.9470  -5.9054  -5.7733
    -5.6281  -5.5647  -5.3672  -5.3454  -5.1881  -5.1252  -4.9295  -4.8934
    -4.7234  -4.7201  -4.5785  -4.4789  -4.4600  -4.3982  -4.1285  -3.9342
    -3.6808  -3.6222  -3.2908  -3.0411  -1.5901  -1.3469  -1.2935  -1.0274
    -0.7144  -0.6910  -0.4912  -0.4335  -0.3306  -0.2107  -0.0395   0.0298
     0.0407   0.0977   0.3493   0.5149   0.6478   0.7263   0.7662   0.8131
     0.8779   0.9803   1.0253   1.1546   1.1871   1.2375   1.3108   1.3451
     1.4081   1.4968   1.5903   1.6075   1.6295   1.6937   1.7053   1.8190
     1.8200   1.8853   2.0018   2.0140   2.0638   2.1555   2.1623   2.2136
     2.2901   2.3224   2.3872   2.4017   2.4505   2.4944   2.5410   2.5413
     2.5681   2.6254   2.6473   2.6914   2.6923   2.7365   2.7504   2.7728
     2.7771   2.8181   2.8394   2.9227   2.9311   3.0045   3.0373   3.0513
     3.0731   3.0877   3.1143   3.1584   3.1653   3.2079   3.2584   3.2977
     3.3086   3.3299   3.3410   3.4553   3.4884   3.5073   3.5166   3.5617
     3.5648   3.6022   3.6057   3.6246   3.6411   3.7087   3.7437   3.7999
     3.8072   3.8459   3.9248   3.9290   3.9291   3.9295   3.9672   3.9844
     4.0398   4.0419   4.0491   4.0657   4.0875   4.1377   4.2039   4.2132
     4.2580   4.2660   4.2852   4.2974   4.3072   4.3128   4.3810   4.4328
     4.4471   4.4591   4.4665   4.4789   4.4920   4.5036   4.5296   4.5344
     4.5761   4.6085   4.6419   4.6813   4.7042   4.7106   4.7177   4.7306
     4.7659   4.8108   4.8301   4.8338   4.8393   4.8420   4.8751   4.9217
     4.9850   4.9852   4.9951   5.0435   5.0629   5.0813   5.0817   5.1009
     5.1644   5.1831   5.2206   5.2356   5.2476   5.2696   5.2930   5.3039
     5.3452   5.3518   5.3628   5.4103   5.4124   5.4197   5.4459   5.4592
     5.4618   5.4687   5.4789   5.5542   5.5857   5.6075   5.6090   5.6150
     5.6245   5.6361   5.6941   5.7160   5.7329   5.7338   5.7803   5.7878
     5.8126   5.8264   5.8456   5.8689   5.8690   5.9244   5.9427   5.9816
     5.9934   5.9953   5.9954   6.0022   6.0173   6.0515   6.0731   6.0772
     6.0978   6.1121   6.1383   6.1521   6.1777   6.2379   6.2417   6.2556
     6.2783   6.2865   6.2967   6.3030   6.3187   6.3395   6.3556   6.3696
     6.3937   6.4159   6.4429   6.4451   6.4720   6.4724   6.5198   6.5513
     6.5567   6.5743   6.5784   6.6055   6.6511   6.6532   6.6541   6.6902
     6.6929   6.7042   6.7422   6.7710   6.7778   6.7786   6.7811   6.8318
     6.8541   6.8595   6.8777   6.9039   6.9202   6.9276   6.9400   6.9419
     6.9622   6.9844   7.0135   7.0209   7.0351   7.0686   7.1051   7.1104
     7.1207   7.1260   7.1402   7.1949   7.1967   7.2058   7.2163   7.2807
     7.2843   7.2947   7.3164   7.3204   7.3489   7.3550   7.3881   7.4073
     7.4453   7.4477   7.4500   7.4784   7.5112   7.5159   7.5199   7.5295
     7.5666   7.5945   7.6025   7.6223   7.6435   7.6533   7.6550   7.6646
     7.6681   7.6735   7.6960   7.7000   7.7488   7.7637   7.7841   7.7937
     7.7943   7.8262   7.8543   7.8718   7.8756   7.8802   7.9447   7.9723
     7.9846   7.9921   8.0168   8.0357   8.0427   8.0554   8.0593   8.0983
     8.1010   8.1113   8.1497   8.1631   8.1732   8.1928   8.1987   8.2407
     8.2609   8.2853   8.2906   8.3111

          k = 0.0000 0.0000 0.0101 (151112 PWs)   bands (ev):

   -21.2511 -21.1587 -20.9260 -20.7770 -20.6022 -20.4929 -20.2242 -20.0979
   -20.0572 -19.8539 -19.7391 -19.5915 -19.5310 -19.3552 -19.0101 -18.9421
   -18.8177 -18.5928 -18.4314 -18.3616 -18.3507 -18.1576 -18.1431 -17.8683
   -17.6692 -17.6486 -17.4439 -17.3043 -17.0694 -17.0587 -17.0053 -16.8484
   -16.8432 -16.7513 -16.5636 -16.4801 -16.2355 -16.2163 -16.0630 -15.9579
   -15.6414 -15.4536 -14.9223 -14.8724 -14.7752 -14.6624 -14.5788 -14.5376
   -14.2796 -14.2275 -14.1631 -14.0655 -13.9479 -13.8571 -13.7299 -13.6462
   -13.5039 -13.2763 -13.0787 -12.9603 -12.9066 -12.6418 -12.6239 -12.3628
   -12.2858 -12.1592 -12.0785 -11.9633 -11.8172 -11.7441 -11.5765 -11.3581
   -11.3103 -11.2758 -11.2371 -11.1494 -10.9611 -10.8971 -10.7227 -10.6879
   -10.5704 -10.5533 -10.4627 -10.3040 -10.1365 -10.0475 -10.0230  -9.8657
    -9.8636  -9.6838  -9.6490  -9.5454  -9.4123  -9.3857  -9.3626  -9.3117
    -9.2595  -9.2452  -9.2389  -9.2334  -9.0569  -9.0450  -8.9785  -8.9684
    -8.9189  -8.8203  -8.8007  -8.7649  -8.7604  -8.6697  -8.6194  -8.5922
    -8.5806  -8.5723  -8.4979  -8.4879  -8.4425  -8.2921  -8.2065  -8.1760
    -8.1614  -8.1129  -8.0270  -7.9877  -7.8777  -7.8344  -7.7276  -7.7262
    -7.7175  -7.6693  -7.6390  -7.5795  -7.4671  -7.4521  -7.3686  -7.3047
    -7.2864  -7.2732  -7.1903  -7.0976  -7.0700  -6.9062  -6.8752  -6.8377
    -6.7764  -6.7500  -6.6978  -6.6400  -6.5662  -6.3997  -6.3511  -6.2444
    -6.1877  -6.0804  -6.0498  -6.0002  -5.9605  -5.9399  -5.8961  -5.7765
    -5.6315  -5.5706  -5.3558  -5.3433  -5.1889  -5.1187  -4.9352  -4.8959
    -4.7220  -4.7191  -4.5771  -4.4823  -4.4582  -4.3972  -4.1265  -3.9413
    -3.6794  -3.6170  -3.2931  -3.0480  -1.5840  -1.3391  -1.2931  -1.0268
    -0.7137  -0.6915  -0.4919  -0.4410  -0.3321  -0.2010  -0.0518   0.0333
     0.0373   0.1027   0.3345   0.4984   0.6500   0.7285   0.7676   0.8110
     0.8903   0.9787   1.0169   1.1502   1.2197   1.2441   1.3189   1.3366
     1.3931   1.5016   1.5868   1.6178   1.6395   1.6953   1.7066   1.8130
     1.8168   1.8863   2.0140   2.0180   2.0709   2.1506   2.1548   2.2120
     2.2942   2.3246   2.3931   2.4013   2.4396   2.4864   2.5263   2.5378
     2.5545   2.6304   2.6344   2.6860   2.6903   2.7271   2.7517   2.7797
     2.7863   2.8127   2.8264   2.9146   2.9254   3.0180   3.0429   3.0452
     3.0807   3.0869   3.1217   3.1682   3.1726   3.2220   3.2775   3.2836
     3.3169   3.3280   3.3452   3.4429   3.5015   3.5104   3.5190   3.5607
     3.5665   3.5929   3.6100   3.6401   3.6448   3.7004   3.7599   3.7831
     3.8021   3.8613   3.9111   3.9237   3.9280   3.9310   3.9661   3.9774
     4.0279   4.0406   4.0420   4.0584   4.0848   4.1421   4.2055   4.2092
     4.2431   4.2645   4.2780   4.2990   4.3085   4.3134   4.3859   4.4189
     4.4662   4.4669   4.4683   4.4766   4.4974   4.5071   4.5289   4.5432
     4.5894   4.6060   4.6622   4.6681   4.6981   4.7142   4.7177   4.7459
     4.7469   4.8049   4.8253   4.8307   4.8430   4.8466   4.9013   4.9076
     4.9781   4.9798   4.9897   5.0414   5.0448   5.0839   5.1022   5.1118
     5.1529   5.1736   5.2218   5.2439   5.2610   5.2635   5.2872   5.3108
     5.3341   5.3357   5.3686   5.4014   5.4064   5.4101   5.4262   5.4452
     5.4679   5.4699   5.4941   5.5602   5.5837   5.5966   5.5968   5.6197
     5.6250   5.6398   5.7255   5.7282   5.7293   5.7457   5.7824   5.7993
     5.8128   5.8173   5.8452   5.8692   5.8838   5.9186   5.9544   5.9580
     5.9816   5.9955   5.9981   6.0077   6.0330   6.0464   6.0642   6.0741
     6.0988   6.1198   6.1426   6.1667   6.1763   6.2384   6.2400   6.2440
     6.2680   6.2832   6.2906   6.2996   6.3193   6.3357   6.3633   6.3721
     6.3928   6.4156   6.4505   6.4565   6.4593   6.4737   6.5158   6.5306
     6.5556   6.5676   6.5845   6.6051   6.6470   6.6517   6.6527   6.6864
     6.6994   6.7054   6.7419   6.7672   6.7699   6.7786   6.7838   6.8197
     6.8464   6.8692   6.8803   6.9004   6.9203   6.9331   6.9395   6.9654
     6.9761   6.9841   7.0105   7.0279   7.0485   7.0604   7.0991   7.1127
     7.1229   7.1233   7.1561   7.2052   7.2089   7.2105   7.2247   7.2713
     7.2806   7.3184   7.3241   7.3412   7.3561   7.3599   7.3987   7.4021
     7.4299   7.4455   7.4586   7.4680   7.5067   7.5215   7.5227   7.5268
     7.5483   7.5838   7.5954   7.6265   7.6350   7.6443   7.6451   7.6740
     7.6818   7.7034   7.7041   7.7160   7.7370   7.7628   7.7824   7.7929
     7.7953   7.8271   7.8501   7.8539   7.8684   7.8875   7.9232   7.9691
     7.9830   8.0083   8.0127   8.0294   8.0324   8.0431   8.0818   8.0939
     8.1094   8.1127   8.1375   8.1411   8.1690   8.1810   8.1886   8.2398
     8.2771   8.2866   8.2869   8.3071

          k = 0.0000 0.0000 0.0112 (151116 PWs)   bands (ev):

   -21.2497 -21.1615 -20.9225 -20.7809 -20.5984 -20.4939 -20.2243 -20.0925
   -20.0642 -19.8623 -19.7329 -19.5817 -19.5354 -19.3571 -19.0084 -18.9457
   -18.8103 -18.5984 -18.4264 -18.3631 -18.3554 -18.1573 -18.1495 -17.8745
   -17.6571 -17.6462 -17.4379 -17.3018 -17.0779 -17.0650 -17.0001 -16.8479
   -16.8406 -16.7543 -16.5574 -16.4799 -16.2375 -16.2190 -16.0648 -15.9671
   -15.6387 -15.4567 -14.9051 -14.8682 -14.7768 -14.6690 -14.5795 -14.5350
   -14.2816 -14.2249 -14.1615 -14.0519 -13.9464 -13.8648 -13.7361 -13.6424
   -13.5211 -13.2985 -13.0746 -12.9547 -12.9112 -12.6512 -12.5970 -12.3528
   -12.2795 -12.1541 -12.0863 -11.9656 -11.8039 -11.7489 -11.5775 -11.3569
   -11.3060 -11.2807 -11.2564 -11.1586 -10.9673 -10.8827 -10.7260 -10.6823
   -10.5656 -10.5531 -10.4543 -10.3102 -10.1587 -10.0539 -10.0169  -9.8577
    -9.8524  -9.6867  -9.6319  -9.5551  -9.4228  -9.3761  -9.3607  -9.3128
    -9.2619  -9.2436  -9.2429  -9.2405  -9.0599  -9.0500  -8.9806  -8.9740
    -8.9127  -8.8236  -8.8050  -8.7615  -8.7445  -8.6667  -8.6130  -8.5966
    -8.5765  -8.5671  -8.4966  -8.4876  -8.4402  -8.2931  -8.2103  -8.1771
    -8.1640  -8.1143  -8.0195  -7.9963  -7.8708  -7.8308  -7.7369  -7.7245
    -7.7185  -7.6681  -7.6533  -7.5732  -7.4779  -7.4385  -7.3727  -7.3071
    -7.2854  -7.2733  -7.1970  -7.1029  -7.0644  -6.9078  -6.8615  -6.8345
    -6.7757  -6.7526  -6.7013  -6.6312  -6.5672  -6.3951  -6.3590  -6.2408
    -6.1990  -6.0812  -6.0537  -5.9969  -5.9744  -5.9285  -5.8865  -5.7799
    -5.6354  -5.5772  -5.3442  -5.3410  -5.1893  -5.1117  -4.9413  -4.8988
    -4.7206  -4.7180  -4.5756  -4.4857  -4.4562  -4.3964  -4.1242  -3.9487
    -3.6777  -3.6120  -3.2950  -3.0557  -1.5773  -1.3341  -1.2893  -1.0262
    -0.7130  -0.6921  -0.4926  -0.4483  -0.3337  -0.1911  -0.0655   0.0336
     0.0371   0.1081   0.3195   0.4812   0.6536   0.7309   0.7692   0.8086
     0.9033   0.9768   1.0084   1.1464   1.2500   1.2529   1.3268   1.3286
     1.3780   1.5076   1.5831   1.6268   1.6486   1.6972   1.7084   1.8087
     1.8138   1.8862   2.0231   2.0259   2.0783   2.1457   2.1466   2.2112
     2.2987   2.3269   2.3978   2.3988   2.4284   2.4810   2.5113   2.5340
     2.5409   2.6198   2.6361   2.6810   2.6874   2.7167   2.7538   2.7854
     2.7944   2.8095   2.8129   2.9079   2.9185   3.0317   3.0403   3.0479
     3.0859   3.0893   3.1297   3.1710   3.1836   3.2353   3.2708   3.2970
     3.3248   3.3302   3.3524   3.4308   3.5085   3.5130   3.5300   3.5515
     3.5662   3.5836   3.6145   3.6525   3.6564   3.6983   3.7642   3.7741
     3.7980   3.8719   3.8979   3.9191   3.9225   3.9323   3.9700   3.9704
     4.0160   4.0378   4.0416   4.0468   4.0840   4.1471   4.1902   4.2150
     4.2288   4.2652   4.2684   4.3068   4.3139   4.3160   4.3917   4.3964
     4.4422   4.4731   4.4737   4.5004   4.5111   4.5146   4.5224   4.5548
     4.6037   4.6049   4.6555   4.6871   4.6922   4.7145   4.7179   4.7305
     4.7664   4.7846   4.8189   4.8232   4.8487   4.8545   4.9093   4.9306
     4.9609   4.9746   4.9929   5.0258   5.0414   5.0863   5.1018   5.1425
     5.1455   5.1652   5.2218   5.2369   5.2560   5.2772   5.2811   5.3180
     5.3226   5.3244   5.3717   5.3870   5.4009   5.4071   5.4084   5.4347
     5.4670   5.4774   5.5073   5.5661   5.5729   5.5814   5.5882   5.6299
     5.6310   5.6401   5.7210   5.7343   5.7536   5.7653   5.7851   5.8060
     5.8104   5.8146   5.8469   5.8640   5.8978   5.9206   5.9242   5.9685
     5.9842   5.9906   5.9910   6.0172   6.0369   6.0469   6.0601   6.0689
     6.1104   6.1234   6.1452   6.1725   6.1845   6.2214   6.2402   6.2420
     6.2438   6.2786   6.2975   6.3094   6.3229   6.3317   6.3721   6.3757
     6.3935   6.4141   6.4397   6.4592   6.4615   6.4898   6.5076   6.5092
     6.5581   6.5595   6.5967   6.5969   6.6371   6.6490   6.6521   6.6844
     6.7068   6.7084   6.7416   6.7627   6.7629   6.7800   6.7915   6.8044
     6.8322   6.8798   6.8815   6.8973   6.9123   6.9252   6.9562   6.9693
     6.9939   6.9958   7.0244   7.0335   7.0436   7.0656   7.0955   7.1096
     7.1190   7.1345   7.1723   7.2069   7.2234   7.2240   7.2301   7.2607
     7.2714   7.3244   7.3423   7.3613   7.3634   7.3680   7.4021   7.4078
     7.4239   7.4305   7.4609   7.4644   7.4883   7.5272   7.5277   7.5361
     7.5427   7.5698   7.5786   7.6036   7.6275   7.6429   7.6482   7.6770
     7.6919   7.7268   7.7286   7.7386   7.7413   7.7672   7.7741   7.7967
     7.7988   7.8285   7.8295   7.8488   7.8654   7.8827   7.9211   7.9527
     7.9871   8.0041   8.0163   8.0214   8.0218   8.0330   8.0895   8.0938
     8.1037   8.1189   8.1229   8.1280   8.1597   8.1768   8.1908   8.2374
     8.2667   8.2878   8.2970   8.3051

          k = 0.0000 0.0000 0.0123 (151098 PWs)   bands (ev):

   -21.2481 -21.1646 -20.9188 -20.7850 -20.5943 -20.4950 -20.2242 -20.0869
   -20.0716 -19.8709 -19.7265 -19.5716 -19.5401 -19.3595 -19.0066 -18.9491
   -18.8027 -18.6042 -18.4214 -18.3647 -18.3598 -18.1715 -18.1412 -17.8813
   -17.6453 -17.6435 -17.4313 -17.2988 -17.0869 -17.0719 -16.9946 -16.8478
   -16.8378 -16.7573 -16.5511 -16.4797 -16.2396 -16.2218 -16.0667 -15.9766
   -15.6354 -15.4602 -14.8875 -14.8637 -14.7782 -14.6755 -14.5809 -14.5327
   -14.2822 -14.2220 -14.1598 -14.0384 -13.9448 -13.8735 -13.7423 -13.6384
   -13.5394 -13.3203 -13.0703 -12.9478 -12.9161 -12.6609 -12.5713 -12.3427
   -12.2734 -12.1488 -12.0927 -11.9675 -11.7908 -11.7546 -11.5775 -11.3560
   -11.3019 -11.2909 -11.2713 -11.1681 -10.9722 -10.8686 -10.7300 -10.6767
   -10.5627 -10.5529 -10.4435 -10.3168 -10.1805 -10.0601 -10.0100  -9.8495
    -9.8411  -9.6913  -9.6147  -9.5648  -9.4333  -9.3669  -9.3586  -9.3121
    -9.2722  -9.2471  -9.2419  -9.2411  -9.0614  -9.0551  -8.9931  -8.9692
    -8.9077  -8.8263  -8.8096  -8.7581  -8.7317  -8.6631  -8.6078  -8.5993
    -8.5722  -8.5607  -8.4954  -8.4873  -8.4372  -8.2944  -8.2144  -8.1787
    -8.1661  -8.1147  -8.0116  -8.0054  -7.8638  -7.8269  -7.7475  -7.7213
    -7.7206  -7.6677  -7.6668  -7.5666  -7.4886  -7.4248  -7.3771  -7.3095
    -7.2844  -7.2742  -7.2034  -7.1087  -7.0585  -6.9096  -6.8474  -6.8312
    -6.7748  -6.7549  -6.7050  -6.6222  -6.5685  -6.3904  -6.3672  -6.2375
    -6.2100  -6.0822  -6.0573  -5.9931  -5.9884  -5.9175  -5.8766  -5.7833
    -5.6396  -5.5844  -5.3386  -5.3326  -5.1893  -5.1043  -4.9478  -4.9022
    -4.7191  -4.7169  -4.5740  -4.4893  -4.4540  -4.3957  -4.1217  -3.9564
    -3.6759  -3.6075  -3.2963  -3.0639  -1.5701  -1.3329  -1.2812  -1.0257
    -0.7123  -0.6929  -0.4933  -0.4554  -0.3352  -0.1811  -0.0804   0.0297
     0.0414   0.1141   0.3044   0.4638   0.6580   0.7335   0.7709   0.8060
     0.9171   0.9746   1.0001   1.1433   1.2547   1.2862   1.3216   1.3344
     1.3628   1.5146   1.5793   1.6340   1.6565   1.6994   1.7106   1.8065
     1.8112   1.8849   2.0293   2.0371   2.0862   2.1382   2.1410   2.2112
     2.3035   2.3291   2.3906   2.4043   2.4171   2.4787   2.4965   2.5274
     2.5296   2.6041   2.6426   2.6762   2.6835   2.7061   2.7568   2.7899
     2.7990   2.8007   2.8077   2.9032   2.9099   3.0374   3.0454   3.0521
     3.0841   3.0988   3.1384   3.1733   3.1906   3.2481   3.2598   3.3168
     3.3337   3.3365   3.3608   3.4196   3.5108   3.5153   3.5379   3.5459
     3.5629   3.5766   3.6188   3.6600   3.6726   3.7049   3.7436   3.7842
     3.7950   3.8763   3.8883   3.9140   3.9154   3.9336   3.9635   3.9775
     4.0058   4.0316   4.0358   4.0426   4.0863   4.1523   4.1714   4.2152
     4.2211   4.2587   4.2677   4.3139   4.3183   4.3256   4.3723   4.3988
     4.4144   4.4759   4.4782   4.5137   4.5147   4.5248   4.5259   4.5634
     4.6002   4.6218   4.6534   4.6880   4.6987   4.7142   4.7219   4.7304
     4.7638   4.7884   4.8069   4.8220   4.8344   4.8612   4.9260   4.9457
     4.9621   4.9720   4.9952   5.0091   5.0413   5.0889   5.0968   5.1409
     5.1606   5.1723   5.2204   5.2268   5.2472   5.2750   5.2787   5.3110
     5.3142   5.3283   5.3724   5.3775   5.3936   5.3961   5.4031   5.4350
     5.4633   5.4839   5.5149   5.5567   5.5648   5.5726   5.5880   5.6387
     5.6387   5.6412   5.7110   5.7420   5.7544   5.7815   5.7888   5.8067
     5.8122   5.8280   5.8525   5.8567   5.8951   5.9096   5.9297   5.9747
     5.9834   5.9887   5.9899   6.0190   6.0266   6.0553   6.0630   6.0633
     6.1218   6.1271   6.1473   6.1723   6.2025   6.2056   6.2225   6.2381
     6.2445   6.2739   6.2966   6.3209   6.3310   6.3368   6.3666   6.3898
     6.3948   6.4118   6.4266   6.4606   6.4681   6.4832   6.5012   6.5086
     6.5499   6.5679   6.5819   6.6114   6.6250   6.6462   6.6520   6.6843
     6.7062   6.7169   6.7407   6.7586   6.7617   6.7786   6.7911   6.8002
     6.8184   6.8771   6.8897   6.8924   6.9046   6.9187   6.9591   6.9851
     6.9933   7.0120   7.0232   7.0389   7.0603   7.0833   7.0841   7.1138
     7.1156   7.1450   7.1878   7.2105   7.2312   7.2358   7.2396   7.2500
     7.2693   7.3200   7.3441   7.3597   7.3684   7.3975   7.4029   7.4055
     7.4189   7.4386   7.4611   7.4693   7.4769   7.5075   7.5321   7.5352
     7.5497   7.5638   7.5672   7.5913   7.6112   7.6475   7.6541   7.6719
     7.6993   7.7289   7.7512   7.7598   7.7643   7.7732   7.7792   7.7982
     7.8123   7.8132   7.8326   7.8413   7.8635   7.8718   7.9270   7.9326
     7.9910   7.9933   7.9954   8.0090   8.0121   8.0525   8.0791   8.0820
     8.0887   8.1222   8.1232   8.1283   8.1517   8.1714   8.2075   8.2293
     8.2506   8.2914   8.3044   8.3081

          k = 0.0000 0.0000 0.0134 (151110 PWs)   bands (ev):

   -21.2464 -21.1677 -20.9149 -20.7893 -20.5901 -20.4963 -20.2236 -20.0809
   -20.0791 -19.8795 -19.7200 -19.5613 -19.5450 -19.3622 -19.0047 -18.9523
   -18.7950 -18.6102 -18.4165 -18.3665 -18.3637 -18.1855 -18.1325 -17.8887
   -17.6407 -17.6343 -17.4240 -17.2952 -17.0966 -17.0792 -16.9888 -16.8483
   -16.8348 -16.7600 -16.5447 -16.4795 -16.2418 -16.2247 -16.0686 -15.9864
   -15.6314 -15.4641 -14.8700 -14.8590 -14.7790 -14.6817 -14.5830 -14.5309
   -14.2812 -14.2187 -14.1580 -14.0249 -13.9431 -13.8832 -13.7486 -13.6343
   -13.5584 -13.3415 -13.0659 -12.9400 -12.9212 -12.6708 -12.5470 -12.3325
   -12.2680 -12.1434 -12.0975 -11.9688 -11.7779 -11.7612 -11.5765 -11.3554
   -11.3089 -11.2983 -11.2789 -11.1779 -10.9756 -10.8548 -10.7347 -10.6714
   -10.5611 -10.5525 -10.4306 -10.3236 -10.2020 -10.0663 -10.0023  -9.8411
    -9.8303  -9.6960  -9.6001  -9.5731  -9.4437  -9.3582  -9.3564  -9.3095
    -9.2861  -9.2515  -9.2399  -9.2392  -9.0616  -9.0604  -9.0057  -8.9641
    -8.9048  -8.8275  -8.8144  -8.7546  -8.7224  -8.6600  -8.6038  -8.5991
    -8.5677  -8.5533  -8.4941  -8.4872  -8.4333  -8.2960  -8.2190  -8.1807
    -8.1678  -8.1142  -8.0148  -8.0036  -7.8568  -7.8230  -7.7581  -7.7252
    -7.7179  -7.6807  -7.6654  -7.5598  -7.4992  -7.4109  -7.3818  -7.3119
    -7.2832  -7.2758  -7.2093  -7.1151  -7.0523  -6.9116  -6.8333  -6.8276
    -6.7738  -6.7569  -6.7089  -6.6132  -6.5704  -6.3855  -6.3754  -6.2342
    -6.2206  -6.0836  -6.0605  -6.0023  -5.9890  -5.9070  -5.8665  -5.7866
    -5.6442  -5.5923  -5.3359  -5.3214  -5.1886  -5.0967  -4.9547  -4.9060
    -4.7176  -4.7158  -4.5722  -4.4930  -4.4517  -4.3953  -4.1189  -3.9642
    -3.6738  -3.6036  -3.2970  -3.0727  -1.5625  -1.3350  -1.2694  -1.0254
    -0.7116  -0.6937  -0.4941  -0.4621  -0.3366  -0.1710  -0.0964   0.0255
     0.0461   0.1205   0.2895   0.4463   0.6631   0.7363   0.7726   0.8031
     0.9314   0.9720   0.9919   1.1409   1.2574   1.3163   1.3193   1.3416
     1.3475   1.5225   1.5755   1.6392   1.6632   1.7019   1.7131   1.8066
     1.8093   1.8825   2.0365   2.0472   2.0943   2.1302   2.1365   2.2118
     2.3086   2.3309   2.3803   2.4062   2.4093   2.4790   2.4822   2.5142
     2.5245   2.5875   2.6496   2.6717   2.6788   2.6959   2.7604   2.7853
     2.7937   2.8048   2.8066   2.8994   2.9012   3.0365   3.0551   3.0586
     3.0825   3.1091   3.1478   3.1743   3.1942   3.2515   3.2611   3.3360
     3.3441   3.3460   3.3695   3.4099   3.5094   3.5175   3.5222   3.5562
     3.5587   3.5796   3.6226   3.6647   3.6906   3.7181   3.7222   3.7875
     3.7931   3.8748   3.8857   3.9038   3.9122   3.9357   3.9567   3.9795
     4.0047   4.0140   4.0353   4.0416   4.0922   4.1525   4.1573   4.2023
     4.2274   4.2490   4.2708   4.3120   4.3327   4.3351   4.3500   4.3858
     4.4075   4.4744   4.4830   4.5027   4.5172   4.5200   4.5513   4.5747
     4.5909   4.6395   4.6650   4.6851   4.6889   4.7253   4.7345   4.7415
     4.7451   4.7961   4.8113   4.8135   4.8211   4.8656   4.9157   4.9548
     4.9735   4.9950   4.9966   5.0017   5.0401   5.0862   5.0916   5.1378
     5.1601   5.1997   5.2153   5.2170   5.2374   5.2664   5.2690   5.2994
     5.3115   5.3331   5.3685   5.3711   5.3830   5.3933   5.3978   5.4496
     5.4580   5.4889   5.5153   5.5416   5.5487   5.5791   5.5909   5.6441
     5.6443   5.6456   5.6988   5.7453   5.7488   5.7740   5.7931   5.8070
     5.8263   5.8403   5.8511   5.8670   5.8725   5.9190   5.9472   5.9627
     5.9791   5.9912   5.9985   6.0105   6.0254   6.0418   6.0711   6.0724
     6.1185   6.1400   6.1496   6.1752   6.1962   6.2119   6.2186   6.2334
     6.2472   6.2722   6.2957   6.3197   6.3424   6.3527   6.3556   6.3964
     6.4042   6.4090   6.4211   6.4582   6.4594   6.4737   6.4966   6.5256
     6.5428   6.5630   6.5794   6.6117   6.6279   6.6457   6.6512   6.6864
     6.7028   6.7240   6.7385   6.7549   6.7642   6.7660   6.7906   6.8068
     6.8088   6.8740   6.8851   6.8920   6.8977   6.9145   6.9605   6.9880
     7.0008   7.0022   7.0348   7.0441   7.0679   7.0981   7.1000   7.1086
     7.1259   7.1542   7.2010   7.2099   7.2309   7.2436   7.2482   7.2536
     7.2717   7.3126   7.3341   7.3579   7.3580   7.3935   7.4080   7.4163
     7.4258   7.4593   7.4667   7.4735   7.4788   7.4893   7.5214   7.5342
     7.5383   7.5608   7.5757   7.5937   7.5980   7.6499   7.6634   7.6711
     7.6902   7.7353   7.7444   7.7732   7.7756   7.7843   7.8050   7.8102
     7.8145   7.8319   7.8355   7.8356   7.8640   7.8664   7.8945   7.9421
     7.9750   7.9816   7.9926   7.9978   8.0042   8.0578   8.0611   8.0715
     8.0919   8.0985   8.1232   8.1374   8.1562   8.1738   8.2195   8.2221
     8.2446   8.2901   8.3025   8.3040

          k = 0.0000 0.0000 0.0145 (151092 PWs)   bands (ev):

   -21.2445 -21.1710 -20.9108 -20.7937 -20.5858 -20.4979 -20.2227 -20.0869
   -20.0748 -19.8881 -19.7132 -19.5510 -19.5503 -19.3652 -19.0028 -18.9553
   -18.7872 -18.6162 -18.4118 -18.3684 -18.3672 -18.1994 -18.1237 -17.8965
   -17.6377 -17.6242 -17.4158 -17.2909 -17.1067 -17.0869 -16.9828 -16.8494
   -16.8316 -16.7624 -16.5384 -16.4793 -16.2441 -16.2278 -16.0704 -15.9962
   -15.6269 -15.4684 -14.8540 -14.8529 -14.7793 -14.6876 -14.5855 -14.5295
   -14.2785 -14.2152 -14.1563 -14.0117 -13.9414 -13.8939 -13.7547 -13.6300
   -13.5778 -13.3619 -13.0612 -12.9314 -12.9265 -12.6809 -12.5240 -12.3226
   -12.2635 -12.1383 -12.1003 -11.9693 -11.7683 -11.7653 -11.5745 -11.3550
   -11.3302 -11.2953 -11.2839 -11.1878 -10.9773 -10.8413 -10.7402 -10.6666
   -10.5604 -10.5518 -10.4164 -10.3305 -10.2228 -10.0727  -9.9939  -9.8326
    -9.8201  -9.7003  -9.5954  -9.5732  -9.4541  -9.3540  -9.3500  -9.3048
    -9.3013  -9.2560  -9.2376  -9.2372  -9.0660  -9.0607  -9.0182  -8.9589
    -8.9045  -8.8268  -8.8194  -8.7510  -8.7162  -8.6589  -8.6009  -8.5953
    -8.5630  -8.5449  -8.4926  -8.4873  -8.4287  -8.2977  -8.2240  -8.1831
    -8.1689  -8.1124  -8.0244  -7.9954  -7.8498  -7.8190  -7.7686  -7.7345
    -7.7144  -7.6900  -7.6639  -7.5528  -7.5097  -7.3969  -7.3869  -7.3143
    -7.2820  -7.2781  -7.2149  -7.1219  -7.0458  -6.9139  -6.8238  -6.8191
    -6.7725  -6.7587  -6.7127  -6.6040  -6.5728  -6.3838  -6.3804  -6.2311
    -6.2309  -6.0853  -6.0634  -6.0158  -5.9845  -5.8974  -5.8562  -5.7897
    -5.6492  -5.6008  -5.3331  -5.3111  -5.1869  -5.0887  -4.9621  -4.9102
    -4.7161  -4.7146  -4.5703  -4.4967  -4.4491  -4.3952  -4.1158  -3.9721
    -3.6715  -3.6004  -3.2968  -3.0821  -1.5543  -1.3392  -1.2554  -1.0253
    -0.7109  -0.6947  -0.4950  -0.4684  -0.3377  -0.1610  -0.1132   0.0211
     0.0512   0.1274   0.2749   0.4290   0.6686   0.7393   0.7744   0.8000
     0.9461   0.9692   0.9840   1.1393   1.2576   1.3136   1.3320   1.3484
     1.3521   1.5313   1.5720   1.6420   1.6684   1.7049   1.7157   1.8080
     1.8091   1.8793   2.0446   2.0556   2.1028   2.1235   2.1323   2.2129
     2.3138   2.3319   2.3678   2.3960   2.4137   2.4686   2.4808   2.5014
     2.5189   2.5705   2.6571   2.6673   2.6734   2.6865   2.7646   2.7720
     2.7968   2.8057   2.8063   2.8872   2.9021   3.0358   3.0562   3.0711
     3.0824   3.1201   3.1579   3.1733   3.1960   3.2469   3.2746   3.3526
     3.3559   3.3570   3.3779   3.4037   3.5020   3.5055   3.5197   3.5463
     3.5666   3.5965   3.6252   3.6701   3.6960   3.7138   3.7340   3.7834
     3.7920   3.8694   3.8918   3.8930   3.9087   3.9384   3.9496   3.9713
     3.9956   4.0144   4.0360   4.0386   4.1007   4.1362   4.1619   4.1902
     4.2335   4.2394   4.2736   4.3035   4.3352   4.3437   4.3491   4.3569
     4.4176   4.4695   4.4881   4.4905   4.5026   4.5184   4.5734   4.5764
     4.5904   4.6566   4.6818   4.6862   4.6914   4.7198   4.7377   4.7393
[...]
    -6.7621  -6.7459  -6.6910  -6.6255  -6.5192  -6.4633  -6.3352  -6.3030
    -6.1954  -6.1496  -6.0749  -6.0721  -5.9295  -5.8884  -5.7600  -5.7581
    -5.7095  -5.6914  -5.3026  -5.2842  -5.1138  -5.0451  -5.0121  -4.9640
    -4.7067  -4.7066  -4.5483  -4.5293  -4.4222  -4.4056  -4.0768  -4.0397
    -3.6393  -3.6114  -3.2478  -3.1819  -1.4683  -1.4089  -1.1119  -1.0495
    -0.7074  -0.7046  -0.5028  -0.5014  -0.3229  -0.2652  -0.0772  -0.0311
     0.1125   0.1663   0.2107   0.2872   0.7258   0.7611   0.7696   0.7820
     0.9369   0.9396   1.0897   1.1586   1.1883   1.1965   1.3511   1.3722
     1.5692   1.5851   1.6009   1.6353   1.6520   1.7004   1.7596   1.8025
     1.8638   1.8724   2.0419   2.0779   2.1358   2.1499   2.1882   2.2390
     2.2560   2.2567   2.3604   2.3721   2.3845   2.4156   2.4245   2.4544
     2.4660   2.4930   2.6135   2.6165   2.6815   2.7302   2.7320   2.7538
     2.7611   2.7690   2.8244   2.8257   2.9775   2.9837   2.9878   3.0545
     3.1947   3.2041   3.2227   3.2498   3.2816   3.3091   3.3247   3.3406
     3.3709   3.3805   3.3886   3.4206   3.4294   3.4463   3.5096   3.5275
     3.5881   3.5965   3.7087   3.7395   3.7573   3.7632   3.7766   3.7930
     3.8251   3.8254   3.8504   3.8749   3.8962   3.9336   3.9499   3.9738
     3.9783   3.9817   3.9991   4.0147   4.0917   4.1130   4.1202   4.1382
     4.1626   4.1989   4.2266   4.2613   4.2978   4.3084   4.3665   4.3717
     4.3880   4.4048   4.4417   4.4737   4.5234   4.5254   4.5711   4.5766
     4.6283   4.6336   4.6649   4.7010   4.7292   4.7395   4.7519   4.7704
     4.7946   4.8078   4.8969   4.9023   4.9105   4.9191   4.9360   4.9531
     4.9844   5.0279   5.0307   5.0567   5.0589   5.1125   5.1222   5.1380
     5.1550   5.1568   5.2067   5.2233   5.2361   5.2408   5.2525   5.2649
     5.2736   5.3186   5.3256   5.3366   5.3545   5.3636   5.3826   5.3860
     5.4144   5.4326   5.4420   5.4657   5.5271   5.5808   5.5982   5.6124
     5.6549   5.6881   5.6895   5.7403   5.7477   5.7516   5.7547   5.7558
     5.7994   5.8245   5.8510   5.8515   5.8645   5.9057   5.9081   5.9286
     5.9455   5.9685   6.0292   6.0641   6.0731   6.0778   6.0800   6.0864
     6.1073   6.1323   6.1581   6.1902   6.2264   6.2411   6.2416   6.2687
     6.2791   6.2839   6.3269   6.3892   6.3933   6.4192   6.4199   6.4212
     6.4296   6.4630   6.4764   6.4840   6.4850   6.5024   6.5300   6.5412
     6.5439   6.5689   6.6066   6.6084   6.6100   6.6410   6.6497   6.6556
     6.6902   6.6913   6.7382   6.7388   6.7488   6.7607   6.7720   6.8082
     6.8107   6.8303   6.8418   6.8606   6.8805   6.9281   6.9429   6.9571
     6.9670   6.9929   7.0075   7.0307   7.0325   7.0651   7.1062   7.1194
     7.1317   7.1408   7.1636   7.2136   7.2313   7.2497   7.2550   7.2591
     7.2722   7.3241   7.3629   7.3905   7.3924   7.3945   7.4114   7.4531
     7.4547   7.4619   7.4669   7.5035   7.5183   7.5340   7.5674   7.5715
     7.5755   7.5953   7.6374   7.6377   7.6406   7.6465   7.6535   7.6676
     7.6975   7.7210   7.7447   7.7479   7.7516   7.7846   7.7906   7.7946
     7.8054   7.8334   7.8780   7.8831   7.8953   7.9164   7.9468   7.9585
     7.9677   7.9708   7.9942   8.0023   8.0352   8.0668   8.1054   8.1061
     8.1189   8.1302   8.1345   8.1471   8.1942   8.2066   8.2106   8.2439
     8.2501   8.2529   8.2859   8.3125

          k = 0.0000 0.0000 0.0257 (151156 PWs)   bands (ev):

   -21.2190 -21.2060 -20.8633 -20.8428 -20.5409 -20.5249 -20.1894 -20.1644
   -20.0038 -19.9721 -19.6419 -19.6135 -19.4519 -19.4192 -18.9829 -18.9760
   -18.7100 -18.6813 -18.3980 -18.3920 -18.3401 -18.3106 -18.0282 -17.9886
   -17.6031 -17.5927 -17.2904 -17.2319 -17.2173 -17.1790 -16.9160 -16.8906
   -16.7953 -16.7831 -16.4899 -16.4819 -16.2596 -16.2561 -16.0785 -16.0689
   -15.5599 -15.5295 -14.8059 -14.7903 -14.7446 -14.7216 -14.5792 -14.5536
   -14.1860 -14.1791 -14.1279 -14.0642 -13.9191 -13.9174 -13.7782 -13.7452
   -13.5645 -13.5216 -13.0075 -12.9840 -12.8289 -12.7860 -12.3668 -12.3274
   -12.1949 -12.1583 -12.0223 -11.9761 -11.7643 -11.7156 -11.5381 -11.5171
   -11.3487 -11.3334 -11.2837 -11.2696 -10.9037 -10.8489 -10.7236 -10.6880
   -10.5271 -10.5256 -10.4006 -10.3821 -10.2328 -10.1711  -9.8792  -9.8298
    -9.7571  -9.7357  -9.5939  -9.5526  -9.4957  -9.4559  -9.3205  -9.3032
    -9.2719  -9.2500  -9.1938  -9.1757  -9.1460  -9.1347  -9.0135  -8.9807
    -8.9004  -8.8762  -8.7617  -8.7337  -8.7145  -8.7012  -8.5851  -8.5735
    -8.5168  -8.5024  -8.4578  -8.4437  -8.3552  -8.3266  -8.2580  -8.2347
    -8.1451  -8.1177  -8.0166  -7.9405  -7.9069  -7.8689  -7.7987  -7.7939
    -7.6874  -7.6850  -7.6342  -7.6055  -7.4788  -7.4497  -7.3232  -7.3143
    -7.2641  -7.2624  -7.2538  -7.2149  -6.9767  -6.9528  -6.7857  -6.7748
    -6.7598  -6.7490  -6.6788  -6.6350  -6.5098  -6.4725  -6.3302  -6.3089
    -6.1893  -6.1588  -6.0749  -6.0731  -5.9224  -5.8946  -5.7516  -5.7469
    -5.7176  -5.7024  -5.2991  -5.2866  -5.1021  -5.0561  -5.0036  -4.9715
    -4.7063  -4.7062  -4.5453  -4.5326  -4.4191  -4.4080  -4.0712  -4.0465
    -3.6346  -3.6157  -3.2378  -3.1936  -1.4582  -1.4185  -1.0985  -1.0568
    -0.7072  -0.7054  -0.5032  -0.5025  -0.3166  -0.2782  -0.0689  -0.0382
     0.1208   0.1566   0.2223   0.2733   0.7321   0.7557   0.7726   0.7810
     0.9354   0.9374   1.1061   1.1638   1.1719   1.1892   1.3558   1.3702
     1.5731   1.5948   1.6006   1.6445   1.6471   1.6914   1.7683   1.7979
     1.8667   1.8742   2.0447   2.0706   2.1419   2.1514   2.1989   2.2412
     2.2441   2.2511   2.3650   2.3728   2.3821   2.4031   2.4260   2.4473
     2.4707   2.4890   2.6102   2.6126   2.6905   2.7329   2.7354   2.7445
     2.7552   2.7641   2.8279   2.8286   2.9736   2.9805   2.9953   3.0428
     3.2022   3.2234   3.2236   3.2612   3.2962   3.3062   3.3067   3.3472
     3.3655   3.3665   3.3952   3.4162   3.4337   3.4454   3.4989   3.5139
     3.6121   3.6147   3.6913   3.7139   3.7644   3.7729   3.7847   3.8124
     3.8183   3.8282   3.8559   3.8824   3.8978   3.9317   3.9475   3.9669
     3.9706   3.9845   3.9977   4.0262   4.0714   4.0948   4.1339   4.1421
     4.1561   4.2032   4.2196   4.2350   4.3084   4.3157   4.3681   4.3723
     4.3869   4.3950   4.4569   4.4767   4.5142   4.5418   4.5466   4.5885
     4.6118   4.6261   4.6772   4.7051   4.7240   4.7428   4.7428   4.7772
     4.7920   4.8296   4.8850   4.9006   4.9162   4.9252   4.9318   4.9688
     4.9886   5.0118   5.0346   5.0729   5.0749   5.1057   5.1188   5.1303
     5.1637   5.1678   5.2085   5.2189   5.2268   5.2508   5.2512   5.2532
     5.2777   5.3083   5.3110   5.3334   5.3499   5.3654   5.3907   5.3935
     5.4128   5.4333   5.4489   5.4523   5.5110   5.5684   5.6080   5.6212
     5.6516   5.6711   5.6960   5.7474   5.7490   5.7505   5.7579   5.7615
     5.7925   5.8128   5.8516   5.8534   5.8721   5.9014   5.9036   5.9379
     5.9468   5.9660   6.0339   6.0487   6.0592   6.0627   6.0773   6.0834
     6.1287   6.1523   6.1619   6.1919   6.2303   6.2409   6.2451   6.2456
     6.2636   6.2812   6.3402   6.3912   6.3926   6.4122   6.4264   6.4357
     6.4457   6.4761   6.4805   6.4848   6.4976   6.5054   6.5229   6.5568
     6.5632   6.5791   6.5999   6.6026   6.6195   6.6406   6.6483   6.6653
     6.6821   6.6843   6.7183   6.7347   6.7371   6.7692   6.7743   6.7963
     6.8009   6.8245   6.8295   6.8491   6.8889   6.9217   6.9534   6.9613
     6.9691   6.9825   7.0001   7.0168   7.0458   7.0781   7.1026   7.1244
     7.1289   7.1410   7.1701   7.2173   7.2361   7.2490   7.2550   7.2639
     7.2705   7.3083   7.3400   7.3794   7.3893   7.4016   7.4157   7.4407
     7.4652   7.4715   7.4725   7.5059   7.5170   7.5220   7.5682   7.5732
     7.5766   7.6086   7.6410   7.6474   7.6507   7.6573   7.6656   7.6864
     7.6983   7.7180   7.7285   7.7377   7.7517   7.7730   7.7945   7.7967
     7.8040   7.8118   7.8855   7.8928   7.9010   7.9270   7.9353   7.9537
     7.9540   7.9977   8.0003   8.0060   8.0578   8.0699   8.0990   8.1005
     8.1078   8.1258   8.1311   8.1394   8.1983   8.1989   8.2051   8.2540
     8.2576   8.2636   8.2857   8.3035

          k = 0.0000 0.0000 0.0268 (151156 PWs)   bands (ev):

   -21.2159 -21.2093 -20.8582 -20.8480 -20.5367 -20.5287 -20.1836 -20.1711
   -19.9960 -19.9802 -19.6347 -19.6205 -19.4432 -19.4268 -18.9811 -18.9777
   -18.7027 -18.6883 -18.3970 -18.3939 -18.3334 -18.3187 -18.0183 -17.9985
   -17.6000 -17.5947 -17.2756 -17.2463 -17.2079 -17.1887 -16.9095 -16.8967
   -16.7919 -16.7858 -16.4873 -16.4833 -16.2594 -16.2576 -16.0770 -16.0723
   -15.5522 -15.5370 -14.8017 -14.7938 -14.7385 -14.7267 -14.5727 -14.5596
   -14.1806 -14.1779 -14.1159 -14.0831 -13.9170 -13.9163 -13.7725 -13.7559
   -13.5548 -13.5334 -13.0016 -12.9899 -12.8182 -12.7967 -12.3561 -12.3364
   -12.1852 -12.1667 -12.0098 -11.9863 -11.7507 -11.7253 -11.5346 -11.5248
   -11.3458 -11.3381 -11.2812 -11.2741 -10.8904 -10.8628 -10.7140 -10.6961
   -10.5245 -10.5238 -10.3997 -10.3904 -10.2165 -10.1855  -9.8663  -9.8413
    -9.7514  -9.7407  -9.5835  -9.5627  -9.4877  -9.4679  -9.3164  -9.3077
    -9.2656  -9.2546  -9.1814  -9.1657  -9.1575  -9.1451  -9.0059  -8.9895
    -8.8943  -8.8822  -8.7543  -8.7402  -8.7111  -8.7046  -8.5825  -8.5765
    -8.5128  -8.5056  -8.4522  -8.4448  -8.3472  -8.3328  -8.2537  -8.2416
    -8.1391  -8.1254  -7.9992  -7.9610  -7.8975  -7.8785  -7.7965  -7.7942
    -7.6861  -7.6848  -7.6280  -7.6135  -7.4714  -7.4569  -7.3217  -7.3172
    -7.2617  -7.2565  -7.2501  -7.2263  -6.9704  -6.9584  -6.7826  -6.7772
    -6.7573  -6.7519  -6.6671  -6.6451  -6.5004  -6.4817  -6.3251  -6.3146
    -6.1827  -6.1674  -6.0748  -6.0739  -5.9152  -5.9013  -5.7430  -5.7358
    -5.7260  -5.7135  -5.2957  -5.2893  -5.0903  -5.0673  -4.9954  -4.9793
    -4.7060  -4.7060  -4.5423  -4.5359  -4.4162  -4.4106  -4.0653  -4.0530
    -3.6299  -3.6204  -3.2273  -3.2051  -1.4481  -1.4282  -1.0863  -1.0654
    -0.7069  -0.7060  -0.5035  -0.5032  -0.3090  -0.2898  -0.0609  -0.0455
     0.1293   0.1472   0.2344   0.2599   0.7382   0.7500   0.7753   0.7795
     0.9348   0.9359   1.1226   1.1555   1.1695   1.1822   1.3602   1.3675
     1.5778   1.5888   1.6141   1.6358   1.6589   1.6813   1.7769   1.7920
     1.8697   1.8740   2.0496   2.0631   2.1466   2.1514   2.2097   2.2324
     2.2429   2.2472   2.3696   2.3765   2.3784   2.3921   2.4296   2.4407
     2.4755   2.4848   2.6086   2.6099   2.7007   2.7236   2.7396   2.7473
     2.7496   2.7587   2.8302   2.8305   2.9717   2.9752   3.0072   3.0310
     3.2093   3.2206   3.2436   3.2738   3.2838   3.2978   3.3155   3.3491
     3.3543   3.3640   3.4016   3.4120   3.4376   3.4436   3.4939   3.5025
     3.6338   3.6370   3.6726   3.6881   3.7697   3.7747   3.7932   3.8103
     3.8308   3.8320   3.8637   3.8884   3.8987   3.9172   3.9362   3.9563
     3.9845   3.9947   3.9990   4.0404   4.0468   4.0757   4.1405   4.1502
     4.1606   4.2065   4.2093   4.2141   4.3171   4.3207   4.3692   4.3720
     4.3853   4.3878   4.4764   4.4826   4.5023   4.5221   4.5599   4.5949
     4.5994   4.6180   4.6915   4.7121   4.7162   4.7326   4.7470   4.7628
     4.8132   4.8430   4.8745   4.9029   4.9049   4.9171   4.9520   4.9813
     4.9908   4.9923   5.0496   5.0830   5.0848   5.0879   5.1206   5.1246
     5.1763   5.1827   5.2031   5.2112   5.2242   5.2401   5.2514   5.2610
     5.2862   5.2927   5.3029   5.3284   5.3424   5.3597   5.3953   5.3974
     5.4171   5.4380   5.4486   5.4757   5.4912   5.5410   5.6204   5.6303
     5.6462   5.6525   5.7161   5.7477   5.7481   5.7550   5.7560   5.7714
     5.7799   5.7998   5.8522   5.8533   5.8818   5.8985   5.9106   5.9383
     5.9501   5.9609   6.0345   6.0403   6.0464   6.0537   6.0775   6.0806
     6.1477   6.1629   6.1746   6.1961   6.2214   6.2235   6.2411   6.2412
     6.2651   6.2770   6.3554   6.3845   6.3932   6.4034   6.4322   6.4376
     6.4669   6.4835   6.4852   6.4890   6.4928   6.5111   6.5256   6.5589
     6.5703   6.5906   6.5917   6.6125   6.6341   6.6403   6.6605   6.6619
     6.6780   6.6880   6.6974   6.7271   6.7289   6.7357   6.7776   6.7934
     6.8082   6.8248   6.8273   6.8373   6.8977   6.9145   6.9612   6.9633
     6.9724   6.9758   6.9970   7.0053   7.0590   7.0828   7.0956   7.1141
     7.1414   7.1435   7.1829   7.2117   7.2404   7.2470   7.2548   7.2696
     7.2722   7.2943   7.3339   7.3658   7.3887   7.4096   7.4138   7.4166
     7.4779   7.4811   7.4907   7.4976   7.5075   7.5171   7.5693   7.5724
     7.5862   7.6116   7.6434   7.6476   7.6590   7.6710   7.6726   7.6936
     7.7071   7.7204   7.7234   7.7319   7.7437   7.7629   7.7901   7.7956
     7.8035   7.8100   7.8892   7.8993   7.9035   7.9067   7.9439   7.9459
     7.9571   7.9927   8.0208   8.0321   8.0597   8.0747   8.0841   8.0945
     8.1089   8.1170   8.1254   8.1323   8.1903   8.2002   8.2188   8.2629
     8.2657   8.2725   8.2786   8.2915

          k = 0.0000 0.0000-0.0279 (151156 PWs)   bands (ev):

   -21.2126 -21.2126 -20.8531 -20.8531 -20.5326 -20.5326 -20.1776 -20.1776
   -19.9881 -19.9881 -19.6276 -19.6276 -19.4348 -19.4348 -18.9794 -18.9794
   -18.6954 -18.6954 -18.3956 -18.3956 -18.3263 -18.3262 -18.0084 -18.0084
   -17.5971 -17.5971 -17.2609 -17.2609 -17.1984 -17.1983 -16.9030 -16.9030
   -16.7888 -16.7888 -16.4851 -16.4851 -16.2587 -16.2587 -16.0750 -16.0750
   -15.5446 -15.5445 -14.7976 -14.7976 -14.7325 -14.7324 -14.5661 -14.5661
   -14.1782 -14.1781 -14.1006 -14.1006 -13.9161 -13.9161 -13.7651 -13.7650
   -13.5445 -13.5444 -12.9958 -12.9958 -12.8074 -12.8074 -12.3460 -12.3460
   -12.1757 -12.1757 -11.9977 -11.9977 -11.7374 -11.7373 -11.5304 -11.5304
   -11.3423 -11.3423 -11.2780 -11.2780 -10.8767 -10.8767 -10.7048 -10.7048
   -10.5234 -10.5234 -10.3963 -10.3963 -10.2007 -10.2006  -9.8536  -9.8536
    -9.7459  -9.7459  -9.5731  -9.5730  -9.4785  -9.4784  -9.3121  -9.3121
    -9.2599  -9.2598  -9.1693  -9.1693  -9.1555  -9.1554  -8.9980  -8.9979
    -8.8883  -8.8883  -8.7471  -8.7471  -8.7078  -8.7078  -8.5796  -8.5795
    -8.5091  -8.5091  -8.4477  -8.4477  -8.3397  -8.3397  -8.2480  -8.2480
    -8.1325  -8.1325  -7.9807  -7.9806  -7.8881  -7.8881  -7.7951  -7.7950
    -7.6852  -7.6852  -7.6211  -7.6210  -7.4641  -7.4641  -7.3197  -7.3196
    -7.2592  -7.2592  -7.2380  -7.2380  -6.9643  -6.9642  -6.7798  -6.7798
    -6.7547  -6.7546  -6.6558  -6.6558  -6.4910  -6.4910  -6.3200  -6.3199
    -6.1753  -6.1753  -6.0744  -6.0744  -5.9082  -5.9081  -5.7345  -5.7344
    -5.7246  -5.7246  -5.2924  -5.2924  -5.0787  -5.0787  -4.9872  -4.9872
    -4.7059  -4.7059  -4.5392  -4.5391  -4.4133  -4.4133  -4.0593  -4.0593
    -3.6251  -3.6251  -3.2164  -3.2163  -1.4381  -1.4381  -1.0752  -1.0752
    -0.7065  -0.7065  -0.5035  -0.5035  -0.3001  -0.3001  -0.0531  -0.0530
     0.1381   0.1381   0.2469   0.2469   0.7442   0.7442   0.7776   0.7776
     0.9349   0.9349   1.1391   1.1391   1.1757   1.1757   1.3641   1.3642
     1.5831   1.5831   1.6257   1.6257   1.6704   1.6704   1.7849   1.7849
     1.8724   1.8724   2.0559   2.0559   2.1498   2.1498   2.2209   2.2209
     2.2447   2.2447   2.3741   2.3741   2.3831   2.3831   2.4347   2.4347
     2.4802   2.4802   2.6085   2.6085   2.7119   2.7119   2.7443   2.7443
     2.7530   2.7530   2.8311   2.8311   2.9722   2.9722   3.0190   3.0191
     3.2156   3.2156   3.2637   3.2637   3.2864   3.2864   3.3322   3.3322
     3.3603   3.3603   3.4072   3.4072   3.4409   3.4409   3.4953   3.4953
     3.6532   3.6532   3.6625   3.6625   3.7732   3.7732   3.8018   3.8018
     3.8349   3.8349   3.8835   3.8835   3.8980   3.8980   3.9456   3.9456
     3.9904   3.9904   4.0221   4.0221   4.0571   4.0571   4.1450   4.1450
     4.1843   4.1843   4.2099   4.2099   4.3215   4.3215   4.3706   4.3707
     4.3848   4.3848   4.4913   4.4913   4.4985   4.4985   4.5776   4.5776
     4.6092   4.6092   4.7053   4.7053   4.7216   4.7216   4.7531   4.7531
     4.8327   4.8328   4.8856   4.8856   4.9103   4.9103   4.9723   4.9723
     4.9888   4.9888   5.0682   5.0682   5.0876   5.0876   5.1217   5.1217
     5.1904   5.1904   5.1987   5.1987   5.2301   5.2301   5.2563   5.2563
     5.2946   5.2946   5.3049   5.3049   5.3515   5.3515   5.3969   5.3969
     5.4266   5.4266   5.4694   5.4694   5.5084   5.5084   5.6352   5.6352
     5.6390   5.6390   5.7386   5.7386   5.7472   5.7472   5.7664   5.7664
     5.7858   5.7858   5.8527   5.8528   5.8910   5.8910   5.9269   5.9269
     5.9551   5.9552   6.0351   6.0351   6.0472   6.0473   6.0785   6.0785
     6.1594   6.1594   6.1978   6.1978   6.2072   6.2072   6.2412   6.2412
     6.2714   6.2714   6.3710   6.3710   6.3970   6.3970   6.4361   6.4361
     6.4824   6.4825   6.4849   6.4849   6.5011   6.5011   6.5431   6.5431
     6.5812   6.5812   6.6049   6.6049   6.6477   6.6477   6.6661   6.6661
     6.6774   6.6774   6.7029   6.7029   6.7244   6.7245   6.7856   6.7856
     6.8206   6.8206   6.8286   6.8286   6.9064   6.9064   6.9641   6.9641
     6.9735   6.9735   6.9987   6.9987   7.0716   7.0716   7.1038   7.1038
     7.1451   7.1451   7.1992   7.1992   7.2441   7.2441   7.2603   7.2603
     7.2822   7.2822   7.3487   7.3487   7.3954   7.3954   7.4146   7.4146
     7.4891   7.4891   7.4931   7.4931   7.5065   7.5065   7.5708   7.5708
     7.6013   7.6013   7.6447   7.6447   7.6680   7.6680   7.6904   7.6904
     7.7084   7.7084   7.7309   7.7309   7.7511   7.7511   7.7888   7.7888
     7.8094   7.8094   7.8942   7.8942   7.9029   7.9029   7.9414   7.9414
     7.9783   7.9783   8.0363   8.0363   8.0707   8.0707   8.0801   8.0801
     8.1176   8.1176   8.1207   8.1207   8.1935   8.1935   8.2460   8.2460
     8.2745   8.2745   8.2808   8.2808

     the Fermi energy is    -2.9338 ev

     Writing output data file V9_5.save/

     init_run     :     26.82s CPU     27.44s WALL (       1 calls)
     electrons    :   9827.26s CPU   9910.24s WALL (       1 calls)

     Called by init_run:
     wfcinit      :      0.00s CPU      0.00s WALL (       1 calls)
     potinit      :      1.09s CPU      1.21s WALL (       1 calls)
     hinit0       :     22.77s CPU     23.02s WALL (       1 calls)

     Called by electrons:
     c_bands      :   9827.24s CPU   9910.12s WALL (       1 calls)
     v_of_rho     :      0.84s CPU      0.89s WALL (       1 calls)
     newd         :      0.93s CPU      1.14s WALL (       1 calls)

     Called by c_bands:
     init_us_2    :      0.85s CPU      0.87s WALL (      26 calls)
     cegterg      :   9622.33s CPU   9697.95s WALL (      72 calls)

     Called by sum_band:

     Called by *egterg:
     h_psi        :   2414.55s CPU   2440.60s WALL (    1168 calls)
     s_psi        :    419.65s CPU    420.00s WALL (    1168 calls)
     g_psi        :     17.77s CPU     17.82s WALL (    1070 calls)
     cdiaghg      :   3161.58s CPU   3164.82s WALL (    1096 calls)

     Called by h_psi:
     h_psi:pot    :   2406.96s CPU   2427.45s WALL (    1168 calls)
     h_psi:calbec :    467.32s CPU    470.68s WALL (    1168 calls)
     vloc_psi     :   1520.37s CPU   1536.95s WALL (    1168 calls)
     add_vuspsi   :    419.27s CPU    419.78s WALL (    1168 calls)

     General routines
     calbec       :    467.31s CPU    470.62s WALL (    1168 calls)
     fft          :      1.35s CPU      1.45s WALL (      14 calls)
     ffts         :      0.00s CPU      0.01s WALL (       1 calls)
     fftw         :   1401.56s CPU   1417.59s WALL (  557262 calls)
     interpolate  :      0.06s CPU      0.06s WALL (       1 calls)
     davcio       :      0.00s CPU      4.34s WALL (      52 calls)

     Parallel routines
     fft_scatt_xy :    171.56s CPU    172.21s WALL (  557277 calls)
     fft_scatt_yz :    590.39s CPU    602.89s WALL (  557277 calls)

     PWSCF        :     2h44m CPU       44h 2m WALL

      52h

   This run was terminated on:  14:48: 1  20Apr2021            

=------------------------------------------------------------------------------=
   JOB DONE.
=------------------------------------------------------------------------------=
