
     Program PWSCF v.6.3 starts on 20Apr2021 at  9:53: 3 

     This program is part of the open-source Quantum ESPRESSO suite
     for quantum simulation of materials; please cite
         "P. Giannozzi et al., J. Phys.:Condens. Matter 21 395502 (2009);
         "P. Giannozzi et al., J. Phys.:Condens. Matter 29 465901 (2017);
          URL http://www.quantum-espresso.org", 
     in publications or presentations arising from this work. More details at
     http://www.quantum-espresso.org/quote

     Parallel version (MPI), running on    16 processors
     R & G space division:  proc/nbgrp/npool/nimage =      16
     Waiting for input...
     Reading input from standard input
     Message from routine read_cards :
     DEPRECATED: no units specified in CELL_PARAMETERS card

     Current dimensions of program PWSCF are:
     Max number of different atomic species (ntypx) = 10
     Max number of k-points (npk) =  40000
     Max angular momentum in pseudopotentials (lmaxx) =  3

     Atomic positions and unit cell read from directory:
     /home/zfwang/scratch/GNRDATASET/AGNR/V9_3/V9_3.save/


     Subspace diagonalization in iterative solution of the eigenvalue problem:
     a serial algorithm will be used


     Parallelization info
     --------------------
     sticks:   dense  smooth     PW     G-vecs:    dense   smooth      PW
     Min        2497     832    214               385297    74128    9690
     Max        2498     834    215               385300    74129    9693
     Sum       39953   13323   3435              6164779  1186051  155057



     bravais-lattice index     =            0
     lattice parameter (alat)  =       1.8897  a.u.
     unit-cell volume          =   34715.1651 (a.u.)^3
     number of atoms/cell      =          108
     number of atomic types    =            2
     number of electrons       =       360.00
     number of Kohn-Sham states=          500
     kinetic-energy cutoff     =      40.0000  Ry
     charge density cutoff     =     480.0000  Ry
     Exchange-correlation      = PBE ( 1  4  3  4 0 0)

     celldm(1)=  18.897261  celldm(2)=   2.931000  celldm(3)=   1.755120
     celldm(4)=   0.000000  celldm(5)=   0.000000  celldm(6)=   0.000000

     crystal axes: (cart. coord. in units of alat)
               a(1) = (  10.000000   0.000000   0.000000 )  
               a(2) = (   0.000000  29.310000   0.000000 )  
               a(3) = (   0.000000   0.000000  17.551200 )  

     reciprocal axes: (cart. coord. in units 2 pi/alat)
               b(1) = (  0.100000  0.000000  0.000000 )  
               b(2) = (  0.000000  0.034118  0.000000 )  
               b(3) = (  0.000000  0.000000  0.056976 )  


     PseudoPot. # 1 for C  read from file:
     /home/zfwang/hp_home/MySoftware/qe-6.3/pseudo/C.pbe-n-rrkjus_psl.0.1.UPF
     MD5 check sum: fff530ed632a789b3b184014e67dd7f1
     Pseudo is Ultrasoft + core correction, Zval =  4.0
     Generated using "atomic" code by A. Dal Corso v.5.0.2 svn rev. 9415
     Using radial grid of 1073 points,  4 beta functions with: 
                l(1) =   0
                l(2) =   0
                l(3) =   1
                l(4) =   1
     Q(r) pseudized with 0 coefficients 


     PseudoPot. # 2 for H  read from file:
     /home/zfwang/hp_home/MySoftware/qe-6.3/pseudo/H.pbe-rrkjus_psl.0.1.UPF
     MD5 check sum: e164a6907b691c6980f16942be34de84
     Pseudo is Ultrasoft, Zval =  1.0
     Generated using "atomic" code by A. Dal Corso v.5.0.2 svn rev. 9415
     Using radial grid of  929 points,  2 beta functions with: 
                l(1) =   0
                l(2) =   0
     Q(r) pseudized with 0 coefficients 


     atomic species   valence    mass     pseudopotential
        C              4.00    12.01070     C ( 1.00)
        H              1.00     1.00794     H ( 1.00)

     No symmetry found



   Cartesian axes

     site n.     atom                  positions (alat units)
         1           C   tau(   1) = (   5.0000020   6.0499032   2.8413581  )
         2           C   tau(   2) = (   4.9999995   6.0498046  16.0967295  )
         3           C   tau(   3) = (   5.0000010   7.2507005   3.5321296  )
         4           C   tau(   4) = (   5.0000000   7.2491665  16.8238104  )
         5           C   tau(   5) = (   5.0000014   6.0498059   1.4544732  )
         6           C   tau(   6) = (   5.0000000   6.0499043  14.7098433  )
         7           C   tau(   7) = (   5.0000002   8.4797363   2.8533426  )
         8           C   tau(   8) = (   4.9999995   8.4905201  16.1225172  )
         9           C   tau(   9) = (   4.9999993   9.7366568   3.5765005  )
        10           C   tau(  10) = (   4.9999996   9.7594916  12.5686917  )
        11           C   tau(  11) = (   4.9999989   9.7425489  16.8382132  )
        12           C   tau(  12) = (   5.0000005   7.2491650   0.7273916  )
        13           C   tau(  13) = (   5.0000004   7.2506987  14.0190734  )
        14           C   tau(  14) = (   4.9999999   8.4905210   1.4286848  )
        15           C   tau(  15) = (   4.9999996   8.4797365  14.6978590  )
        16           C   tau(  16) = (   4.9999979  10.9705698   2.8764085  )
        17           C   tau(  17) = (   5.0000000  10.9374264  11.8622268  )
        18           C   tau(  18) = (   4.9999985  10.9784250  16.1211179  )
        19           C   tau(  19) = (   4.9999971  12.1990719   3.6155614  )
        20           C   tau(  20) = (   4.9999998  12.1871307  12.5034769  )
        21           C   tau(  21) = (   4.9999977  12.2133768  16.8323418  )
        22           C   tau(  22) = (   4.9999988   9.7425486   0.7129884  )
        23           C   tau(  23) = (   4.9999999   9.7594927   4.9825103  )
        24           C   tau(  24) = (   4.9999993   9.7366568  13.9747010  )
        25           C   tau(  25) = (   4.9999977  10.9784249   1.4300836  )
        26           C   tau(  26) = (   4.9999982  10.9374261   5.6889739  )
        27           C   tau(  27) = (   4.9999989  10.9705694  14.6747929  )
        28           C   tau(  28) = (   4.9999974  13.4445595   2.8994702  )
        29           C   tau(  29) = (   4.9999989  13.4440826   7.2446447  )
        30           C   tau(  30) = (   5.0000001  13.4238990  11.7233329  )
        31           C   tau(  31) = (   4.9999981  13.4535307  16.0927470  )
        32           C   tau(  32) = (   4.9999986  14.6567551   3.6603893  )
        33           C   tau(  33) = (   5.0000003  14.6114827   8.0277867  )
        34           C   tau(  34) = (   5.0000000  14.6532462  12.4359921  )
        35           C   tau(  35) = (   4.9999983  14.6985213  16.8033888  )
        36           C   tau(  36) = (   4.9999972  12.2133772   0.7188594  )
        37           C   tau(  37) = (   4.9999974  12.1871309   5.0477245  )
        38           C   tau(  38) = (   4.9999990  12.1990722  13.9356397  )
        39           C   tau(  39) = (   4.9999973  13.4535306   1.4584539  )
        40           C   tau(  40) = (   4.9999983  13.4238991   5.8278683  )
        41           C   tau(  41) = (   5.0000003  13.4440827  10.3065566  )
        42           C   tau(  42) = (   4.9999987  13.4445595  14.6517309  )
        43           C   tau(  43) = (   4.9999997  15.8861030   2.9477326  )
        44           C   tau(  44) = (   5.0000012  15.8564713   7.3171452  )
        45           C   tau(  45) = (   5.0000005  15.8654412  11.6750739  )
        46           C   tau(  46) = (   4.9999990  15.8659206  16.0202438  )
        47           C   tau(  47) = (   5.0000008  17.1228663   3.7278757  )
        48           C   tau(  48) = (   5.0000015  17.0966234   8.0567390  )
        49           C   tau(  49) = (   5.0000007  17.1109280  12.3911622  )
        50           C   tau(  50) = (   4.9999981  14.6985214   0.7478120  )
        51           C   tau(  51) = (   4.9999991  14.6532460   5.1152092  )
        52           C   tau(  52) = (   5.0000006  14.6114827   9.5234146  )
        53           C   tau(  53) = (   4.9999994  14.6567553  13.8908118  )
        54           C   tau(  54) = (   4.9999993  15.8659207   1.5309571  )
        55           C   tau(  55) = (   5.0000007  15.8654412   5.8761272  )
        56           C   tau(  56) = (   5.0000009  15.8564717  10.2340561  )
        57           C   tau(  57) = (   4.9999995  15.8861034  14.6034685  )
        58           C   tau(  58) = (   5.0000009  18.3725740   3.0866301  )
        59           C   tau(  59) = (   5.0000017  18.3315757   7.3455162  )
        60           C   tau(  60) = (   5.0000009  18.3394269  11.6520086  )
        61           C   tau(  61) = (   5.0000011  19.5504994   3.7930887  )
        62           C   tau(  62) = (   5.0000011  19.5674505   8.0626126  )
        63           C   tau(  63) = (   5.0000012  19.5733404  12.3521045  )
        64           C   tau(  64) = (   5.0000013  17.1109279   5.1600388  )
        65           C   tau(  65) = (   5.0000013  17.0966235   9.4944618  )
        66           C   tau(  66) = (   5.0000003  17.1228668  13.8233253  )
        67           C   tau(  67) = (   5.0000017  18.3394263   5.8991924  )
        68           C   tau(  68) = (   5.0000011  18.3315757  10.2056846  )
        69           C   tau(  69) = (   5.0000008  18.3725741  14.4645709  )
        70           C   tau(  70) = (   5.0000006  20.8194777   7.3469125  )
        71           C   tau(  71) = (   5.0000014  20.8302598  11.6289426  )
        72           C   tau(  72) = (   4.9999998  22.0608357   8.0482078  )
        73           C   tau(  73) = (   5.0000022  22.0592986  12.3077288  )
        74           C   tau(  74) = (   5.0000015  19.5733401   5.1990957  )
        75           C   tau(  75) = (   5.0000008  19.5674505   9.4885880  )
        76           C   tau(  76) = (   5.0000014  19.5505008  13.7581117  )
        77           C   tau(  77) = (   5.0000011  20.8302589   5.9222579  )
        78           C   tau(  78) = (   5.0000006  20.8194784  10.2042873  )
        79           C   tau(  79) = (   4.9999995  23.2601956   7.3211256  )
        80           C   tau(  80) = (   5.0000010  23.2601003  11.6169587  )
        81           C   tau(  81) = (   5.0000009  22.0592968   5.2434701  )
        82           C   tau(  82) = (   5.0000000  22.0608351   9.5029918  )
        83           C   tau(  83) = (   5.0000001  23.2601000   5.9342412  )
        84           C   tau(  84) = (   4.9999997  23.2601963  10.2300727  )
        85           H   tau(  85) = (   5.0000022   5.1064432   3.3879628  )
        86           H   tau(  86) = (   4.9999991   5.0932768  16.6141622  )
        87           H   tau(  87) = (   5.0000010   7.2227920   4.6185588  )
        88           H   tau(  88) = (   5.0000021   5.0932761   0.9370402  )
        89           H   tau(  89) = (   5.0000003   5.1064424  14.1632398  )
        90           H   tau(  90) = (   4.9999995   8.8290818  12.0066183  )
        91           H   tau(  91) = (   5.0000012   7.2227912  12.9326429  )
        92           H   tau(  92) = (   5.0000005  10.8852751  10.7761183  )
        93           H   tau(  93) = (   5.0000021   8.8290819   5.5445833  )
        94           H   tau(  94) = (   4.9999984  10.8852757   6.7750834  )
        95           H   tau(  95) = (   4.9999984  12.4900632   7.7658631  )
        96           H   tau(  96) = (   5.0000001  12.4900632   9.7853383  )
        97           H   tau(  97) = (   4.9999994  16.8199414  16.5414551  )
        98           H   tau(  98) = (   5.0000005  16.8199414   1.0097463  )
        99           H   tau(  99) = (   5.0000004  18.4247204   2.0005180  )
       100           H   tau( 100) = (   5.0000004  20.4809155   3.2310225  )
       101           H   tau( 101) = (   5.0000006  18.4247214  15.5506828  )
       102           H   tau( 102) = (   5.0000035  22.0872020  13.3941567  )
       103           H   tau( 103) = (   5.0000018  20.4809163  14.3201777  )
       104           H   tau( 104) = (   4.9999990  24.2167252   7.8385679  )
       105           H   tau( 105) = (   5.0000014  24.2035626  12.1635629  )
       106           H   tau( 106) = (   5.0000013  22.0872001   4.1570433  )
       107           H   tau( 107) = (   5.0000000  24.2035612   5.3876356  )
       108           H   tau( 108) = (   4.9999988  24.2167251   9.7126309  )

     number of k points=    26  Marzari-Vanderbilt smearing, width (Ry)=  0.0100
                       cart. coord. in units 2pi/alat
        k(    1) = (   0.0000000   0.0000000   0.0000000), wk =   0.0400000
        k(    2) = (   0.0000000   0.0000000   0.0011395), wk =   0.0800000
        k(    3) = (   0.0000000   0.0000000   0.0022790), wk =   0.0800000
        k(    4) = (   0.0000000   0.0000000   0.0034186), wk =   0.0800000
        k(    5) = (   0.0000000   0.0000000   0.0045581), wk =   0.0800000
        k(    6) = (   0.0000000   0.0000000   0.0056976), wk =   0.0800000
        k(    7) = (   0.0000000   0.0000000   0.0068371), wk =   0.0800000
        k(    8) = (   0.0000000   0.0000000   0.0079767), wk =   0.0800000
        k(    9) = (   0.0000000   0.0000000   0.0091162), wk =   0.0800000
        k(   10) = (   0.0000000   0.0000000   0.0102557), wk =   0.0800000
        k(   11) = (   0.0000000   0.0000000   0.0113952), wk =   0.0800000
        k(   12) = (   0.0000000   0.0000000   0.0125348), wk =   0.0800000
        k(   13) = (   0.0000000   0.0000000   0.0136743), wk =   0.0800000
        k(   14) = (   0.0000000   0.0000000   0.0148138), wk =   0.0800000
        k(   15) = (   0.0000000   0.0000000   0.0159533), wk =   0.0800000
        k(   16) = (   0.0000000   0.0000000   0.0170928), wk =   0.0800000
        k(   17) = (   0.0000000   0.0000000   0.0182324), wk =   0.0800000
        k(   18) = (   0.0000000   0.0000000   0.0193719), wk =   0.0800000
        k(   19) = (   0.0000000   0.0000000   0.0205114), wk =   0.0800000
        k(   20) = (   0.0000000   0.0000000   0.0216509), wk =   0.0800000
        k(   21) = (   0.0000000   0.0000000   0.0227905), wk =   0.0800000
        k(   22) = (   0.0000000   0.0000000   0.0239300), wk =   0.0800000
        k(   23) = (   0.0000000   0.0000000   0.0250695), wk =   0.0800000
        k(   24) = (   0.0000000   0.0000000   0.0262090), wk =   0.0800000
        k(   25) = (   0.0000000   0.0000000   0.0273486), wk =   0.0800000
        k(   26) = (   0.0000000   0.0000000  -0.0284881), wk =   0.0400000

     Dense  grid:  6164779 G-vectors     FFT dimensions: ( 135, 400, 240)

     Smooth grid:  1186051 G-vectors     FFT dimensions: (  80, 225, 135)

     Estimated max dynamical RAM per process >       1.30 GB

     Estimated total dynamical RAM >      20.77 GB

     The potential is recalculated from file :
     /home/zfwang/scratch/GNRDATASET/AGNR/V9_3/V9_3.save/charge-density.dat


     negative rho (up, down):  2.924E-04 0.000E+00
     Starting wfcs are  360 randomized atomic wfcs +  140 random wfcs

     Band Structure Calculation
     Davidson diagonalization with overlap

     ethr =  2.78E-09,  avg # of iterations = 41.4

     total cpu time spent up to now is    11016.8 secs

     End of band structure calculation

          k = 0.0000 0.0000 0.0000 (148103 PWs)   bands (ev):

   -21.2914 -21.1533 -20.9737 -20.7703 -20.6190 -20.5257 -20.2126 -20.1488
   -20.0393 -19.7975 -19.7880 -19.6683 -19.5278 -19.3437 -19.0416 -18.9111
   -18.8737 -18.5641 -18.5030 -18.3471 -18.3161 -18.1883 -18.0583 -17.8433
   -17.7216 -17.6458 -17.4730 -17.3131 -17.0579 -17.0177 -17.0104 -16.8816
   -16.8103 -16.6990 -16.6085 -16.4801 -16.2313 -16.2166 -16.0148 -15.8364
   -15.5995 -15.4771 -15.0609 -14.8938 -14.7433 -14.6201 -14.6147 -14.5027
   -14.2542 -14.2405 -14.1477 -14.1443 -13.9262 -13.8234 -13.6783 -13.6500
   -13.4161 -13.1224 -13.0935 -12.8570 -12.8416 -12.8377 -12.5674 -12.4342
   -12.3450 -12.1542 -12.0007 -11.9270 -11.8722 -11.7677 -11.5116 -11.3904
   -11.2938 -11.2560 -11.1132 -11.0712 -11.0045 -10.8927 -10.7206 -10.6834
   -10.6413 -10.5123 -10.4512 -10.2522 -10.0655  -9.9535  -9.9497  -9.8760
    -9.8590  -9.8216  -9.6248  -9.4734  -9.4168  -9.3937  -9.3419  -9.2854
    -9.2655  -9.2342  -9.2196  -9.1506  -9.0150  -8.9641  -8.9588  -8.9026
    -8.8601  -8.8445  -8.7821  -8.7807  -8.7203  -8.6539  -8.6512  -8.6448
    -8.5908  -8.5503  -8.5160  -8.5136  -8.4021  -8.2731  -8.2418  -8.1607
    -8.1244  -8.0793  -8.0580  -7.9416  -7.9087  -7.8460  -7.7231  -7.6787
    -7.6765  -7.6516  -7.6096  -7.5257  -7.5076  -7.4448  -7.3495  -7.3018
    -7.2730  -7.2618  -7.1010  -7.0814  -7.0638  -6.8954  -6.8824  -6.8521
    -6.7423  -6.7024  -6.6921  -6.6493  -6.5264  -6.3579  -6.2999  -6.2800
    -6.1337  -6.0573  -6.0052  -5.9940  -5.9836  -5.9411  -5.8405  -5.6909
    -5.6003  -5.5251  -5.3539  -5.3236  -5.1739  -5.1501  -4.9054  -4.8503
    -4.7162  -4.6675  -4.5425  -4.4548  -4.4283  -4.4033  -4.1301  -3.8945
    -3.6399  -3.5873  -3.2022  -3.0106  -1.5234  -1.3615  -1.2299  -1.0036
    -0.6755  -0.6340  -0.4494  -0.3364  -0.2791  -0.2083   0.0486   0.0810
     0.0868   0.1353   0.4796   0.6154   0.7377   0.7809   0.7972   0.8692
     0.8833   1.0107   1.1048   1.1465   1.2054   1.2438   1.3138   1.4151
     1.5312   1.5465   1.5517   1.5889   1.6300   1.7375   1.7520   1.8873
     1.9071   1.9128   1.9706   2.0423   2.1260   2.2145   2.2528   2.2634
     2.2986   2.3371   2.3948   2.4073   2.5488   2.5748   2.5844   2.6419
     2.7182   2.7184   2.7186   2.7363   2.7453   2.7665   2.7699   2.7754
     2.8599   2.9534   3.0038   3.0165   3.0242   3.0370   3.0697   3.0725
     3.0894   3.1006   3.1069   3.1830   3.1937   3.2021   3.2026   3.3048
     3.4639   3.4703   3.4715   3.4778   3.4886   3.5043   3.5680   3.5834
     3.6028   3.6151   3.6628   3.6804   3.6904   3.8072   3.8437   3.8674
     3.9032   3.9117   3.9157   3.9383   3.9969   4.0432   4.0544   4.0889
     4.1480   4.1569   4.1870   4.2109   4.2232   4.2583   4.2727   4.2867
     4.2922   4.3125   4.3823   4.3871   4.3927   4.4244   4.4448   4.4469
     4.4560   4.4894   4.5072   4.5237   4.5707   4.5822   4.6106   4.6393
     4.6889   4.7238   4.7333   4.7759   4.8081   4.8431   4.8743   4.8751
     4.8774   4.9153   4.9447   4.9833   5.0037   5.0195   5.0322   5.0444
     5.0638   5.0842   5.0884   5.0938   5.1167   5.1900   5.2403   5.2415
     5.2499   5.2588   5.2889   5.3066   5.3857   5.4049   5.4062   5.4402
     5.4705   5.4722   5.4940   5.5031   5.5336   5.5493   5.5497   5.5777
     5.5893   5.5999   5.6213   5.6529   5.6680   5.6821   5.6906   5.7134
     5.7268   5.7373   5.7725   5.7758   5.8021   5.8073   5.8089   5.8523
     5.8868   5.9138   5.9563   5.9779   5.9881   6.0367   6.0394   6.0416
     6.0566   6.0687   6.0745   6.1196   6.1409   6.1595   6.1703   6.1737
     6.2119   6.2442   6.2626   6.2645   6.2801   6.3248   6.3440   6.3539
     6.3776   6.4097   6.4438   6.4528   6.4545   6.4873   6.4925   6.5007
     6.5061   6.5067   6.5109   6.5337   6.5963   6.6113   6.6250   6.6453
     6.6560   6.6601   6.6720   6.6931   6.7325   6.7335   6.7375   6.7742
     6.7746   6.8134   6.8278   6.8344   6.8582   6.8987   6.9201   6.9302
     6.9371   6.9571   6.9783   6.9920   7.0180   7.0409   7.0870   7.0945
     7.0957   7.1033   7.1124   7.1352   7.1502   7.1524   7.1854   7.2015
     7.2083   7.2468   7.2480   7.2561   7.2685   7.2775   7.2902   7.3204
     7.3279   7.3295   7.3926   7.4136   7.4200   7.4504   7.4602   7.4922
     7.4985   7.5127   7.5490   7.5584   7.6189   7.6261   7.6567   7.6580
     7.6655   7.6843   7.6889   7.6935   7.7054   7.7361   7.7392   7.7630
     7.7888   7.8176   7.8353   7.8638   7.8647   7.9075   7.9341   7.9546
     7.9568   7.9724   7.9878   7.9943   8.0066   8.0549   8.0656   8.0778
     8.0914   8.0932   8.0965   8.1282   8.1518   8.1548   8.1757   8.1925
     8.2156   8.2306   8.2417   8.2584   8.2665   8.3472   8.3607   8.3876
     8.4020   8.4078   8.4186   8.4631

          k = 0.0000 0.0000 0.0011 (148149 PWs)   bands (ev):

   -21.2913 -21.1536 -20.9734 -20.7706 -20.6188 -20.5257 -20.2130 -20.1482
   -20.0399 -19.8004 -19.7856 -19.6673 -19.5280 -19.3438 -19.0415 -18.9121
   -18.8725 -18.5649 -18.5022 -18.3472 -18.3167 -18.1876 -18.0599 -17.8434
   -17.7203 -17.6457 -17.4727 -17.3131 -17.0583 -17.0181 -17.0101 -16.8814
   -16.8104 -16.6992 -16.6079 -16.4801 -16.2315 -16.2168 -16.0149 -15.8370
   -15.6001 -15.4772 -15.0591 -14.8936 -14.7435 -14.6233 -14.6118 -14.5025
   -14.2553 -14.2403 -14.1500 -14.1404 -13.9262 -13.8238 -13.6790 -13.6496
   -13.4173 -13.1239 -13.0932 -12.8645 -12.8575 -12.8127 -12.5684 -12.4332
   -12.3443 -12.1540 -12.0020 -11.9272 -11.8707 -11.7676 -11.5126 -11.3891
   -11.2939 -11.2561 -11.1138 -11.0757 -11.0003 -10.8939 -10.7202 -10.6837
   -10.6397 -10.5122 -10.4514 -10.2527 -10.0651  -9.9595  -9.9451  -9.8755
    -9.8696  -9.8093  -9.6253  -9.4740  -9.4157  -9.3936  -9.3432  -9.2844
    -9.2659  -9.2341  -9.2200  -9.1515  -9.0146  -8.9683  -8.9543  -8.9125
    -8.8494  -8.8461  -8.7823  -8.7810  -8.7200  -8.6539  -8.6511  -8.6434
    -8.5905  -8.5512  -8.5154  -8.5135  -8.4024  -8.2730  -8.2420  -8.1606
    -8.1254  -8.0781  -8.0583  -7.9422  -7.9082  -7.8457  -7.7229  -7.6787
    -7.6765  -7.6536  -7.6085  -7.5242  -7.5083  -7.4457  -7.3497  -7.3014
    -7.2730  -7.2619  -7.1028  -7.0802  -7.0640  -6.8942  -6.8825  -6.8519
    -6.7424  -6.7049  -6.6892  -6.6496  -6.5264  -6.3576  -6.3015  -6.2786
    -6.1352  -6.0573  -6.0036  -5.9949  -5.9833  -5.9399  -5.8418  -5.6912
    -5.6006  -5.5254  -5.3529  -5.3235  -5.1741  -5.1495  -4.9056  -4.8505
    -4.7162  -4.6675  -4.5424  -4.4547  -4.4286  -4.4030  -4.1300  -3.8950
    -3.6398  -3.5868  -3.2027  -3.0110  -1.5230  -1.3607  -1.2300  -1.0035
    -0.6754  -0.6341  -0.4495  -0.3376  -0.2786  -0.2077   0.0488   0.0804
     0.0865   0.1356   0.4782   0.6155   0.7378   0.7810   0.7942   0.8702
     0.8831   1.0107   1.1039   1.1505   1.2047   1.2446   1.3147   1.4144
     1.5278   1.5394   1.5600   1.5922   1.6299   1.7375   1.7521   1.8870
     1.9075   1.9104   1.9731   2.0424   2.1263   2.2145   2.2520   2.2625
     2.2990   2.3372   2.3953   2.4080   2.5477   2.5747   2.5835   2.6422
     2.7088   2.7182   2.7235   2.7268   2.7580   2.7669   2.7714   2.7744
     2.8580   2.9545   2.9972   3.0151   3.0237   3.0338   3.0723   3.0727
     3.0967   3.0983   3.1096   3.1832   3.1963   3.2007   3.2050   3.3059
     3.4541   3.4634   3.4644   3.4843   3.4986   3.5109   3.5690   3.5803
     3.6044   3.6146   3.6643   3.6802   3.6927   3.8057   3.8451   3.8609
     3.9092   3.9095   3.9145   3.9387   3.9968   4.0453   4.0540   4.0885
     4.1477   4.1566   4.1821   4.2060   4.2258   4.2582   4.2582   4.2875
     4.2973   4.3270   4.3795   4.3816   4.4038   4.4178   4.4374   4.4553
     4.4559   4.4968   4.5084   4.5238   4.5573   4.5763   4.6254   4.6372
     4.6959   4.7239   4.7343   4.7737   4.8098   4.8447   4.8454   4.8763
     4.9021   4.9153   4.9489   4.9799   5.0032   5.0183   5.0266   5.0321
     5.0671   5.0839   5.0938   5.1069   5.1146   5.1896   5.2337   5.2430
     5.2431   5.2507   5.3031   5.3082   5.3785   5.4021   5.4059   5.4390
     5.4669   5.4717   5.4919   5.5096   5.5359   5.5539   5.5549   5.5742
     5.5907   5.5970   5.6179   5.6550   5.6732   5.6850   5.6851   5.7103
     5.7284   5.7408   5.7440   5.8022   5.8045   5.8092   5.8116   5.8516
     5.8847   5.9101   5.9580   5.9642   6.0037   6.0366   6.0367   6.0423
     6.0573   6.0687   6.0740   6.1194   6.1380   6.1604   6.1764   6.1780
     6.2127   6.2414   6.2611   6.2649   6.2789   6.3248   6.3388   6.3628
     6.3753   6.4093   6.4440   6.4528   6.4550   6.4590   6.4870   6.5003
     6.5049   6.5076   6.5350   6.5401   6.5942   6.6000   6.6294   6.6419
     6.6543   6.6628   6.6728   6.6957   6.7264   6.7355   6.7425   6.7714
     6.7748   6.8136   6.8272   6.8387   6.8606   6.8971   6.9169   6.9303
     6.9309   6.9669   6.9777   6.9907   7.0221   7.0378   7.0864   7.0875
     7.0976   7.1008   7.1147   7.1325   7.1466   7.1524   7.1898   7.2034
     7.2118   7.2476   7.2528   7.2561   7.2689   7.2797   7.2909   7.3181
     7.3212   7.3354   7.3935   7.4071   7.4200   7.4479   7.4716   7.4962
     7.4967   7.5135   7.5500   7.5644   7.6173   7.6283   7.6524   7.6597
     7.6674   7.6844   7.6893   7.6906   7.7053   7.7348   7.7396   7.7614
     7.7959   7.8171   7.8268   7.8608   7.8707   7.8994   7.9222   7.9485
     7.9690   7.9705   7.9875   8.0059   8.0061   8.0394   8.0653   8.0799
     8.0882   8.0962   8.1053   8.1349   8.1525   8.1558   8.1789   8.1923
     8.2109   8.2206   8.2411   8.2667   8.2742   8.3483   8.3615   8.3820
     8.4073   8.4074   8.4125   8.4588

          k = 0.0000 0.0000 0.0023 (148193 PWs)   bands (ev):

   -21.2910 -21.1543 -20.9725 -20.7714 -20.6181 -20.5256 -20.2141 -20.1464
   -20.0415 -19.8060 -19.7814 -19.6642 -19.5287 -19.3440 -19.0411 -18.9149
   -18.8691 -18.5672 -18.5000 -18.3474 -18.3181 -18.1857 -18.0648 -17.8436
   -17.7167 -17.6453 -17.4716 -17.3129 -17.0594 -17.0193 -17.0093 -16.8807
   -16.8107 -16.7000 -16.6062 -16.4801 -16.2318 -16.2173 -16.0153 -15.8389
   -15.6019 -15.4774 -15.0537 -14.8927 -14.7442 -14.6285 -14.6075 -14.5021
   -14.2584 -14.2395 -14.1520 -14.1335 -13.9260 -13.8247 -13.6808 -13.6482
   -13.4206 -13.1285 -13.0923 -12.8865 -12.8588 -12.7845 -12.5714 -12.4302
   -12.3422 -12.1534 -12.0058 -11.9279 -11.8663 -11.7673 -11.5157 -11.3854
   -11.2942 -11.2566 -11.1156 -11.0866 -10.9901 -10.8976 -10.7191 -10.6843
   -10.6351 -10.5121 -10.4517 -10.2539 -10.0638  -9.9675  -9.9434  -9.8849
    -9.8739  -9.7873  -9.6267  -9.4758  -9.4127  -9.3933  -9.3469  -9.2817
    -9.2669  -9.2338  -9.2210  -9.1540  -9.0135  -8.9740  -8.9476  -8.9307
    -8.8507  -8.8286  -8.7832  -8.7821  -8.7191  -8.6537  -8.6505  -8.6393
    -8.5897  -8.5538  -8.5139  -8.5132  -8.4031  -8.2728  -8.2426  -8.1603
    -8.1280  -8.0748  -8.0591  -7.9441  -7.9065  -7.8448  -7.7225  -7.6787
    -7.6763  -7.6590  -7.6055  -7.5198  -7.5103  -7.4485  -7.3504  -7.3005
    -7.2732  -7.2622  -7.1075  -7.0776  -7.0649  -6.8907  -6.8828  -6.8512
    -6.7425  -6.7094  -6.6835  -6.6505  -6.5261  -6.3570  -6.3056  -6.2753
    -6.1393  -6.0573  -5.9992  -5.9973  -5.9826  -5.9365  -5.8458  -5.6919
    -5.6012  -5.5264  -5.3499  -5.3231  -5.1745  -5.1478  -4.9063  -4.8511
    -4.7159  -4.6675  -4.5420  -4.4544  -4.4297  -4.4022  -4.1296  -3.8965
    -3.6395  -3.5852  -3.2041  -3.0123  -1.5220  -1.3584  -1.2303  -1.0033
    -0.6752  -0.6342  -0.4495  -0.3412  -0.2771  -0.2058   0.0495   0.0788
     0.0856   0.1366   0.4742   0.6157   0.7382   0.7813   0.7856   0.8730
     0.8827   1.0106   1.1011   1.1623   1.2027   1.2469   1.3172   1.4124
     1.5192   1.5318   1.5714   1.6005   1.6294   1.7374   1.7524   1.8863
     1.9045   1.9085   1.9799   2.0430   2.1273   2.2146   2.2496   2.2602
     2.3001   2.3378   2.3969   2.4100   2.5444   2.5745   2.5808   2.6430
     2.6979   2.7071   2.7182   2.7337   2.7680   2.7715   2.7739   2.7758
     2.8524   2.9575   2.9813   3.0112   3.0225   3.0265   3.0733   3.0793
     3.0953   3.1128   3.1140   3.1839   3.1967   3.2040   3.2117   3.3091
     3.4377   3.4510   3.4536   3.4933   3.5157   3.5227   3.5720   3.5720
     3.6095   3.6130   3.6677   3.6795   3.6998   3.8011   3.8477   3.8494
     3.9027   3.9113   3.9223   3.9400   3.9965   4.0502   4.0530   4.0872
     4.1466   4.1556   4.1707   4.1955   4.2301   4.2333   4.2582   4.2898
     4.3093   4.3519   4.3726   4.3795   4.4033   4.4207   4.4309   4.4534
     4.4665   4.5100   4.5136   4.5241   4.5378   4.5630   4.6311   4.6511
     4.7113   4.7243   4.7388   4.7686   4.8132   4.8141   4.8494   4.8797
     4.9155   4.9164   4.9654   4.9713   4.9977   5.0017   5.0161   5.0309
     5.0754   5.0832   5.0943   5.1082   5.1383   5.1887   5.2175   5.2222
     5.2408   5.2528   5.3081   5.3239   5.3667   5.3938   5.4053   5.4354
     5.4608   5.4702   5.4883   5.5112   5.5465   5.5628   5.5650   5.5741
     5.5916   5.5949   5.6098   5.6601   5.6705   5.6858   5.6902   5.7038
     5.7175   5.7329   5.7480   5.8025   5.8096   5.8223   5.8343   5.8495
     5.8790   5.9019   5.9503   5.9610   6.0194   6.0329   6.0391   6.0443
     6.0573   6.0688   6.0729   6.1188   6.1343   6.1630   6.1884   6.1897
     6.2151   6.2336   6.2585   6.2661   6.2754   6.3252   6.3331   6.3651
     6.3775   6.4080   6.4276   6.4446   6.4525   6.4565   6.4800   6.4862
     6.5016   6.5102   6.5488   6.5708   6.5798   6.5885   6.6326   6.6332
     6.6506   6.6684   6.6745   6.7025   6.7200   6.7302   6.7555   6.7633
     6.7755   6.8141   6.8254   6.8502   6.8653   6.8925   6.9091   6.9264
     6.9326   6.9680   6.9894   6.9903   7.0287   7.0288   7.0756   7.0847
     7.0940   7.1030   7.1155   7.1242   7.1386   7.1542   7.2010   7.2081
     7.2220   7.2479   7.2586   7.2670   7.2676   7.2806   7.2927   7.3025
     7.3237   7.3484   7.3930   7.3981   7.4201   7.4418   7.4920   7.4982
     7.5026   7.5175   7.5524   7.5795   7.6130   7.6344   7.6443   7.6647
     7.6668   7.6827   7.6886   7.6907   7.7043   7.7349   7.7406   7.7547
     7.8092   7.8151   7.8155   7.8522   7.8797   7.8835   7.8993   7.9389
     7.9612   7.9870   7.9950   8.0029   8.0135   8.0283   8.0641   8.0749
     8.0816   8.1061   8.1245   8.1411   8.1540   8.1600   8.1878   8.1903
     8.1915   8.2337   8.2338   8.2679   8.2944   8.3508   8.3641   8.3691
     8.3973   8.4061   8.4232   8.4291

          k = 0.0000 0.0000 0.0034 (148225 PWs)   bands (ev):

   -21.2906 -21.1556 -20.9711 -20.7727 -20.6168 -20.5254 -20.2158 -20.1437
   -20.0441 -19.8127 -19.7768 -19.6593 -19.5299 -19.3445 -19.0404 -18.9186
   -18.8643 -18.5707 -18.4967 -18.3477 -18.3205 -18.1826 -18.0725 -17.8442
   -17.7107 -17.6446 -17.4698 -17.3127 -17.0612 -17.0212 -17.0079 -16.8796
   -16.8112 -16.7012 -16.6035 -16.4801 -16.2324 -16.2182 -16.0160 -15.8420
   -15.6046 -15.4779 -15.0448 -14.8914 -14.7454 -14.6341 -14.6034 -14.5015
   -14.2631 -14.2383 -14.1530 -14.1249 -13.9256 -13.8263 -13.6837 -13.6462
   -13.4261 -13.1365 -13.0911 -12.9051 -12.8609 -12.7554 -12.5760 -12.4254
   -12.3388 -12.1523 -12.0117 -11.9290 -11.8595 -11.7667 -11.5203 -11.3798
   -11.2946 -11.2573 -11.1187 -11.1009 -10.9771 -10.9034 -10.7172 -10.6854
   -10.6279 -10.5118 -10.4523 -10.2560 -10.0616  -9.9757  -9.9511  -9.8918
    -9.8714  -9.7635  -9.6288  -9.4785  -9.4081  -9.3927  -9.3525  -9.2779
    -9.2685  -9.2335  -9.2227  -9.1581  -9.0117  -8.9796  -8.9497  -8.9406
    -8.8578  -8.8052  -8.7846  -8.7838  -8.7179  -8.6535  -8.6493  -8.6332
    -8.5884  -8.5576  -8.5128  -8.5118  -8.4042  -8.2726  -8.2435  -8.1599
    -8.1318  -8.0700  -8.0605  -7.9473  -7.9038  -7.8434  -7.7217  -7.6788
    -7.6761  -7.6667  -7.6015  -7.5137  -7.5129  -7.4529  -7.3516  -7.2990
    -7.2734  -7.2626  -7.1138  -7.0744  -7.0663  -6.8851  -6.8833  -6.8500
    -6.7428  -6.7141  -6.6770  -6.6519  -6.5257  -6.3558  -6.3110  -6.2712
    -6.1456  -6.0573  -6.0009  -5.9925  -5.9813  -5.9314  -5.8523  -5.6931
    -5.6023  -5.5281  -5.3450  -5.3225  -5.1752  -5.1451  -4.9074  -4.8521
    -4.7155  -4.6676  -4.5415  -4.4539  -4.4314  -4.4010  -4.1291  -3.8989
    -3.6391  -3.5827  -3.2064  -3.0143  -1.5203  -1.3546  -1.2306  -1.0028
    -0.6749  -0.6343  -0.4497  -0.3465  -0.2753  -0.2027   0.0507   0.0760
     0.0843   0.1383   0.4677   0.6157   0.7389   0.7730   0.7818   0.8776
     0.8819   1.0104   1.0968   1.1806   1.1995   1.2506   1.3211   1.4090
     1.5079   1.5260   1.5835   1.6112   1.6285   1.7373   1.7529   1.8851
     1.8966   1.9100   1.9891   2.0440   2.1288   2.2147   2.2457   2.2565
     2.3019   2.3387   2.3993   2.4133   2.5391   2.5741   2.5764   2.6440
     2.6861   2.6909   2.7181   2.7397   2.7670   2.7695   2.7821   2.7895
     2.8436   2.9616   2.9618   3.0050   3.0179   3.0209   3.0757   3.0865
     3.0936   3.1187   3.1322   3.1851   3.1909   3.2162   3.2223   3.3139
     3.4206   3.4368   3.4432   3.5024   3.5337   3.5339   3.5607   3.5771
     3.6108   3.6183   3.6714   3.6783   3.7111   3.7933   3.8327   3.8557
     3.8941   3.9067   3.9364   3.9418   3.9958   4.0514   4.0542   4.0848
     4.1450   4.1539   4.1589   4.1819   4.2070   4.2344   4.2585   4.2935
     4.3232   4.3678   4.3760   4.3768   4.3876   4.4261   4.4404   4.4496
     4.4760   4.5040   4.5256   4.5313   4.5342   4.5491   4.6212   4.6785
     4.7230   4.7248   4.7536   4.7628   4.7832   4.8159   4.8563   4.8845
     4.9157   4.9194   4.9601   4.9691   4.9926   4.9991   5.0137   5.0280
     5.0826   5.0854   5.0951   5.0981   5.1718   5.1866   5.1909   5.2091
     5.2328   5.2561   5.3014   5.3412   5.3638   5.3808   5.4046   5.4299
     5.4512   5.4685   5.4869   5.5125   5.5515   5.5521   5.5685   5.5921
     5.5937   5.6013   5.6138   5.6509   5.6665   5.6753   5.6963   5.7018
     5.7150   5.7391   5.7550   5.8032   5.8086   5.8354   5.8459   5.8629
     5.8699   5.8947   5.9419   5.9631   6.0113   6.0459   6.0480   6.0485
     6.0545   6.0692   6.0720   6.1177   6.1335   6.1665   6.2002   6.2026
     6.2188   6.2274   6.2562   6.2684   6.2694   6.3264   6.3283   6.3406
     6.3926   6.4063   6.4096   6.4449   6.4500   6.4580   6.4585   6.4865
     6.4966   6.5147   6.5553   6.5582   6.5756   6.6065   6.6201   6.6356
     6.6467   6.6739   6.6758   6.7116   6.7127   6.7231   6.7508   6.7691
     6.7764   6.8140   6.8232   6.8660   6.8662   6.8873   6.9003   6.9280
     6.9423   6.9594   6.9892   7.0116   7.0153   7.0295   7.0666   7.0822
     7.0846   7.1112   7.1115   7.1147   7.1298   7.1597   7.2085   7.2142
     7.2414   7.2476   7.2627   7.2640   7.2648   7.2866   7.2956   7.3104
     7.3279   7.3496   7.3962   7.4025   7.4200   7.4351   7.4864   7.5052
     7.5247   7.5299   7.5525   7.5997   7.6062   7.6408   7.6425   7.6534
     7.6731   7.6788   7.6945   7.6974   7.7029   7.7353   7.7423   7.7465
     7.7909   7.8111   7.8385   7.8396   7.8656   7.8769   7.8855   7.9262
     7.9528   7.9828   7.9872   7.9994   8.0240   8.0515   8.0624   8.0638
     8.0741   8.1234   8.1353   8.1416   8.1556   8.1703   8.1759   8.1904
     8.2050   8.2240   8.2509   8.2715   8.3064   8.3464   8.3634   8.3684
     8.3833   8.3955   8.4083   8.4100

          k = 0.0000 0.0000 0.0046 (148269 PWs)   bands (ev):

   -21.2900 -21.1574 -20.9691 -20.7744 -20.6152 -20.5252 -20.2179 -20.1401
   -20.0477 -19.8200 -19.7722 -19.6529 -19.5316 -19.3451 -19.0395 -18.9230
   -18.8585 -18.5750 -18.4925 -18.3482 -18.3236 -18.1785 -18.0827 -17.8455
   -17.7026 -17.6437 -17.4672 -17.3123 -17.0638 -17.0240 -17.0059 -16.8780
   -16.8120 -16.7027 -16.5998 -16.4800 -16.2332 -16.2194 -16.0169 -15.8465
   -15.6079 -15.4786 -15.0328 -14.8895 -14.7470 -14.6399 -14.5997 -14.5006
   -14.2686 -14.2366 -14.1532 -14.1150 -13.9251 -13.8285 -13.6872 -13.6439
   -13.4338 -13.1478 -13.0894 -12.9195 -12.8638 -12.7258 -12.5821 -12.4192
   -12.3342 -12.1508 -12.0189 -11.9305 -11.8508 -11.7661 -11.5260 -11.3728
   -11.2952 -11.2584 -11.1246 -11.1153 -10.9628 -10.9108 -10.7144 -10.6868
   -10.6187 -10.5116 -10.4528 -10.2589 -10.0585  -9.9845  -9.9680  -9.8891
    -9.8679  -9.7398  -9.6314  -9.4820  -9.4022  -9.3919  -9.3593  -9.2736
    -9.2705  -9.2333  -9.2250  -9.1635  -9.0093  -8.9850  -8.9679  -8.9333
    -8.8670  -8.7865  -8.7862  -8.7811  -8.7164  -8.6531  -8.6475  -8.6252
    -8.5866  -8.5622  -8.5121  -8.5093  -8.4056  -8.2722  -8.2449  -8.1593
    -8.1361  -8.0642  -8.0623  -7.9516  -7.9001  -7.8414  -7.7206  -7.6788
    -7.6757  -7.6757  -7.5971  -7.5185  -7.5040  -7.4587  -7.3532  -7.2972
    -7.2738  -7.2630  -7.1212  -7.0711  -7.0682  -6.8839  -6.8777  -6.8485
    -6.7431  -6.7185  -6.6701  -6.6539  -6.5253  -6.3543  -6.3170  -6.2670
    -6.1535  -6.0574  -6.0051  -5.9840  -5.9794  -5.9251  -5.8610  -5.6949
    -5.6038  -5.5305  -5.3384  -5.3217  -5.1759  -5.1415  -4.9089  -4.8534
    -4.7149  -4.6676  -4.5407  -4.4531  -4.4335  -4.3996  -4.1282  -3.9023
    -3.6384  -3.5792  -3.2096  -3.0172  -1.5180  -1.3496  -1.2311  -1.0022
    -0.6745  -0.6346  -0.4499  -0.3529  -0.2736  -0.1983   0.0523   0.0717
     0.0826   0.1406   0.4590   0.6150   0.7398   0.7581   0.7824   0.8809
     0.8838   1.0101   1.0912   1.1955   1.2038   1.2553   1.3260   1.4041
     1.4953   1.5221   1.5961   1.6231   1.6273   1.7374   1.7536   1.8836
     1.8879   1.9119   1.9997   2.0455   2.1309   2.2147   2.2407   2.2517
     2.3044   2.3399   2.4025   2.4175   2.5322   2.5705   2.5734   2.6443
     2.6735   2.6759   2.7179   2.7451   2.7613   2.7712   2.7896   2.8046
     2.8326   2.9408   2.9660   2.9969   3.0091   3.0198   3.0792   3.0928
     3.0936   3.1235   3.1524   3.1841   3.1867   3.2319   3.2357   3.3199
     3.4036   3.4237   3.4328   3.5114   3.5422   3.5477   3.5524   3.5840
     3.6085   3.6309   3.6751   3.6765   3.7254   3.7824   3.8174   3.8630
     3.8851   3.9016   3.9440   3.9504   3.9946   4.0497   4.0531   4.0812
     4.1429   4.1514   4.1520   4.1664   4.1810   4.2390   4.2595   4.2978
     4.3352   4.3644   4.3671   4.3712   4.4062   4.4230   4.4400   4.4621
     4.4807   4.4978   4.5286   4.5372   4.5410   4.5556   4.6079   4.7057
     4.7253   4.7277   4.7539   4.7574   4.7786   4.8166   4.8626   4.8893
     4.9160   4.9178   4.9451   4.9493   4.9951   5.0106   5.0222   5.0241
     5.0830   5.0846   5.0947   5.0962   5.1624   5.1857   5.1971   5.2059
     5.2163   5.2603   5.2950   5.3453   5.3682   5.3713   5.4048   5.4229
     5.4380   5.4672   5.4884   5.5188   5.5371   5.5511   5.5663   5.5827
     5.6027   5.6084   5.6297   5.6470   5.6505   5.6763   5.6901   5.7167
     5.7285   5.7452   5.7591   5.8039   5.8041   5.8427   5.8481   5.8588
     5.8897   5.8935   5.9393   5.9642   5.9975   6.0483   6.0535   6.0565
     6.0628   6.0702   6.0759   6.1160   6.1355   6.1705   6.2009   6.2088
     6.2231   6.2394   6.2545   6.2609   6.2720   6.3046   6.3240   6.3287
     6.4025   6.4045   6.4047   6.4288   6.4442   6.4542   6.4572   6.4904
     6.4910   6.5208   6.5388   6.5598   6.5608   6.6072   6.6350   6.6376
     6.6440   6.6747   6.6767   6.7068   6.7160   6.7213   6.7352   6.7773
     6.7797   6.8126   6.8215   6.8599   6.8826   6.8857   6.8938   6.9323
     6.9490   6.9618   6.9887   7.0003   7.0221   7.0338   7.0619   7.0753
     7.0792   7.0966   7.1147   7.1219   7.1220   7.1686   7.2020   7.2203
     7.2460   7.2525   7.2558   7.2704   7.2707   7.2993   7.3091   7.3301
     7.3339   7.3350   7.4083   7.4176   7.4195   7.4304   7.4819   7.5052
     7.5346   7.5449   7.5611   7.5975   7.6221   7.6337   7.6461   7.6489
     7.6743   7.6851   7.6969   7.7029   7.7144   7.7285   7.7430   7.7448
     7.7753   7.8017   7.8251   7.8470   7.8604   7.8635   7.8866   7.9121
     7.9459   7.9628   7.9704   7.9987   8.0542   8.0565   8.0592   8.0597
     8.0731   8.1377   8.1397   8.1426   8.1585   8.1750   8.1832   8.1894
     8.2094   8.2153   8.2685   8.2798   8.3055   8.3394   8.3667   8.3713
     8.3748   8.3764   8.3799   8.4056

          k = 0.0000 0.0000 0.0057 (148277 PWs)   bands (ev):

   -21.2892 -21.1596 -20.9666 -20.7766 -20.6131 -20.5249 -20.2203 -20.1358
   -20.0523 -19.8277 -19.7673 -19.6451 -19.5337 -19.3459 -19.0382 -18.9275
   -18.8521 -18.5800 -18.4878 -18.3488 -18.3273 -18.1735 -18.0947 -17.8475
   -17.6928 -17.6425 -17.4640 -17.3116 -17.0670 -17.0275 -17.0034 -16.8760
   -16.8130 -16.7044 -16.5954 -16.4799 -16.2343 -16.2209 -16.0180 -15.8523
   -15.6114 -15.4795 -15.0182 -14.8871 -14.7489 -14.6459 -14.5964 -14.4997
   -14.2745 -14.2344 -14.1528 -14.1040 -13.9245 -13.8314 -13.6914 -13.6412
   -13.4434 -13.1624 -13.0874 -12.9297 -12.8674 -12.6962 -12.5893 -12.4118
   -12.3285 -12.1489 -12.0270 -11.9323 -11.8409 -11.7655 -11.5323 -11.3648
   -11.2957 -11.2598 -11.1379 -11.1244 -10.9481 -10.9194 -10.7109 -10.6886
   -10.6081 -10.5114 -10.4531 -10.2626 -10.0545  -9.9972  -9.9853  -9.8814
    -9.8636  -9.7170  -9.6340  -9.4861  -9.3953  -9.3909  -9.3669  -9.2727
    -9.2694  -9.2332  -9.2278  -9.1702  -9.0063  -8.9902  -8.9844  -8.9260
    -8.8776  -8.7892  -8.7888  -8.7569  -8.7149  -8.6525  -8.6453  -8.6157
    -8.5844  -8.5675  -8.5112  -8.5068  -8.4073  -8.2717  -8.2467  -8.1587
    -8.1407  -8.0642  -8.0577  -7.9570  -7.8956  -7.8389  -7.7192  -7.6854
    -7.6789  -7.6752  -7.5924  -7.5249  -7.4935  -7.4656  -7.3552  -7.2953
    -7.2745  -7.2634  -7.1292  -7.0707  -7.0676  -6.8848  -6.8687  -6.8465
    -6.7434  -6.7225  -6.6627  -6.6564  -6.5248  -6.3524  -6.3234  -6.2628
    -6.1625  -6.0574  -6.0096  -5.9771  -5.9742  -5.9179  -5.8717  -5.6971
    -5.6058  -5.5338  -5.3302  -5.3206  -5.1766  -5.1371  -4.9109  -4.8552
    -4.7141  -4.6677  -4.5397  -4.4521  -4.4358  -4.3981  -4.1272  -3.9064
    -3.6375  -3.5750  -3.2135  -3.0209  -1.5150  -1.3433  -1.2314  -1.0015
    -0.6739  -0.6349  -0.4501  -0.3601  -0.2723  -0.1928   0.0544   0.0661
     0.0807   0.1435   0.4483   0.6129   0.7411   0.7429   0.7833   0.8795
     0.8916   1.0098   1.0845   1.1910   1.2307   1.2608   1.3319   1.3980
     1.4819   1.5205   1.6088   1.6256   1.6353   1.7378   1.7546   1.8791
     1.8817   1.9140   2.0111   2.0475   2.1337   2.2143   2.2348   2.2464
     2.3077   2.3415   2.4062   2.4222   2.5237   2.5634   2.5725   2.6407
     2.6603   2.6657   2.7173   2.7497   2.7548   2.7726   2.7977   2.8188
     2.8203   2.9203   2.9684   2.9876   3.0006   3.0207   3.0836   3.0954
     3.0969   3.1287   3.1725   3.1772   3.1888   3.2500   3.2514   3.3267
     3.3868   3.4124   3.4230   3.5205   3.5340   3.5484   3.5707   3.5923
     3.6065   3.6467   3.6739   3.6789   3.7416   3.7689   3.8024   3.8693
     3.8763   3.8978   3.9464   3.9634   3.9927   4.0450   4.0481   4.0762
     4.1405   4.1483   4.1504   4.1519   4.1561   4.2438   4.2611   4.3013
     4.3437   4.3496   4.3620   4.3660   4.4215   4.4226   4.4326   4.4788
     4.4850   4.5033   4.5279   4.5467   4.5476   4.5754   4.5920   4.7248
     4.7281   4.7303   4.7320   4.7531   4.8071   4.8151   4.8613   4.8917
     4.9140   4.9164   4.9335   4.9413   4.9894   5.0055   5.0207   5.0481
     5.0686   5.0887   5.0976   5.1015   5.1354   5.1834   5.1880   5.1936
     5.2401   5.2651   5.2941   5.3283   5.3723   5.3728   5.4070   5.4149
     5.4250   5.4659   5.4933   5.5209   5.5266   5.5468   5.5624   5.5717
     5.6003   5.6168   5.6180   5.6238   5.6721   5.6847   5.7057   5.7290
     5.7448   5.7491   5.7586   5.7938   5.8052   5.8430   5.8507   5.8587
     5.8987   5.9135   5.9391   5.9648   5.9872   6.0392   6.0611   6.0641
     6.0685   6.0721   6.0915   6.1138   6.1392   6.1729   6.1952   6.2130
     6.2280   6.2502   6.2514   6.2618   6.2643   6.2758   6.3206   6.3323
     6.3994   6.4031   6.4036   6.4110   6.4421   6.4535   6.4542   6.4838
     6.5008   6.5243   6.5291   6.5419   6.5626   6.5961   6.6396   6.6433
     6.6571   6.6700   6.6722   6.7074   6.7103   6.7176   6.7299   6.7786
     6.7846   6.8103   6.8215   6.8483   6.8873   6.8913   6.8960   6.9316
     6.9440   6.9857   6.9879   6.9884   7.0124   7.0558   7.0574   7.0690
     7.0758   7.0813   7.1130   7.1154   7.1347   7.1795   7.1881   7.2249
     7.2435   7.2464   7.2554   7.2726   7.3020   7.3037   7.3226   7.3331
     7.3417   7.3557   7.4172   7.4181   7.4297   7.4353   7.4793   7.5091
     7.5306   7.5462   7.5836   7.5917   7.6121   7.6441   7.6494   7.6538
     7.6709   7.6910   7.6997   7.7182   7.7227   7.7296   7.7337   7.7501
     7.7703   7.7872   7.8127   7.8288   7.8521   7.8819   7.8871   7.8971
     7.9392   7.9413   7.9542   7.9968   8.0491   8.0519   8.0559   8.0819
     8.0902   8.1359   8.1379   8.1542   8.1612   8.1838   8.1889   8.1933
     8.1954   8.2112   8.2864   8.2925   8.2935   8.3369   8.3452   8.3576
     8.3782   8.3834   8.3843   8.4043

          k = 0.0000 0.0000 0.0068 (148277 PWs)   bands (ev):

   -21.2882 -21.1622 -20.9637 -20.7792 -20.6107 -20.5246 -20.2228 -20.1309
   -20.0576 -19.8359 -19.7623 -19.6364 -19.5363 -19.3470 -19.0368 -18.9320
   -18.8454 -18.5854 -18.4827 -18.3495 -18.3314 -18.1677 -18.1083 -17.8505
   -17.6815 -17.6410 -17.4601 -17.3107 -17.0709 -17.0317 -17.0005 -16.8735
   -16.8142 -16.7062 -16.5903 -16.4798 -16.2356 -16.2227 -16.0193 -15.8595
   -15.6148 -15.4806 -15.0012 -14.8842 -14.7510 -14.6519 -14.5937 -14.4987
   -14.2803 -14.2318 -14.1520 -14.0922 -13.9237 -13.8350 -13.6959 -13.6383
   -13.4551 -13.1800 -13.0851 -12.9358 -12.8717 -12.6668 -12.5973 -12.4034
   -12.3220 -12.1465 -12.0356 -11.9344 -11.8300 -11.7649 -11.5389 -11.3565
   -11.2961 -11.2614 -11.1556 -11.1308 -10.9332 -10.9285 -10.7067 -10.6907
   -10.5968 -10.5115 -10.4529 -10.2671 -10.0496 -10.0186  -9.9954  -9.8716
    -9.8585  -9.6964  -9.6353  -9.4909  -9.3897  -9.3877  -9.3750  -9.2750
    -9.2657  -9.2334  -9.2312  -9.1776  -9.0027  -8.9992  -8.9954  -8.9188
    -8.8893  -8.7926  -8.7917  -8.7333  -8.7133  -8.6515  -8.6428  -8.6049
    -8.5817  -8.5731  -8.5102  -8.5043  -8.4092  -8.2711  -8.2488  -8.1580
    -8.1453  -8.0662  -8.0507  -7.9634  -7.8904  -7.8359  -7.7176  -7.6956
    -7.6789  -7.6746  -7.5875  -7.5329  -7.4817  -7.4734  -7.3576  -7.2934
    -7.2756  -7.2637  -7.1375  -7.0738  -7.0639  -6.8859  -6.8585  -6.8441
    -6.7439  -6.7262  -6.6593  -6.6551  -6.5244  -6.3502  -6.3302  -6.2588
    -6.1722  -6.0574  -6.0141  -5.9742  -5.9635  -5.9100  -5.8840  -5.6997
    -5.6082  -5.5379  -5.3208  -5.3193  -5.1773  -5.1320  -4.9133  -4.8573
    -4.7132  -4.6678  -4.5385  -4.4510  -4.4384  -4.3965  -4.1259  -3.9112
    -3.6363  -3.5701  -3.2180  -3.0253  -1.5115  -1.3361  -1.2315  -1.0006
    -0.6732  -0.6353  -0.4504  -0.3678  -0.2715  -0.1864   0.0569   0.0591
     0.0784   0.1470   0.4360   0.6084   0.7292   0.7425   0.7844   0.8778
     0.9008   1.0092   1.0771   1.1863   1.2602   1.2666   1.3383   1.3908
     1.4680   1.5209   1.6215   1.6236   1.6476   1.7385   1.7558   1.8706
     1.8796   1.9160   2.0229   2.0502   2.1369   2.2131   2.2282   2.2413
     2.3115   2.3434   2.4103   2.4273   2.5142   2.5553   2.5713   2.6294
     2.6468   2.6638   2.7159   2.7479   2.7537   2.7730   2.8059   2.8078
     2.8319   2.9010   2.9672   2.9777   2.9927   3.0251   3.0888   3.0983
     3.0988   3.1343   3.1709   3.1912   3.1917   3.2687   3.2689   3.3344
     3.3705   3.4034   3.4145   3.5200   3.5296   3.5528   3.5883   3.6015
     3.6053   3.6645   3.6706   3.6830   3.7540   3.7590   3.7882   3.8675
     3.8716   3.8980   3.9488   3.9746   3.9894   4.0315   4.0470   4.0704
     4.1329   4.1334   4.1395   4.1449   4.1560   4.2492   4.2633   4.3014
     4.3322   4.3494   4.3603   4.3624   4.4015   4.4215   4.4588   4.4740
     4.5076   4.5183   4.5257   4.5579   4.5636   4.5747   4.5890   4.7100
     4.7221   4.7326   4.7508   4.7562   4.8112   4.8364   4.8478   4.8901
     4.9086   4.9171   4.9364   4.9398   4.9815   4.9975   5.0193   5.0510
     5.0610   5.0994   5.1047   5.1079   5.1095   5.1687   5.1803   5.1845
     5.2701   5.2740   5.2971   5.3051   5.3695   5.3721   5.4063   5.4107
     5.4184   5.4641   5.5014   5.5039   5.5223   5.5478   5.5590   5.5652
     5.5771   5.5898   5.6308   5.6337   5.6812   5.6812   5.7321   5.7445
     5.7536   5.7592   5.7619   5.7784   5.8064   5.8478   5.8493   5.8662
     5.9088   5.9332   5.9335   5.9654   5.9887   6.0275   6.0626   6.0706
     6.0750   6.0796   6.1074   6.1125   6.1433   6.1711   6.1960   6.2130
     6.2230   6.2346   6.2378   6.2508   6.2776   6.2789   6.3208   6.3370
     6.3795   6.3971   6.4021   6.4105   6.4390   6.4492   6.4544   6.4778
     6.5113   6.5161   6.5202   6.5421   6.5635   6.5880   6.6412   6.6451
     6.6612   6.6617   6.6705   6.6997   6.7068   6.7147   6.7351   6.7818
     6.7832   6.8086   6.8237   6.8343   6.8872   6.8919   6.9011   6.9268
     6.9453   6.9783   6.9829   7.0065   7.0186   7.0516   7.0661   7.0669
     7.0729   7.0787   7.1034   7.1110   7.1489   7.1831   7.1899   7.2241
     7.2356   7.2438   7.2634   7.2666   7.3088   7.3197   7.3346   7.3509
     7.3575   7.3866   7.4155   7.4274   7.4341   7.4396   7.4782   7.5132
     7.5242   7.5587   7.5732   7.5915   7.6116   7.6425   7.6523   7.6599
     7.6694   7.6853   7.7120   7.7180   7.7297   7.7387   7.7412   7.7635
     7.7718   7.7731   7.8041   7.8168   7.8496   7.8761   7.8817   7.8970
     7.9226   7.9239   7.9538   7.9916   8.0478   8.0502   8.0518   8.0933
     8.1021   8.1315   8.1376   8.1460   8.1710   8.1809   8.1895   8.1983
     8.2000   8.2099   8.2772   8.3046   8.3074   8.3111   8.3337   8.3642
     8.3833   8.3943   8.3992   8.4033

          k = 0.0000 0.0000 0.0080 (148273 PWs)   bands (ev):

   -21.2871 -21.1652 -20.9604 -20.7822 -20.6079 -20.5243 -20.2253 -20.1255
   -20.0636 -19.8443 -19.7570 -19.6269 -19.5393 -19.3483 -19.0351 -18.9364
   -18.8383 -18.5911 -18.4773 -18.3503 -18.3358 -18.1613 -18.1229 -17.8543
   -17.6693 -17.6393 -17.4555 -17.3095 -17.0754 -17.0367 -16.9970 -16.8705
   -16.8158 -16.7081 -16.5847 -16.4797 -16.2371 -16.2248 -16.0209 -15.8681
   -15.6177 -15.4819 -14.9823 -14.8807 -14.7533 -14.6581 -14.5916 -14.4978
   -14.2857 -14.2286 -14.1507 -14.0799 -13.9228 -13.8393 -13.7009 -13.6353
   -13.4685 -13.1998 -13.0824 -12.9384 -12.8766 -12.6379 -12.6060 -12.3942
   -12.3147 -12.1437 -12.0443 -11.9367 -11.8184 -11.7644 -11.5452 -11.3482
   -11.2962 -11.2633 -11.1744 -11.1376 -10.9378 -10.9183 -10.7018 -10.6931
   -10.5857 -10.5117 -10.4515 -10.2722 -10.0438 -10.0428 -10.0030  -9.8608
    -9.8527  -9.6807  -9.6328  -9.4963  -9.3883  -9.3835  -9.3796  -9.2772
    -9.2628  -9.2350  -9.2338  -9.1856  -9.0118  -9.0006  -8.9987  -8.9124
    -8.9013  -8.7962  -8.7949  -8.7116  -8.7109  -8.6497  -8.6403  -8.5932
    -8.5789  -8.5787  -8.5091  -8.5017  -8.4111  -8.2705  -8.2513  -8.1575
    -8.1499  -8.0681  -8.0434  -7.9706  -7.8846  -7.8324  -7.7157  -7.7061
    -7.6789  -7.6738  -7.5822  -7.5425  -7.4818  -7.4692  -7.3605  -7.2917
    -7.2770  -7.2637  -7.1460  -7.0774  -7.0600  -6.8872  -6.8474  -6.8413
    -6.7443  -6.7295  -6.6626  -6.6473  -6.5241  -6.3478  -6.3372  -6.2549
    -6.1822  -6.0575  -6.0185  -5.9709  -5.9522  -5.9016  -5.8978  -5.7028
    -5.6110  -5.5428  -5.3178  -5.3103  -5.1778  -5.1262  -4.9162  -4.8599
    -4.7122  -4.6679  -4.5371  -4.4496  -4.4412  -4.3950  -4.1243  -3.9167
    -3.6350  -3.5648  -3.2231  -3.0306  -1.5073  -1.3284  -1.2312  -0.9996
    -0.6725  -0.6358  -0.4508  -0.3756  -0.2713  -0.1791   0.0508   0.0599
     0.0758   0.1511   0.4224   0.6007   0.7185   0.7443   0.7856   0.8759
     0.9111   1.0086   1.0692   1.1816   1.2726   1.2913   1.3450   1.3827
     1.4539   1.5232   1.6212   1.6337   1.6597   1.7397   1.7574   1.8628
     1.8773   1.9176   2.0349   2.0535   2.1407   2.2102   2.2212   2.2374
     2.3159   2.3456   2.4147   2.4322   2.5037   2.5467   2.5697   2.6142
     2.6330   2.6667   2.7128   2.7410   2.7568   2.7716   2.7967   2.8140
     2.8436   2.8838   2.9620   2.9678   2.9856   3.0330   3.0946   3.0968
     3.1037   3.1407   3.1655   3.1940   3.2095   3.2871   3.2872   3.3430
     3.3549   3.3969   3.4088   3.5061   3.5386   3.5562   3.6042   3.6053
     3.6110   3.6664   3.6827   3.6873   3.7392   3.7761   3.7770   3.8582
     3.8691   3.9027   3.9510   3.9831   3.9844   4.0157   4.0466   4.0639
     4.1124   4.1193   4.1375   4.1413   4.1600   4.2552   4.2658   4.2953
     4.3154   4.3538   4.3590   4.3631   4.3803   4.4228   4.4699   4.4848
     4.5245   4.5254   4.5385   4.5604   4.5702   4.5832   4.5895   4.7065
     4.7159   4.7350   4.7511   4.7745   4.8051   4.8323   4.8642   4.8860
     4.9019   4.9183   4.9308   4.9580   4.9711   4.9886   5.0204   5.0332
     5.0641   5.0856   5.1014   5.1042   5.1372   5.1465   5.1757   5.1849
     5.2749   5.2816   5.3012   5.3066   5.3588   5.3678   5.3973   5.4137
     5.4205   5.4614   5.4863   5.5049   5.5117   5.5496   5.5528   5.5565
     5.5637   5.5684   5.6426   5.6454   5.6806   5.6895   5.7219   5.7444
     5.7592   5.7678   5.7793   5.7953   5.8079   5.8539   5.8549   5.8701
     5.9219   5.9220   5.9475   5.9661   6.0025   6.0142   6.0607   6.0785
     6.0814   6.0869   6.1144   6.1203   6.1456   6.1682   6.1819   6.2013
     6.2118   6.2257   6.2426   6.2504   6.2756   6.2851   6.3292   6.3419
     6.3572   6.3941   6.4013   6.4059   6.4367   6.4452   6.4547   6.4739
     6.4975   6.5137   6.5186   6.5610   6.5625   6.5836   6.6393   6.6492
     6.6499   6.6527   6.6681   6.6888   6.7050   6.7251   6.7352   6.7764
     6.7883   6.8078   6.8201   6.8285   6.8805   6.8923   6.8970   6.9296
     6.9436   6.9667   6.9853   7.0070   7.0446   7.0456   7.0552   7.0678
     7.0751   7.0878   7.0983   7.1113   7.1640   7.1897   7.1956   7.2164
     7.2238   7.2488   7.2599   7.2736   7.3150   7.3230   7.3613   7.3662
     7.3811   7.4128   7.4222   7.4292   7.4418   7.4426   7.4774   7.4959
     7.5461   7.5591   7.5690   7.5762   7.6276   7.6286   7.6446   7.6577
     7.6623   7.6868   7.7110   7.7175   7.7423   7.7502   7.7511   7.7733
     7.7756   7.7887   7.7889   7.8250   7.8501   7.8636   7.8664   7.8878
     7.9111   7.9141   7.9667   7.9845   8.0471   8.0472   8.0550   8.0785
     8.1079   8.1251   8.1314   8.1340   8.1807   8.1918   8.1941   8.1991
     8.2045   8.2121   8.2720   8.2790   8.3144   8.3220   8.3296   8.3775
     8.3881   8.3980   8.4031   8.4067

          k = 0.0000 0.0000 0.0091 (148271 PWs)   bands (ev):

   -21.2857 -21.1684 -20.9567 -20.7856 -20.6048 -20.5240 -20.2277 -20.1198
   -20.0703 -19.8528 -19.7515 -19.6168 -19.5426 -19.3499 -19.0332 -18.9407
   -18.8310 -18.5970 -18.4718 -18.3513 -18.3403 -18.1543 -18.1382 -17.8590
   -17.6566 -17.6373 -17.4502 -17.3079 -17.0805 -17.0423 -16.9932 -16.8672
   -16.8177 -16.7100 -16.5787 -16.4796 -16.2387 -16.2272 -16.0226 -15.8778
   -15.6199 -15.4835 -14.9620 -14.8768 -14.7557 -14.6642 -14.5902 -14.4970
   -14.2902 -14.2250 -14.1493 -14.0672 -13.9218 -13.8444 -13.7062 -13.6321
   -13.4837 -13.2211 -13.0795 -12.9379 -12.8819 -12.6152 -12.6098 -12.3845
   -12.3069 -12.1405 -12.0527 -11.9390 -11.8065 -11.7643 -11.5512 -11.3405
   -11.2958 -11.2656 -11.1939 -11.1450 -10.9468 -10.9035 -10.6963 -10.6958
   -10.5754 -10.5122 -10.4486 -10.2780 -10.0674 -10.0372 -10.0099  -9.8495
    -9.8463  -9.6732  -9.6230  -9.5025  -9.3923  -9.3867  -9.3712  -9.2793
    -9.2614  -9.2392  -9.2342  -9.1936  -9.0222  -9.0058  -8.9942  -8.9157
    -8.9047  -8.7997  -8.7985  -8.7098  -8.6913  -8.6464  -8.6378  -8.5847
    -8.5807  -8.5753  -8.5079  -8.4990  -8.4128  -8.2699  -8.2541  -8.1571
    -8.1541  -8.0697  -8.0357  -7.9787  -7.8783  -7.8286  -7.7167  -7.7136
    -7.6789  -7.6730  -7.5767  -7.5539  -7.4906  -7.4560  -7.3637  -7.2903
    -7.2788  -7.2636  -7.1544  -7.0816  -7.0559  -6.8886  -6.8381  -6.8355
    -6.7447  -6.7324  -6.6662  -6.6392  -6.5240  -6.3451  -6.3445  -6.2512
    -6.1924  -6.0575  -6.0228  -5.9669  -5.9405  -5.9126  -5.8928  -5.7064
    -5.6143  -5.5486  -5.3161  -5.2993  -5.1780  -5.1198  -4.9194  -4.8628
    -4.7110  -4.6680  -4.5355  -4.4480  -4.4440  -4.3936  -4.1225  -3.9227
    -3.6334  -3.5592  -3.2285  -3.0365  -1.5026  -1.3207  -1.2299  -0.9985
    -0.6716  -0.6364  -0.4512  -0.3834  -0.2715  -0.1712   0.0412   0.0634
     0.0729   0.1558   0.4078   0.5894   0.7117   0.7462   0.7869   0.8736
     0.9225   1.0076   1.0609   1.1770   1.2785   1.3236   1.3519   1.3743
     1.4396   1.5273   1.6185   1.6453   1.6715   1.7415   1.7592   1.8559
     1.8751   1.9187   2.0470   2.0576   2.1450   2.2051   2.2140   2.2353
     2.3208   2.3481   2.4191   2.4364   2.4925   2.5379   2.5676   2.5979
     2.6190   2.6715   2.7071   2.7343   2.7588   2.7674   2.7887   2.8216
     2.8535   2.8693   2.9536   2.9583   2.9790   3.0434   3.0931   3.1008
     3.1100   3.1478   3.1606   3.1971   3.2249   3.3031   3.3067   3.3400
     3.3526   3.3931   3.4077   3.4924   3.5474   3.5590   3.6066   3.6166
     3.6203   3.6620   3.6919   3.6990   3.7270   3.7681   3.7954   3.8475
     3.8647   3.9086   3.9529   3.9770   3.9876   4.0003   4.0471   4.0566
     4.0954   4.1071   4.1371   4.1380   4.1609   4.2619   4.2687   4.2833
     4.2991   4.3558   4.3582   4.3638   4.3682   4.4255   4.4680   4.5101
     4.5209   4.5240   4.5606   4.5659   4.5752   4.5835   4.6048   4.7067
     4.7193   4.7376   4.7535   4.7750   4.7970   4.8331   4.8814   4.8863
     4.8942   4.9197   4.9213   4.9582   4.9816   4.9820   5.0171   5.0241
     5.0645   5.0648   5.1016   5.1038   5.1278   5.1686   5.1692   5.1886
     5.2605   5.2791   5.3027   5.3368   5.3477   5.3612   5.3884   5.4150
     5.4268   5.4580   5.4682   5.4841   5.5222   5.5291   5.5410   5.5444
     5.5549   5.5794   5.6501   5.6577   5.6822   5.6976   5.7085   5.7376
     5.7420   5.7795   5.7964   5.8097   5.8372   5.8608   5.8625   5.8705
     5.9108   5.9355   5.9555   5.9675   6.0023   6.0225   6.0591   6.0804
     6.0896   6.0918   6.1201   6.1281   6.1429   6.1455   6.1671   6.2071
     6.2120   6.2169   6.2506   6.2515   6.2702   6.2820   6.3373   6.3401
     6.3461   6.3888   6.4005   6.4035   6.4364   6.4409   6.4547   6.4727
     6.4762   6.5159   6.5226   6.5592   6.5771   6.5888   6.6287   6.6353
     6.6497   6.6528   6.6573   6.6865   6.7045   6.7314   6.7360   6.7673
     6.7978   6.8068   6.8074   6.8352   6.8706   6.8882   6.8887   6.9374
     6.9386   6.9521   6.9880   7.0108   7.0391   7.0483   7.0532   7.0680
     7.0744   7.0977   7.1096   7.1253   7.1796   7.1934   7.2028   7.2055
     7.2105   7.2563   7.2610   7.2852   7.3225   7.3268   7.3724   7.3960
     7.4011   7.4110   7.4164   7.4543   7.4544   7.4614   7.4764   7.4799
     7.5438   7.5632   7.5655   7.5796   7.6091   7.6366   7.6384   7.6459
     7.6517   7.6873   7.7101   7.7199   7.7451   7.7512   7.7625   7.7750
     7.7762   7.8020   7.8221   7.8410   7.8442   7.8521   7.8550   7.8787
     7.9028   7.9147   7.9676   7.9892   8.0251   8.0417   8.0684   8.0693
     8.1081   8.1139   8.1176   8.1290   8.1749   8.1940   8.1955   8.2071
     8.2182   8.2236   8.2529   8.2793   8.2999   8.3273   8.3458   8.3738
     8.3893   8.3898   8.4045   8.4096

          k = 0.0000 0.0000 0.0103 (148261 PWs)   bands (ev):

   -21.2843 -21.1720 -20.9526 -20.7892 -20.6015 -20.5237 -20.2299 -20.1138
   -20.0775 -19.8615 -19.7457 -19.6062 -19.5464 -19.3518 -19.0311 -18.9448
   -18.8235 -18.6030 -18.4663 -18.3525 -18.3449 -18.1540 -18.1469 -17.8645
   -17.6438 -17.6351 -17.4442 -17.3058 -17.0862 -17.0485 -16.9890 -16.8634
   -16.8199 -16.7119 -16.5723 -16.4795 -16.2406 -16.2299 -16.0245 -15.8886
   -15.6213 -15.4853 -14.9407 -14.8725 -14.7581 -14.6704 -14.5894 -14.4965
   -14.2937 -14.2209 -14.1476 -14.0542 -13.9207 -13.8502 -13.7117 -13.6288
   -13.5004 -13.2432 -13.0763 -12.9352 -12.8877 -12.6248 -12.5826 -12.3742
   -12.2988 -12.1370 -12.0607 -11.9413 -11.7943 -11.7646 -11.5565 -11.3339
   -11.2946 -11.2681 -11.2138 -11.1529 -10.9552 -10.8889 -10.6989 -10.6904
   -10.5668 -10.5129 -10.4436 -10.2843 -10.0920 -10.0297 -10.0166  -9.8394
    -9.8380  -9.6724  -9.6075  -9.5095  -9.4012  -9.3848  -9.3627  -9.2810
    -9.2621  -9.2437  -9.2344  -9.2008  -9.0305  -9.0111  -8.9893  -8.9285
    -8.8999  -8.8028  -8.8025  -8.7078  -8.6767  -8.6401  -8.6354  -8.5900
    -8.5717  -8.5678  -8.5066  -8.4957  -8.4144  -8.2693  -8.2572  -8.1581
    -8.1569  -8.0708  -8.0279  -7.9874  -7.8716  -7.8244  -7.7273  -7.7113
    -7.6788  -7.6721  -7.5709  -7.5670  -7.4996  -7.4423  -7.3673  -7.2892
    -7.2810  -7.2632  -7.1627  -7.0863  -7.0513  -6.8904  -6.8346  -6.8230
    -6.7451  -6.7350  -6.6701  -6.6309  -6.5242  -6.3520  -6.3423  -6.2476
    -6.2025  -6.0576  -6.0268  -5.9625  -5.9286  -5.9283  -5.8837  -5.7103
    -5.6179  -5.5551  -5.3142  -5.2882  -5.1777  -5.1128  -4.9231  -4.8662
    -4.7097  -4.6682  -4.5338  -4.4469  -4.4462  -4.3924  -4.1204  -3.9291
    -3.6316  -3.5534  -3.2340  -3.0431  -1.4973  -1.3136  -1.2271  -0.9974
    -0.6707  -0.6371  -0.4516  -0.3911  -0.2720  -0.1629   0.0303   0.0672
     0.0696   0.1610   0.3924   0.5750   0.7085   0.7485   0.7884   0.8711
     0.9347   1.0065   1.0525   1.1728   1.2839   1.3564   1.3588   1.3658
     1.4250   1.5328   1.6155   1.6559   1.6826   1.7438   1.7615   1.8504
     1.8730   1.9191   2.0589   2.0626   2.1497   2.1981   2.2067   2.2351
     2.3262   2.3509   2.4235   2.4394   2.4807   2.5297   2.5649   2.5813
     2.6050   2.6774   2.6979   2.7280   2.7596   2.7605   2.7846   2.8286
     2.8579   2.8615   2.9429   2.9500   2.9727   3.0553   3.0886   3.1074
     3.1175   3.1557   3.1557   3.2002   3.2365   3.3163   3.3262   3.3267
     3.3635   3.3917   3.4125   3.4792   3.5559   3.5614   3.6083   3.6222
     3.6281   3.6585   3.6966   3.7098   3.7213   3.7684   3.8136   3.8345
     3.8603   3.9137   3.9548   3.9670   3.9867   3.9873   4.0480   4.0485
     4.0826   4.0976   4.1352   4.1387   4.1571   4.2682   4.2689   4.2720
     4.2835   4.3404   4.3578   4.3690   4.3752   4.4299   4.4686   4.5011
     4.5241   4.5324   4.5548   4.5818   4.5832   4.5975   4.6273   4.6961
     4.7406   4.7419   4.7570   4.7608   4.7873   4.8510   4.8775   4.8856
     4.8951   4.9024   4.9265   4.9447   4.9768   5.0076   5.0095   5.0299
     5.0464   5.0650   5.0985   5.1066   5.1128   5.1582   5.1941   5.2013
     5.2440   5.2824   5.2962   5.3440   5.3531   5.3613   5.3798   5.4143
     5.4319   5.4502   5.4537   5.4645   5.5067   5.5246   5.5297   5.5374
     5.5558   5.5910   5.6535   5.6701   5.6761   5.7001   5.7055   5.7283
     5.7329   5.7922   5.8114   5.8126   5.8612   5.8667   5.8674   5.8799
     5.9065   5.9425   5.9572   5.9717   5.9990   6.0417   6.0596   6.0781
     6.0908   6.0911   6.1159   6.1261   6.1271   6.1472   6.1688   6.2108
     6.2127   6.2148   6.2506   6.2596   6.2660   6.2770   6.3198   6.3442
     6.3488   6.3797   6.4009   6.4092   6.4361   6.4365   6.4541   6.4594
     6.4757   6.5218   6.5243   6.5533   6.5793   6.6114   6.6160   6.6208
     6.6275   6.6567   6.6669   6.6819   6.7049   6.7265   6.7394   6.7634
     6.7956   6.8074   6.8089   6.8434   6.8618   6.8794   6.8803   6.9297
     6.9350   6.9489   6.9854   7.0074   7.0405   7.0469   7.0501   7.0639
     7.0712   7.1187   7.1305   7.1454   7.1837   7.1934   7.1954   7.1997
     7.2188   7.2655   7.2675   7.2977   7.3289   7.3316   7.3835   7.4017
     7.4072   7.4160   7.4235   7.4643   7.4678   7.4699   7.4785   7.5021
     7.5286   7.5610   7.5757   7.5781   7.5866   7.6259   7.6371   7.6442
     7.6497   7.6844   7.7105   7.7242   7.7409   7.7417   7.7524   7.7818
     7.7856   7.8331   7.8363   7.8372   7.8550   7.8579   7.8706   7.8740
     7.8990   7.9204   7.9544   7.9881   8.0029   8.0358   8.0720   8.0897
     8.0943   8.1039   8.1096   8.1243   8.1492   8.2000   8.2022   8.2027
     8.2190   8.2351   8.2562   8.2857   8.2911   8.3104   8.3565   8.3594
     8.3732   8.3833   8.4089   8.4171

          k = 0.0000 0.0000 0.0114 (148251 PWs)   bands (ev):

   -21.2826 -21.1757 -20.9483 -20.7931 -20.5980 -20.5235 -20.2318 -20.1076
   -20.0852 -19.8702 -19.7397 -19.5953 -19.5504 -19.3541 -19.0288 -18.9487
   -18.8160 -18.6091 -18.4608 -18.3538 -18.3494 -18.1700 -18.1392 -17.8706
   -17.6327 -17.6314 -17.4374 -17.3032 -17.0925 -17.0554 -16.9844 -16.8592
   -16.8225 -16.7137 -16.5658 -16.4794 -16.2427 -16.2327 -16.0264 -15.9002
   -15.6217 -15.4874 -14.9187 -14.8677 -14.7604 -14.6765 -14.5893 -14.4963
   -14.2959 -14.2165 -14.1458 -14.0411 -13.9195 -13.8568 -13.7175 -13.6252
   -13.5185 -13.2656 -13.0729 -12.9306 -12.8938 -12.6346 -12.5566 -12.3636
   -12.2907 -12.1333 -12.0679 -11.9433 -11.7820 -11.7655 -11.5609 -11.3288
   -11.2924 -11.2712 -11.2340 -11.1614 -10.9625 -10.8745 -10.7024 -10.6842
   -10.5602 -10.5139 -10.4359 -10.2910 -10.1162 -10.0232 -10.0214  -9.8320
    -9.8265  -9.6746  -9.5900  -9.5174  -9.4102  -9.3827  -9.3542  -9.2821
    -9.2654  -9.2485  -9.2340  -9.2066  -9.0366  -9.0166  -8.9841  -8.9418
    -8.8962  -8.8068  -8.8050  -8.7056  -8.6683  -8.6332  -8.6312  -8.5936
    -8.5678  -8.5546  -8.5053  -8.4916  -8.4156  -8.2689  -8.2605  -8.1617
    -8.1569  -8.0712  -8.0198  -7.9967  -7.8647  -7.8199  -7.7379  -7.7088
    -7.6787  -7.6710  -7.5816  -7.5648  -7.5087  -7.4283  -7.3713  -7.2887
    -7.2835  -7.2626  -7.1706  -7.0915  -7.0465  -6.8923  -6.8307  -6.8102
    -6.7454  -6.7372  -6.6742  -6.6224  -6.5248  -6.3596  -6.3393  -6.2441
    -6.2125  -6.0577  -6.0306  -5.9576  -5.9446  -5.9165  -5.8742  -5.7147
    -5.6220  -5.5622  -5.3120  -5.2773  -5.1766  -5.1054  -4.9272  -4.8699
    -4.7082  -4.6684  -4.5319  -4.4499  -4.4443  -4.3913  -4.1180  -3.9360
    -3.6295  -3.5478  -3.2394  -3.0503  -1.4916  -1.3078  -1.2224  -0.9962
    -0.6697  -0.6379  -0.4521  -0.3986  -0.2726  -0.1542   0.0182   0.0659
     0.0716   0.1668   0.3764   0.5584   0.7083   0.7509   0.7900   0.8683
     0.9476   1.0050   1.0440   1.1691   1.2885   1.3579   1.3655   1.3894
     1.4104   1.5397   1.6124   1.6650   1.6931   1.7466   1.7642   1.8466
     1.8712   1.9187   2.0683   2.0707   2.1549   2.1900   2.1996   2.2362
     2.3321   2.3539   2.4280   2.4402   2.4686   2.5228   2.5617   2.5649
     2.5911   2.6842   2.6852   2.7225   2.7520   2.7592   2.7835   2.8344
     2.8498   2.8673   2.9305   2.9434   2.9661   3.0680   3.0845   3.1138
     3.1260   3.1505   3.1645   3.2031   3.2432   3.3138   3.3280   3.3471
     3.3756   3.3924   3.4227   3.4666   3.5636   3.5641   3.6085   3.6185
     3.6326   3.6586   3.7011   3.7144   3.7249   3.7791   3.8190   3.8308
     3.8566   3.9168   3.9553   3.9572   3.9759   3.9823   4.0395   4.0484
     4.0741   4.0904   4.1327   4.1428   4.1482   4.2531   4.2686   4.2738
     4.2780   4.3240   4.3579   4.3800   4.3816   4.4368   4.4711   4.4782
     4.5208   4.5250   4.5642   4.5974   4.5993   4.6104   4.6503   4.6865
     4.7441   4.7484   4.7611   4.7688   4.7764   4.8738   4.8739   4.8765
     4.8828   4.8887   4.9264   4.9324   4.9731   5.0115   5.0315   5.0366
     5.0393   5.0654   5.0946   5.1027   5.1098   5.1451   5.2000   5.2320
     5.2331   5.2827   5.2843   5.3441   5.3473   5.3718   5.3742   5.4118
     5.4257   5.4340   5.4488   5.4568   5.4867   5.5190   5.5299   5.5310
     5.5609   5.6013   5.6526   5.6631   5.6821   5.6884   5.7135   5.7251
     5.7338   5.8052   5.8124   5.8271   5.8556   5.8610   5.8779   5.9034
     5.9114   5.9409   5.9528   5.9770   6.0142   6.0479   6.0612   6.0683
     6.0711   6.0944   6.1172   6.1224   6.1304   6.1504   6.1728   6.2095
     6.2112   6.2193   6.2486   6.2586   6.2745   6.2760   6.3060   6.3427
     6.3505   6.3666   6.4024   6.4181   6.4339   6.4360   6.4489   6.4521
     6.4837   6.5233   6.5299   6.5449   6.5812   6.6041   6.6042   6.6069
     6.6341   6.6623   6.6734   6.6789   6.7060   6.7230   6.7280   6.7704
     6.7869   6.8098   6.8207   6.8522   6.8560   6.8680   6.8726   6.9168
     6.9209   6.9599   6.9786   6.9973   7.0385   7.0452   7.0474   7.0565
     7.0857   7.1279   7.1636   7.1643   7.1675   7.1816   7.1971   7.2114
     7.2361   7.2723   7.2763   7.3111   7.3284   7.3426   7.3884   7.3934
     7.4050   7.4179   7.4463   7.4559   7.4809   7.4818   7.4895   7.5153
     7.5433   7.5632   7.5641   7.5679   7.5766   7.6144   7.6318   7.6473
     7.6568   7.6837   7.7059   7.7200   7.7328   7.7386   7.7387   7.7823
     7.7916   7.8391   7.8495   7.8571   7.8669   7.8710   7.8873   7.8926
     7.9048   7.9311   7.9391   7.9532   8.0137   8.0294   8.0726   8.0786
     8.0970   8.1020   8.1131   8.1189   8.1252   8.1851   8.2051   8.2058
     8.2158   8.2325   8.2698   8.2762   8.2878   8.3029   8.3490   8.3501
     8.3603   8.3782   8.4166   8.4282

          k = 0.0000 0.0000 0.0125 (148269 PWs)   bands (ev):

   -21.2808 -21.1797 -20.9438 -20.7972 -20.5943 -20.5233 -20.2334 -20.1011
   -20.0932 -19.8790 -19.7335 -19.5842 -19.5548 -19.3567 -19.0263 -18.9523
   -18.8083 -18.6152 -18.4553 -18.3552 -18.3536 -18.1861 -18.1311 -17.8773
   -17.6301 -17.6197 -17.4297 -17.3000 -17.0993 -17.0628 -16.9794 -16.8545
   -16.8254 -16.7156 -16.5591 -16.4792 -16.2450 -16.2358 -16.0285 -15.9124
   -15.6211 -15.4898 -14.8966 -14.8626 -14.7625 -14.6824 -14.5898 -14.4964
   -14.2965 -14.2116 -14.1438 -14.0280 -13.9182 -13.8644 -13.7235 -13.6214
   -13.5378 -13.2878 -13.0691 -12.9246 -12.9002 -12.6447 -12.5318 -12.3528
   -12.2830 -12.1296 -12.0740 -11.9448 -11.7698 -11.7669 -11.5642 -11.3254
   -11.2892 -11.2754 -11.2535 -11.1704 -10.9684 -10.8603 -10.7065 -10.6778
   -10.5559 -10.5152 -10.4256 -10.2981 -10.1399 -10.0298 -10.0124  -9.8243
    -9.8154  -9.6775  -9.5726  -9.5261  -9.4192  -9.3805  -9.3460  -9.2823
    -9.2719  -9.2536  -9.2329  -9.2106  -9.0409  -9.0223  -8.9787  -8.9552
    -8.8942  -8.8113  -8.8059  -8.7032  -8.6642  -8.6313  -8.6250  -8.5931
    -8.5638  -8.5413  -8.5040  -8.4860  -8.4164  -8.2692  -8.2635  -8.1649
    -8.1573  -8.0707  -8.0116  -8.0065  -7.8575  -7.8153  -7.7484  -7.7061
    -7.6786  -7.6699  -7.5979  -7.5586  -7.5178  -7.4141  -7.3756  -7.2886
    -7.2861  -7.2618  -7.1782  -7.0973  -7.0413  -6.8945  -6.8266  -6.7971
    -6.7455  -6.7392  -6.6784  -6.6138  -6.5259  -6.3674  -6.3364  -6.2408
    -6.2222  -6.0578  -6.0341  -5.9613  -5.9522  -5.9045  -5.8645  -5.7194
    -5.6265  -5.5700  -5.3097  -5.2673  -5.1744  -5.0976  -4.9317  -4.8741
    -4.7067  -4.6687  -4.5299  -4.4528  -4.4421  -4.3905  -4.1154  -3.9430
    -3.6271  -3.5424  -3.2446  -3.0582  -1.4854  -1.3040  -1.2152  -0.9952
    -0.6687  -0.6389  -0.4526  -0.4058  -0.2733  -0.1454   0.0048   0.0619
     0.0764   0.1731   0.3603   0.5406   0.7103   0.7536   0.7916   0.8652
     0.9612   1.0033   1.0356   1.1661   1.2917   1.3511   1.3720   1.3956
     1.4220   1.5477   1.6092   1.6723   1.7026   1.7499   1.7674   1.8448
     1.8698   1.9174   2.0748   2.0819   2.1605   2.1813   2.1928   2.2383
     2.3382   2.3571   2.4323   2.4381   2.4563   2.5181   2.5487   2.5577
     2.5773   2.6699   2.6916   2.7176   2.7427   2.7575   2.7846   2.8385
     2.8443   2.8710   2.9168   2.9389   2.9585   3.0809   3.0817   3.1196
     3.1356   3.1453   3.1741   3.2054   3.2453   3.3036   3.3400   3.3672
     3.3882   3.3958   3.4356   3.4554   3.5656   3.5714   3.6060   3.6068
     3.6319   3.6648   3.7052   3.7180   3.7366   3.7962   3.8010   3.8457
     3.8537   3.9177   3.9444   3.9606   3.9680   3.9738   4.0295   4.0477
     4.0692   4.0844   4.1292   4.1350   4.1495   4.2406   4.2543   4.2763
     4.2867   4.3092   4.3586   4.3859   4.3939   4.4467   4.4542   4.4750
     4.4927   4.5270   4.5883   4.6024   4.6062   4.6234   4.6729   4.6806
     4.7472   4.7484   4.7641   4.7669   4.7967   4.8597   4.8682   4.8717
     4.8744   4.8983   4.9143   4.9255   4.9696   5.0141   5.0300   5.0429
     5.0659   5.0700   5.0857   5.1017   5.1140   5.1331   5.2055   5.2269
     5.2590   5.2674   5.2851   5.3346   5.3508   5.3646   5.3697   5.4077
     5.4103   5.4214   5.4432   5.4608   5.4705   5.5229   5.5272   5.5281
     5.5675   5.6098   5.6401   5.6607   5.6717   5.6930   5.7180   5.7234
     5.7457   5.8078   5.8212   5.8385   5.8497   5.8514   5.8855   5.9061
     5.9219   5.9432   5.9463   5.9826   6.0294   6.0425   6.0458   6.0622
     6.0700   6.1017   6.1193   6.1269   6.1328   6.1509   6.1778   6.2015
     6.2081   6.2245   6.2462   6.2590   6.2798   6.2865   6.2993   6.3407
     6.3526   6.3529   6.4021   6.4185   6.4323   6.4437   6.4473   6.4474
     6.4952   6.5198   6.5351   6.5388   6.5801   6.5832   6.5944   6.5948
     6.6518   6.6612   6.6694   6.6948   6.7075   6.7119   6.7222   6.7754
     6.7810   6.8172   6.8327   6.8527   6.8539   6.8605   6.8686   6.8997
     6.9130   6.9702   6.9714   6.9864   7.0319   7.0396   7.0465   7.0476
     7.1097   7.1351   7.1492   7.1683   7.1826   7.1934   7.2004   7.2288
     7.2537   7.2716   7.2880   7.3246   7.3246   7.3552   7.3788   7.3992
     7.4000   7.4163   7.4510   7.4567   7.4904   7.4958   7.5060   7.5156
     7.5456   7.5507   7.5708   7.5716   7.5770   7.6083   7.6234   7.6537
     7.6604   7.6868   7.6883   7.7076   7.7276   7.7379   7.7460   7.7818
     7.7842   7.8557   7.8611   7.8632   7.8770   7.8928   7.8987   7.8993
     7.9224   7.9340   7.9389   7.9484   8.0171   8.0228   8.0546   8.0849
     8.0891   8.0958   8.0988   8.1108   8.1440   8.1639   8.1935   8.2107
     8.2171   8.2345   8.2370   8.2614   8.3119   8.3133   8.3340   8.3365
     8.3587   8.3738   8.4251   8.4411

          k = 0.0000 0.0000 0.0137 (148225 PWs)   bands (ev):

   -21.2788 -21.1838 -20.9390 -20.8015 -20.5904 -20.5233 -20.2346 -20.1014
   -20.0944 -19.8877 -19.7271 -19.5730 -19.5595 -19.3597 -19.0237 -18.9557
   -18.8006 -18.6214 -18.4499 -18.3576 -18.3568 -18.2020 -18.1228 -17.8846
   -17.6273 -17.6089 -17.4210 -17.2962 -17.1066 -17.0707 -16.9743 -16.8495
   -16.8286 -16.7175 -16.5524 -16.4791 -16.2474 -16.2390 -16.0305 -15.9250
   -15.6196 -15.4925 -14.8748 -14.8571 -14.7643 -14.6881 -14.5909 -14.4970
   -14.2956 -14.2065 -14.1419 -14.0149 -13.9169 -13.8729 -13.7296 -13.6174
   -13.5580 -13.3095 -13.0652 -12.9176 -12.9068 -12.6548 -12.5085 -12.3418
   -12.2758 -12.1261 -12.0787 -11.9457 -11.7688 -11.7578 -11.5665 -11.3233
   -11.2856 -11.2846 -11.2687 -11.1796 -10.9726 -10.8463 -10.7111 -10.6715
   -10.5535 -10.5165 -10.4130 -10.3053 -10.1630 -10.0365 -10.0026  -9.8163
    -9.8049  -9.6801  -9.5565  -9.5356  -9.4282  -9.3780  -9.3383  -9.2811
    -9.2811  -9.2588  -9.2308  -9.2131  -9.0435  -9.0282  -8.9730  -8.9685
    -8.8944  -8.8161  -8.8051  -8.7005  -8.6622  -8.6296  -8.6253  -8.5874
    -8.5596  -8.5278  -8.5028  -8.4784  -8.4167  -8.2714  -8.2650  -8.1675
    -8.1581  -8.0691  -8.0166  -8.0033  -7.8503  -7.8106  -7.7588  -7.7032
    -7.6783  -7.6687  -7.6154  -7.5521  -7.5270  -7.3998  -7.3802  -7.2891
    -7.2889  -7.2610  -7.1853  -7.1036  -7.0358  -6.8969  -6.8222  -6.7838
    -6.7456  -6.7409  -6.6827  -6.6050  -6.5275  -6.3754  -6.3334  -6.2374
    -6.2314  -6.0579  -6.0373  -5.9782  -5.9463  -5.8926  -5.8546  -5.7244
    -5.6314  -5.5784  -5.3072  -5.2587  -5.1707  -5.0894  -4.9365  -4.8786
    -4.7050  -4.6691  -4.5277  -4.4558  -4.4398  -4.3898  -4.1124  -3.9504
    -3.6244  -3.5375  -3.2493  -3.0667  -1.4788  -1.3023  -1.2055  -0.9942
    -0.6676  -0.6399  -0.4532  -0.4127  -0.2739  -0.1364  -0.0096   0.0575
     0.0815   0.1798   0.3442   0.5222   0.7138   0.7564   0.7933   0.8618
     0.9753   1.0012   1.0273   1.1637   1.2926   1.3463   1.3781   1.3807
     1.4540   1.5567   1.6061   1.6775   1.7111   1.7536   1.7712   1.8453
     1.8691   1.9152   2.0819   2.0923   2.1665   2.1728   2.1863   2.2410
     2.3446   2.3604   2.4326   2.4365   2.4440   2.5159   2.5329   2.5532
     2.5638   2.6528   2.6997   2.7137   2.7330   2.7546   2.7874   2.8405
     2.8407   2.8729   2.9023   2.9373   2.9495   3.0802   3.0935   3.1240
     3.1410   3.1461   3.1846   3.2063   3.2444   3.2964   3.3532   3.3854
     3.3958   3.4065   3.4468   3.4487   3.5677   3.5740   3.5907   3.6056
     3.6255   3.6770   3.7084   3.7247   3.7531   3.7808   3.8158   3.8514
     3.8553   3.9165   3.9381   3.9625   3.9632   3.9652   4.0184   4.0455
     4.0670   4.0786   4.1189   4.1231   4.1584   4.2333   4.2409   4.2778
     4.2957   4.2963   4.3599   4.3881   4.4100   4.4302   4.4592   4.4632
     4.4798   4.5302   4.5964   4.5971   4.6131   4.6394   4.6756   4.6941
     4.7542   4.7581   4.7601   4.7713   4.8199   4.8414   4.8498   4.8652
     4.8728   4.8939   4.9231   4.9233   4.9663   5.0018   5.0420   5.0478
     5.0665   5.0747   5.0985   5.1058   5.1220   5.1298   5.2101   5.2237
     5.2532   5.2732   5.2917   5.3249   5.3475   5.3523   5.3586   5.4009
     5.4020   5.4101   5.4372   5.4604   5.4654   5.5176   5.5207   5.5500
     5.5709   5.6160   5.6277   5.6557   5.6621   5.7016   5.7112   5.7327
     5.7591   5.8009   5.8356   5.8392   5.8440   5.8473   5.8851   5.9018
     5.9305   5.9353   5.9549   5.9905   6.0016   6.0415   6.0553   6.0597
     6.0703   6.1145   6.1156   6.1346   6.1371   6.1490   6.1815   6.1917
     6.2063   6.2220   6.2460   6.2633   6.2851   6.2986   6.3052   6.3405
     6.3416   6.3577   6.3967   6.4166   6.4351   6.4377   6.4419   6.4635
     6.5075   6.5144   6.5265   6.5475   6.5559   6.5840   6.5845   6.5878
     6.6458   6.6636   6.6769   6.6962   6.7091   6.7147   6.7241   6.7750
     6.7781   6.8267   6.8351   6.8438   6.8574   6.8647   6.8704   6.8857
     6.9074   6.9668   6.9764   6.9787   7.0239   7.0338   7.0390   7.0443
     7.1313   7.1354   7.1392   7.1580   7.1953   7.2054   7.2158   7.2507
     7.2658   7.2706   7.2985   7.3165   7.3374   7.3671   7.3732   7.3908
     7.4020   7.4165   7.4516   7.4531   7.4960   7.5075   7.5225   7.5324
     7.5354   7.5396   7.5633   7.5733   7.5954   7.6077   7.6124   7.6447
     7.6723   7.6739   7.6959   7.7066   7.7195   7.7379   7.7633   7.7766
     7.7808   7.8549   7.8646   7.8704   7.8877   7.8939   7.9023   7.9120
     7.9290   7.9554   7.9629   7.9663   8.0052   8.0162   8.0506   8.0817
     8.0822   8.0871   8.0907   8.0967   8.1470   8.1630   8.1811   8.2083
     8.2163   8.2170   8.2437   8.2471   8.3067   8.3124   8.3380   8.3418
     8.3539   8.3689   8.4294   8.4322

          k = 0.0000 0.0000 0.0148 (148253 PWs)   bands (ev):

   -21.2766 -21.1880 -20.9341 -20.8061 -20.5865 -20.5234 -20.2354 -20.1099
   -20.0876 -19.8965 -19.7206 -19.5645 -19.5616 -19.3630 -19.0210 -18.9589
   -18.7928 -18.6275 -18.4446 -18.3613 -18.3585 -18.2177 -18.1142 -17.8923
   -17.6242 -17.5995 -17.4113 -17.2918 -17.1144 -17.0791 -16.9688 -16.8442
   -16.8322 -16.7195 -16.5457 -16.4790 -16.2499 -16.2424 -16.0326 -15.9376
   -15.6173 -15.4955 -14.8536 -14.8513 -14.7658 -14.6935 -14.5925 -14.4980
   -14.2928 -14.2011 -14.1399 -14.0019 -13.9157 -13.8822 -13.7358 -13.6130
   -13.5788 -13.3305 -13.0609 -12.9136 -12.9097 -12.6651 -12.4867 -12.3308
   -12.2694 -12.1233 -12.0818 -11.9458 -11.7712 -11.7461 -11.5676 -11.3222
   -11.3025 -11.2821 -11.2756 -11.1891 -10.9749 -10.8327 -10.7166 -10.6655
   -10.5525 -10.5178 -10.3986 -10.3125 -10.1853 -10.0435  -9.9923  -9.8081
    -9.7957  -9.6816  -9.5480  -9.5398  -9.4372  -9.3753  -9.3312  -9.2925
    -9.2780  -9.2641  -9.2275  -9.2146  -9.0446  -9.0343  -8.9817  -8.9671
    -8.8969  -8.8211  -8.8025  -8.6977  -8.6611  -8.6298  -8.6281  -8.5808
    -8.5553  -8.5144  -8.5017  -8.4686  -8.4164  -8.2753  -8.2650  -8.1697
    -8.1592  -8.0664  -8.0269  -7.9949  -7.8430  -7.8058  -7.7692  -7.7002
    -7.6780  -7.6674  -7.6342  -7.5454  -7.5363  -7.3855  -7.3852  -7.2918
    -7.2900  -7.2599  -7.1919  -7.1103  -7.0300  -6.8995  -6.8176  -6.7706
    -6.7453  -6.7424  -6.6871  -6.5962  -6.5298  -6.3834  -6.3304  -6.2402
    -6.2340  -6.0580  -6.0402  -5.9952  -5.9400  -5.8808  -5.8444  -5.7297
    -5.6367  -5.5872  -5.3045  -5.2520  -5.1651  -5.0810  -4.9418  -4.8835
    -4.7033  -4.6695  -4.5255  -4.4588  -4.4373  -4.3894  -4.1092  -3.9578
    -3.6215  -3.5334  -3.2532  -3.0756  -1.4718  -1.3025  -1.1936  -0.9933
    -0.6665  -0.6410  -0.4537  -0.4191  -0.2743  -0.1274  -0.0251   0.0527
     0.0871   0.1871   0.3283   0.5037   0.7183   0.7595   0.7950   0.8582
     0.9899   0.9988   1.0193   1.1621   1.2907   1.3442   1.3658   1.3837
     1.4851   1.5666   1.6033   1.6803   1.7182   1.7574   1.7757   1.8481
     1.8691   1.9123   2.0894   2.1012   2.1653   2.1729   2.1804   2.2444
     2.3512   2.3635   2.4240   2.4318   2.4404   2.5159   2.5177   2.5479
     2.5505   2.6347   2.7084   2.7105   2.7237   2.7508   2.7916   2.8383
     2.8402   2.8734   2.8871   2.9385   2.9388   3.0790   3.1054   3.1259
     3.1391   3.1573   3.1958   3.2053   3.2433   3.2929   3.3671   3.3976
     3.4004   3.4219   3.4454   3.4601   3.5665   3.5697   3.5724   3.6147
     3.6149   3.6935   3.7099   3.7347   3.7590   3.7723   3.8361   3.8495
     3.8569   3.9140   3.9406   3.9520   3.9590   3.9705   4.0062   4.0418
     4.0668   4.0727   4.1013   4.1133   4.1685   4.2282   4.2322   4.2777
     4.2833   4.3061   4.3619   4.3888   4.4072   4.4276   4.4332   4.4727
     4.4853   4.5353   4.5781   4.5829   4.6378   4.6568   4.6635   4.7122
     4.7588   4.7626   4.7785   4.7831   4.8253   4.8256   4.8263   4.8717
[...]
    -6.7389  -6.7233  -6.6505  -6.5844  -6.5143  -6.4603  -6.3082  -6.2926
    -6.1905  -6.1322  -6.0571  -6.0548  -5.8690  -5.8254  -5.7487  -5.7470
    -5.7002  -5.6799  -5.2751  -5.2545  -5.0683  -5.0070  -4.9977  -4.9443
    -4.6865  -4.6771  -4.5020  -4.4850  -4.4117  -4.3970  -4.0664  -4.0262
    -3.5802  -3.5443  -3.2309  -3.1708  -1.3987  -1.3499  -1.0609  -1.0073
    -0.6584  -0.6531  -0.4578  -0.4539  -0.2484  -0.1793  -0.0493  -0.0030
     0.1526   0.2096   0.2738   0.3532   0.7758   0.7900   0.8023   0.8140
     0.9709   0.9723   1.1306   1.1819   1.2217   1.2265   1.3794   1.4000
     1.6058   1.6364   1.6751   1.6833   1.7196   1.7503   1.8536   1.8867
     1.9004   1.9108   2.0840   2.1066   2.1917   2.1958   2.2444   2.2865
     2.3066   2.3134   2.4058   2.4151   2.4197   2.4659   2.4701   2.4839
     2.4892   2.5185   2.7006   2.7032   2.7201   2.7833   2.7841   2.7950
     2.8034   2.8209   2.8528   2.8722   3.0172   3.0221   3.0416   3.0869
     3.2289   3.2620   3.2690   3.2848   3.3420   3.3574   3.3820   3.3892
     3.4258   3.4456   3.4548   3.4647   3.4866   3.5151   3.5633   3.5863
     3.6543   3.6558   3.7673   3.8065   3.8213   3.8360   3.8686   3.8845
     3.9079   3.9117   3.9162   3.9659   3.9803   4.0073   4.0162   4.0179
     4.0228   4.0297   4.0771   4.0933   4.1464   4.1714   4.1899   4.1979
     4.2064   4.2815   4.3151   4.3277   4.3663   4.3932   4.4264   4.4532
     4.4913   4.5426   4.5813   4.5973   4.6260   4.6655   4.6971   4.7080
     4.7334   4.7564   4.7706   4.7821   4.8131   4.8454   4.8678   4.8828
     4.9041   4.9413   4.9842   4.9874   4.9904   5.0023   5.0277   5.0593
     5.1128   5.1136   5.1165   5.1401   5.1503   5.2130   5.2212   5.2351
     5.2693   5.2849   5.2885   5.2944   5.3082   5.3254   5.3377   5.3552
     5.3974   5.4156   5.4376   5.4439   5.4536   5.4656   5.4658   5.4863
     5.5532   5.5665   5.6063   5.6376   5.6782   5.6816   5.7023   5.7143
     5.7798   5.8077   5.8369   5.8397   5.8468   5.8551   5.8674   5.8869
     5.8874   5.8964   5.9140   5.9643   5.9917   5.9983   6.0034   6.0133
     6.0585   6.0610   6.0941   6.1122   6.1644   6.1651   6.1651   6.1964
     6.2131   6.2151   6.2512   6.2744   6.2956   6.3066   6.3196   6.3438
     6.3599   6.3779   6.4189   6.4720   6.4740   6.4760   6.5021   6.5241
     6.5322   6.5404   6.5410   6.5524   6.5854   6.6077   6.6095   6.6303
     6.6715   6.6878   6.6896   6.7164   6.7364   6.7465   6.7554   6.7728
     6.7988   6.8199   6.8332   6.8438   6.8477   6.8529   6.8611   6.9026
     6.9050   6.9158   6.9407   6.9739   6.9751   7.0180   7.0750   7.0895
     7.0974   7.1191   7.1251   7.1321   7.1354   7.1555   7.2039   7.2235
     7.2495   7.2756   7.2903   7.2927   7.3061   7.3604   7.3665   7.3943
     7.4201   7.4451   7.4643   7.4733   7.4773   7.5065   7.5263   7.5491
     7.5552   7.5696   7.5790   7.6032   7.6322   7.6579   7.6711   7.6938
     7.7039   7.7085   7.7383   7.7394   7.7516   7.7536   7.7857   7.8076
     7.8210   7.8586   7.8622   7.8738   7.9097   7.9137   7.9260   7.9344
     7.9580   7.9708   8.0042   8.0148   8.0262   8.0467   8.0654   8.0799
     8.0898   8.0941   8.1057   8.1180   8.1290   8.1927   8.2138   8.2302
     8.2563   8.2586   8.2783   8.2953   8.2991   8.3017   8.3359   8.3513
     8.3607   8.3946   8.4034   8.4180

          k = 0.0000 0.0000 0.0262 (148146 PWs)   bands (ev):

   -21.2467 -21.2311 -20.8797 -20.8575 -20.5478 -20.5360 -20.2142 -20.1907
   -20.0131 -19.9810 -19.6519 -19.6247 -19.4552 -19.4205 -18.9928 -18.9833
   -18.7176 -18.6903 -18.4008 -18.3858 -18.3613 -18.3381 -18.0214 -17.9827
   -17.5889 -17.5771 -17.2746 -17.2190 -17.2175 -17.1781 -16.9075 -16.8828
   -16.7789 -16.7546 -16.4926 -16.4832 -16.2724 -16.2712 -16.0414 -16.0299
   -15.5663 -15.5419 -14.7930 -14.7776 -14.7462 -14.7242 -14.5699 -14.5391
   -14.1698 -14.1526 -14.1217 -14.0576 -13.9025 -13.8948 -13.7750 -13.7516
   -13.5429 -13.4970 -13.0077 -12.9823 -12.8119 -12.7700 -12.3415 -12.3073
   -12.2012 -12.1615 -12.0115 -11.9659 -11.7311 -11.6917 -11.5338 -11.4975
   -11.3171 -11.3099 -11.2790 -11.2682 -10.8888 -10.8269 -10.7130 -10.6768
   -10.5253 -10.5179 -10.3722 -10.3519 -10.2126 -10.1486  -9.8661  -9.8179
    -9.7240  -9.6887  -9.5708  -9.5255  -9.4678  -9.4330  -9.3379  -9.3184
    -9.2686  -9.2443  -9.1698  -9.1443  -9.1213  -9.0992  -9.0092  -8.9787
    -8.9041  -8.8788  -8.7342  -8.7031  -8.6655  -8.6600  -8.6139  -8.5978
    -8.5144  -8.5039  -8.4030  -8.3893  -8.3779  -8.3424  -8.2257  -8.1975
    -8.1527  -8.1254  -7.9484  -7.9057  -7.8681  -7.8615  -7.7846  -7.7770
    -7.6665  -7.6647  -7.6516  -7.6250  -7.4745  -7.4463  -7.3124  -7.3101
    -7.2494  -7.2440  -7.2343  -7.2022  -6.9649  -6.9410  -6.7711  -6.7583
    -6.7369  -6.7265  -6.6384  -6.5942  -6.5052  -6.4692  -6.3060  -6.2958
    -6.1828  -6.1440  -6.0569  -6.0554  -5.8606  -5.8306  -5.7418  -5.7358
    -5.7086  -5.6910  -5.2715  -5.2577  -5.0571  -5.0162  -4.9883  -4.9526
    -4.6848  -4.6785  -4.4992  -4.4879  -4.4089  -4.3991  -4.0603  -4.0334
    -3.5742  -3.5499  -3.2223  -3.1818  -1.3902  -1.3576  -1.0489  -1.0132
    -0.6576  -0.6542  -0.4578  -0.4553  -0.2403  -0.1940  -0.0412  -0.0103
     0.1613   0.1992   0.2858   0.3388   0.7825   0.7930   0.8013   0.8080
     0.9692   0.9704   1.1467   1.1874   1.2107   1.2140   1.3838   1.3978
     1.6099   1.6310   1.6854   1.6954   1.7145   1.7411   1.8630   1.8854
     1.9038   1.9124   2.0848   2.1013   2.1969   2.1996   2.2539   2.2892
     2.2954   2.3052   2.4101   2.4171   2.4216   2.4568   2.4638   2.4773
     2.4939   2.5138   2.6992   2.7004   2.7298   2.7773   2.7814   2.7903
     2.8025   2.8182   2.8582   2.8708   3.0194   3.0286   3.0326   3.0753
     3.2372   3.2661   3.2824   3.2984   3.3516   3.3593   3.3680   3.3928
     3.4223   3.4336   3.4528   3.4653   3.4912   3.5122   3.5522   3.5721
     3.6755   3.6777   3.7523   3.7805   3.8247   3.8375   3.8773   3.9032
     3.9109   3.9126   3.9272   3.9675   3.9822   4.0142   4.0151   4.0201
     4.0282   4.0345   4.0448   4.1118   4.1312   4.1742   4.1912   4.1912
     4.2003   4.2835   4.3003   4.3063   4.3722   4.3933   4.4245   4.4432
     4.5117   4.5521   4.5743   4.6147   4.6202   4.6592   4.6813   4.6959
     4.7436   4.7587   4.7680   4.7896   4.8016   4.8603   4.8680   4.8902
     4.9130   4.9404   4.9716   4.9841   4.9852   4.9905   5.0371   5.0705
     5.1146   5.1249   5.1264   5.1266   5.1566   5.2122   5.2186   5.2588
     5.2601   5.2826   5.2859   5.2999   5.3167   5.3382   5.3398   5.3490
     5.3982   5.4113   5.4153   5.4379   5.4482   5.4617   5.4646   5.5032
     5.5381   5.5709   5.6087   5.6289   5.6671   5.6762   5.7109   5.7240
     5.7760   5.8118   5.8187   5.8415   5.8442   5.8553   5.8654   5.8904
     5.8931   5.8944   5.9227   5.9667   5.9914   5.9970   5.9992   6.0090
     6.0620   6.0661   6.0931   6.1060   6.1553   6.1613   6.1625   6.1704
     6.2285   6.2353   6.2565   6.2766   6.2913   6.2981   6.3197   6.3206
     6.3605   6.3660   6.4412   6.4695   6.4739   6.4822   6.5024   6.5248
     6.5272   6.5407   6.5472   6.5554   6.5966   6.6212   6.6214   6.6297
     6.6607   6.6898   6.7028   6.7317   6.7372   6.7568   6.7726   6.7824
     6.7912   6.8248   6.8361   6.8431   6.8488   6.8533   6.8633   6.8960
     6.8963   6.9087   6.9431   6.9575   6.9677   6.9863   7.0754   7.0866
     7.0881   7.1124   7.1226   7.1309   7.1328   7.1631   7.1953   7.2152
     7.2679   7.2945   7.2995   7.2998   7.3055   7.3653   7.3694   7.3972
     7.4155   7.4308   7.4617   7.4737   7.4837   7.4903   7.5022   7.5484
     7.5592   7.5780   7.5858   7.5877   7.6380   7.6652   7.6701   7.6903
     7.7120   7.7185   7.7366   7.7390   7.7416   7.7487   7.7995   7.8096
     7.8155   7.8534   7.8623   7.8953   7.9140   7.9217   7.9329   7.9464
     7.9544   7.9822   7.9999   8.0043   8.0051   8.0607   8.0720   8.0801
     8.0801   8.0976   8.1086   8.1368   8.1469   8.1876   8.2216   8.2286
     8.2372   8.2646   8.2654   8.2784   8.3079   8.3234   8.3424   8.3449
     8.3620   8.3883   8.4042   8.4077

          k = 0.0000 0.0000 0.0273 (148138 PWs)   bands (ev):

   -21.2429 -21.2351 -20.8741 -20.8630 -20.5445 -20.5386 -20.2091 -20.1973
   -20.0052 -19.9891 -19.6450 -19.6314 -19.4460 -19.4286 -18.9903 -18.9856
   -18.7106 -18.6970 -18.3970 -18.3895 -18.3569 -18.3453 -18.0117 -17.9924
   -17.5855 -17.5796 -17.2602 -17.2323 -17.2080 -17.1883 -16.9012 -16.8888
   -16.7724 -16.7602 -16.4896 -16.4849 -16.2730 -16.2723 -16.0397 -16.0340
   -15.5601 -15.5479 -14.7886 -14.7809 -14.7406 -14.7293 -14.5619 -14.5463
   -14.1581 -14.1514 -14.1130 -14.0787 -13.8986 -13.8949 -13.7722 -13.7605
   -13.5325 -13.5096 -13.0015 -12.9888 -12.8015 -12.7805 -12.3320 -12.3149
   -12.1908 -12.1708 -11.9993 -11.9762 -11.7189 -11.6985 -11.5270 -11.5093
   -11.3159 -11.3122 -11.2777 -11.2723 -10.8735 -10.8423 -10.7032 -10.6850
   -10.5220 -10.5183 -10.3705 -10.3603 -10.1956 -10.1636  -9.8531  -9.8289
    -9.7154  -9.6978  -9.5588  -9.5360  -9.4612  -9.4438  -9.3333  -9.3235
    -9.2621  -9.2499  -9.1572  -9.1330  -9.1329  -9.1104  -9.0024  -8.9871
    -8.8977  -8.8850  -8.7264  -8.7109  -8.6635  -8.6608  -8.6105  -8.6024
    -8.5113  -8.5061  -8.3977  -8.3909  -8.3693  -8.3513  -8.2183  -8.2041
    -8.1469  -8.1332  -7.9279  -7.8964  -7.8843  -7.8776  -7.7816  -7.7778
    -7.6654  -7.6642  -7.6461  -7.6325  -7.4674  -7.4533  -7.3125  -7.3113
    -7.2418  -7.2371  -7.2370  -7.2135  -6.9586  -6.9466  -6.7674  -6.7610
    -6.7347  -6.7295  -6.6267  -6.6045  -6.4962  -6.4781  -6.3037  -6.2987
    -6.1743  -6.1550  -6.0567  -6.0559  -5.8524  -5.8371  -5.7339  -5.7245
    -5.7171  -5.7021  -5.2680  -5.2610  -5.0463  -5.0258  -4.9791  -4.9613
    -4.6831  -4.6799  -4.4964  -4.4907  -4.4062  -4.4013  -4.0539  -4.0404
    -3.5681  -3.5558  -3.2129  -3.1926  -1.3819  -1.3655  -1.0381  -1.0202
    -0.6569  -0.6551  -0.4576  -0.4564  -0.2307  -0.2076  -0.0333  -0.0178
     0.1703   0.1892   0.2984   0.3248   0.7891   0.7956   0.7998   0.8019
     0.9684   0.9690   1.1627   1.1934   1.1947   1.2067   1.3879   1.3950
     1.6146   1.6253   1.6943   1.7076   1.7087   1.7308   1.8711   1.8824
     1.9073   1.9121   2.0874   2.0961   2.2006   2.2019   2.2637   2.2845
     2.2916   2.2990   2.4136   2.4175   2.4267   2.4448   2.4641   2.4714
     2.4989   2.5089   2.6983   2.6987   2.7408   2.7653   2.7816   2.7863
     2.8066   2.8149   2.8627   2.8690   3.0189   3.0256   3.0402   3.0636
     3.2454   3.2603   3.3033   3.3131   3.3408   3.3458   3.3781   3.4038
     3.4151   3.4192   3.4567   3.4635   3.4971   3.5081   3.5476   3.5592
     3.6957   3.7028   3.7348   3.7545   3.8280   3.8349   3.8863   3.9035
     3.9151   3.9165   3.9502   3.9711   3.9800   4.0096   4.0174   4.0182
     4.0188   4.0255   4.0578   4.1076   4.1319   4.1730   4.1766   4.1853
     4.2224   4.2734   4.2863   4.2976   4.3800   4.3915   4.4250   4.4343
     4.5310   4.5628   4.5662   4.6034   4.6318   4.6642   4.6651   4.6843
     4.7527   4.7644   4.7663   4.7892   4.8017   4.8385   4.8895   4.9072
     4.9214   4.9359   4.9567   4.9737   4.9826   4.9834   5.0520   5.0744
     5.1141   5.1143   5.1327   5.1345   5.1684   5.1994   5.2261   5.2468
     5.2759   5.2798   5.2969   5.3086   5.3225   5.3334   5.3423   5.3459
     5.3953   5.4038   5.4129   5.4387   5.4389   5.4436   5.4705   5.4984
     5.5483   5.5938   5.5952   5.6340   5.6546   5.6556   5.7201   5.7294
     5.7762   5.7995   5.8278   5.8430   5.8444   5.8585   5.8595   5.8812
     5.8936   5.8941   5.9370   5.9642   5.9894   5.9899   6.0038   6.0151
     6.0652   6.0684   6.0936   6.1007   6.1446   6.1506   6.1595   6.1604
     6.2490   6.2545   6.2609   6.2793   6.2857   6.2955   6.2957   6.3140
     6.3586   6.3595   6.4630   6.4683   6.4746   6.4881   6.4988   6.5099
     6.5323   6.5396   6.5518   6.5562   6.6066   6.6213   6.6318   6.6417
     6.6509   6.6753   6.7153   6.7297   6.7598   6.7654   6.7845   6.7872
     6.7919   6.8317   6.8337   6.8346   6.8469   6.8655   6.8730   6.8895
     6.8924   6.9020   6.9392   6.9481   6.9506   6.9612   7.0780   7.0843
     7.0847   7.0974   7.1272   7.1315   7.1409   7.1601   7.1937   7.2057
     7.2852   7.2983   7.3031   7.3039   7.3251   7.3562   7.3779   7.3995
     7.4114   7.4330   7.4407   7.4718   7.4805   7.4859   7.5000   7.5344
     7.5704   7.5776   7.5804   7.5877   7.6503   7.6714   7.6779   7.6861
     7.6969   7.7155   7.7292   7.7379   7.7447   7.7542   7.8092   7.8119
     7.8171   7.8487   7.8622   7.9022   7.9259   7.9334   7.9388   7.9509
     7.9552   7.9800   7.9953   7.9975   8.0074   8.0388   8.0670   8.0691
     8.0965   8.1149   8.1168   8.1475   8.1610   8.1954   8.1970   8.2336
     8.2369   8.2510   8.2671   8.2678   8.3123   8.3275   8.3459   8.3532
     8.3704   8.3845   8.3908   8.3988

          k = 0.0000 0.0000-0.0285 (148166 PWs)   bands (ev):

   -21.2391 -21.2390 -20.8685 -20.8685 -20.5415 -20.5414 -20.2034 -20.2034
   -19.9972 -19.9972 -19.6382 -19.6381 -19.4371 -19.4371 -18.9879 -18.9879
   -18.7037 -18.7037 -18.3932 -18.3932 -18.3515 -18.3515 -18.0020 -18.0020
   -17.5824 -17.5824 -17.2460 -17.2460 -17.1982 -17.1982 -16.8950 -16.8949
   -16.7661 -16.7661 -16.4870 -16.4870 -16.2729 -16.2729 -16.0373 -16.0372
   -15.5540 -15.5540 -14.7846 -14.7846 -14.7349 -14.7348 -14.5540 -14.5539
   -14.1525 -14.1525 -14.0980 -14.0979 -13.8961 -13.8961 -13.7674 -13.7674
   -13.5214 -13.5214 -12.9952 -12.9952 -12.7910 -12.7910 -12.3232 -12.3231
   -12.1807 -12.1806 -11.9875 -11.9875 -11.7078 -11.7078 -11.5190 -11.5190
   -11.3142 -11.3142 -11.2755 -11.2755 -10.8579 -10.8579 -10.6938 -10.6938
   -10.5196 -10.5196 -10.3665 -10.3665 -10.1793 -10.1792  -9.8407  -9.8407
    -9.7067  -9.7067  -9.5471  -9.5471  -9.4532  -9.4532  -9.3285  -9.3284
    -9.2559  -9.2559  -9.1448  -9.1448  -9.1217  -9.1217  -8.9950  -8.9950
    -8.8913  -8.8913  -8.7186  -8.7186  -8.6620  -8.6620  -8.6067  -8.6066
    -8.5085  -8.5085  -8.3937  -8.3937  -8.3604  -8.3603  -8.2110  -8.2110
    -8.1404  -8.1404  -7.9065  -7.9065  -7.8870  -7.8870  -7.7794  -7.7794
    -7.6646  -7.6646  -7.6396  -7.6396  -7.4603  -7.4603  -7.3121  -7.3121
    -7.2395  -7.2395  -7.2251  -7.2251  -6.9525  -6.9525  -6.7640  -6.7640
    -6.7322  -6.7322  -6.6154  -6.6153  -6.4871  -6.4871  -6.3013  -6.3013
    -6.1651  -6.1651  -6.0564  -6.0564  -5.8445  -5.8444  -5.7257  -5.7256
    -5.7133  -5.7133  -5.2644  -5.2644  -5.0359  -5.0358  -4.9701  -4.9701
    -4.6815  -4.6814  -4.4936  -4.4936  -4.4037  -4.4037  -4.0472  -4.0472
    -3.5620  -3.5619  -3.2030  -3.2030  -1.3736  -1.3736  -1.0285  -1.0285
    -0.6560  -0.6560  -0.4571  -0.4571  -0.2198  -0.2198  -0.0255  -0.0255
     0.1796   0.1796   0.3113   0.3114   0.7955   0.7955   0.7979   0.7979
     0.9683   0.9683   1.1787   1.1787   1.1998   1.1998   1.3917   1.3917
     1.6198   1.6198   1.7020   1.7020   1.7195   1.7195   1.8776   1.8776
     1.9102   1.9102   2.0913   2.0913   2.2023   2.2023   2.2739   2.2739
     2.2946   2.2947   2.4162   2.4162   2.4346   2.4346   2.4668   2.4668
     2.5038   2.5039   2.6980   2.6980   2.7527   2.7527   2.7833   2.7833
     2.8110   2.8110   2.8663   2.8664   3.0210   3.0210   3.0518   3.0519
     3.2532   3.2532   3.3244   3.3244   3.3275   3.3275   3.3965   3.3965
     3.4131   3.4131   3.4604   3.4604   3.5029   3.5029   3.5502   3.5503
     3.7157   3.7157   3.7285   3.7285   3.8314   3.8314   3.8951   3.8951
     3.9181   3.9181   3.9750   3.9750   3.9803   3.9804   4.0168   4.0168
     4.0223   4.0223   4.0826   4.0826   4.1527   4.1527   4.1804   4.1804
     4.2473   4.2473   4.2909   4.2909   4.3870   4.3870   4.4281   4.4281
     4.5481   4.5481   4.5839   4.5839   4.6486   4.6486   4.6735   4.6735
     4.7595   4.7596   4.7770   4.7770   4.8185   4.8185   4.9065   4.9065
     4.9292   4.9292   4.9580   4.9580   4.9824   4.9824   5.0666   5.0666
     5.1124   5.1124   5.1357   5.1358   5.1841   5.1841   5.2357   5.2357
     5.2779   5.2779   5.3180   5.3180   5.3243   5.3243   5.3356   5.3357
     5.4092   5.4092   5.4122   5.4122   5.4404   5.4404   5.4828   5.4829
     5.5715   5.5715   5.6255   5.6255   5.6443   5.6443   5.7274   5.7274
     5.7844   5.7844   5.8440   5.8441   5.8462   5.8463   5.8677   5.8677
     5.8937   5.8937   5.9524   5.9524   5.9881   5.9881   6.0130   6.0130
     6.0677   6.0677   6.0964   6.0964   6.1416   6.1416   6.1592   6.1592
     6.2627   6.2627   6.2718   6.2718   6.2820   6.2820   6.3019   6.3019
     6.3579   6.3579   6.4683   6.4683   6.4905   6.4906   6.4938   6.4938
     6.5367   6.5367   6.5549   6.5549   6.6150   6.6150   6.6414   6.6414
     6.6585   6.6585   6.7244   6.7245   6.7681   6.7682   6.7860   6.7860
     6.8121   6.8121   6.8321   6.8321   6.8664   6.8664   6.8819   6.8819
     6.8953   6.8953   6.9306   6.9307   6.9545   6.9545   7.0814   7.0814
     7.0879   7.0879   7.1306   7.1306   7.1507   7.1507   7.1980   7.1980
     7.2982   7.2982   7.3014   7.3014   7.3439   7.3439   7.3922   7.3923
     7.4140   7.4140   7.4542   7.4542   7.4847   7.4847   7.5144   7.5144
     7.5784   7.5784   7.5809   7.5809   7.6663   7.6663   7.6843   7.6843
     7.6955   7.6955   7.7349   7.7349   7.7521   7.7521   7.8093   7.8093
     7.8336   7.8336   7.8818   7.8818   7.9399   7.9399   7.9443   7.9443
     7.9663   7.9663   7.9974   7.9974   8.0186   8.0186   8.0624   8.0624
     8.1133   8.1133   8.1353   8.1353   8.1747   8.1747   8.2196   8.2196
     8.2408   8.2408   8.2675   8.2675   8.3162   8.3162   8.3568   8.3569
     8.3833   8.3833   8.3850   8.3850

     the Fermi energy is    -2.9390 ev

     Writing output data file V9_3.save/

     init_run     :     23.67s CPU     24.19s WALL (       1 calls)
     electrons    :  10926.89s CPU  10991.78s WALL (       1 calls)

     Called by init_run:
     wfcinit      :      0.00s CPU      0.00s WALL (       1 calls)
     potinit      :      1.36s CPU      1.48s WALL (       1 calls)
     hinit0       :     18.63s CPU     18.74s WALL (       1 calls)

     Called by electrons:
     c_bands      :  10926.87s CPU  10991.66s WALL (       1 calls)
     v_of_rho     :      1.02s CPU      1.08s WALL (       1 calls)
     newd         :      1.05s CPU      1.27s WALL (       1 calls)

     Called by c_bands:
     init_us_2    :      0.87s CPU      0.89s WALL (      26 calls)
     cegterg      :  10676.79s CPU  10731.85s WALL (      73 calls)

     Called by sum_band:

     Called by *egterg:
     h_psi        :   3402.99s CPU   3427.19s WALL (    1175 calls)
     s_psi        :    412.33s CPU    412.82s WALL (    1175 calls)
     g_psi        :     17.51s CPU     17.54s WALL (    1076 calls)
     cdiaghg      :   3402.57s CPU   3407.68s WALL (    1102 calls)

     Called by h_psi:
     h_psi:pot    :   3395.06s CPU   3415.12s WALL (    1175 calls)
     h_psi:calbec :    438.97s CPU    441.55s WALL (    1175 calls)
     vloc_psi     :   2543.95s CPU   2560.88s WALL (    1175 calls)
     add_vuspsi   :    412.12s CPU    412.69s WALL (    1175 calls)

     General routines
     calbec       :    438.96s CPU    441.54s WALL (    1175 calls)
     fft          :      0.94s CPU      1.01s WALL (      14 calls)
     ffts         :      0.02s CPU      0.02s WALL (       1 calls)
     fftw         :   2367.81s CPU   2383.88s WALL (  557792 calls)
     interpolate  :      0.10s CPU      0.10s WALL (       1 calls)
     davcio       :      0.00s CPU     10.40s WALL (      52 calls)

     Parallel routines
     fft_scatt_xy :    206.53s CPU    207.42s WALL (  557807 calls)
     fft_scatt_yz :   1477.51s CPU   1490.31s WALL (  557807 calls)

     PWSCF        :     3h 3m CPU        3h 3m WALL

      10h

   This run was terminated on:  13: 3: 9  20Apr2021            

=------------------------------------------------------------------------------=
   JOB DONE.
=------------------------------------------------------------------------------=
