
     Program PWSCF v.6.3 starts on 20Apr2021 at 14:12:39 

     This program is part of the open-source Quantum ESPRESSO suite
     for quantum simulation of materials; please cite
         "P. Giannozzi et al., J. Phys.:Condens. Matter 21 395502 (2009);
         "P. Giannozzi et al., J. Phys.:Condens. Matter 29 465901 (2017);
          URL http://www.quantum-espresso.org", 
     in publications or presentations arising from this work. More details at
     http://www.quantum-espresso.org/quote

     Parallel version (MPI), running on    16 processors
     R & G space division:  proc/nbgrp/npool/nimage =      16
     Waiting for input...
     Reading input from standard input
     Message from routine read_cards :
     DEPRECATED: no units specified in CELL_PARAMETERS card

     Current dimensions of program PWSCF are:
     Max number of different atomic species (ntypx) = 10
     Max number of k-points (npk) =  40000
     Max angular momentum in pseudopotentials (lmaxx) =  3

     Atomic positions and unit cell read from directory:
     /home/zfwang/scratch/GNRDATASET/AGNR/V9_7/V9_7.save/


     Subspace diagonalization in iterative solution of the eigenvalue problem:
     a serial algorithm will be used


     Parallelization info
     --------------------
     sticks:   dense  smooth     PW     G-vecs:    dense   smooth      PW
     Min        2497     832    214               400269    77015   10052
     Max        2498     834    215               400272    77017   10055
     Sum       39953   13323   3431              6404317  1232257  160853



     bravais-lattice index     =            0
     lattice parameter (alat)  =       1.8897  a.u.
     unit-cell volume          =   36063.3268 (a.u.)^3
     number of atoms/cell      =          108
     number of atomic types    =            2
     number of electrons       =       360.00
     number of Kohn-Sham states=          500
     kinetic-energy cutoff     =      40.0000  Ry
     charge density cutoff     =     480.0000  Ry
     Exchange-correlation      = PBE ( 1  4  3  4 0 0)

     celldm(1)=  18.897261  celldm(2)=   2.931000  celldm(3)=   1.823280
     celldm(4)=   0.000000  celldm(5)=   0.000000  celldm(6)=   0.000000

     crystal axes: (cart. coord. in units of alat)
               a(1) = (  10.000000   0.000000   0.000000 )  
               a(2) = (   0.000000  29.310000   0.000000 )  
               a(3) = (   0.000000   0.000000  18.232800 )  

     reciprocal axes: (cart. coord. in units 2 pi/alat)
               b(1) = (  0.100000  0.000000  0.000000 )  
               b(2) = (  0.000000  0.034118  0.000000 )  
               b(3) = (  0.000000  0.000000  0.054846 )  


     PseudoPot. # 1 for C  read from file:
     /home/zfwang/hp_home/MySoftware/qe-6.3/pseudo/C.pbe-n-rrkjus_psl.0.1.UPF
     MD5 check sum: fff530ed632a789b3b184014e67dd7f1
     Pseudo is Ultrasoft + core correction, Zval =  4.0
     Generated using "atomic" code by A. Dal Corso v.5.0.2 svn rev. 9415
     Using radial grid of 1073 points,  4 beta functions with: 
                l(1) =   0
                l(2) =   0
                l(3) =   1
                l(4) =   1
     Q(r) pseudized with 0 coefficients 


     PseudoPot. # 2 for H  read from file:
     /home/zfwang/hp_home/MySoftware/qe-6.3/pseudo/H.pbe-rrkjus_psl.0.1.UPF
     MD5 check sum: e164a6907b691c6980f16942be34de84
     Pseudo is Ultrasoft, Zval =  1.0
     Generated using "atomic" code by A. Dal Corso v.5.0.2 svn rev. 9415
     Using radial grid of  929 points,  2 beta functions with: 
                l(1) =   0
                l(2) =   0
     Q(r) pseudized with 0 coefficients 


     atomic species   valence    mass     pseudopotential
        C              4.00    12.01070     C ( 1.00)
        H              1.00     1.00794     H ( 1.00)

     No symmetry found



   Cartesian axes

     site n.     atom                  positions (alat units)
         1           C   tau(   1) = (   4.9999981   6.1147446   2.8236735  )
         2           C   tau(   2) = (   4.9999970   6.1303103  16.7933921  )
         3           C   tau(   3) = (   4.9999980   7.3117864   3.5182004  )
         4           C   tau(   4) = (   4.9999975   7.3357060  17.5084278  )
         5           C   tau(   5) = (   4.9999979   6.1303942   1.4395148  )
         6           C   tau(   6) = (   4.9999978   6.1148421  15.4089893  )
         7           C   tau(   7) = (   4.9999977   8.5458047   2.8473259  )
         8           C   tau(   8) = (   4.9999982   8.5753520  16.8080341  )
         9           C   tau(   9) = (   4.9999976   9.7922678   3.5837635  )
        10           C   tau(  10) = (   5.0000002   9.7771221  13.2442613  )
        11           C   tau(  11) = (   4.9999982   9.8355051  17.5177036  )
        12           C   tau(  12) = (   4.9999976   7.3356127   0.7243467  )
        13           C   tau(  13) = (   4.9999990   7.3117067  14.7147129  )
        14           C   tau(  14) = (   4.9999976   8.5754057   1.4248328  )
        15           C   tau(  15) = (   4.9999989   8.5458086  15.3854085  )
        16           C   tau(  16) = (   4.9999978  11.0399900   2.9046504  )
        17           C   tau(  17) = (   5.0000003  10.9289961  12.4985620  )
        18           C   tau(  18) = (   4.9999986  11.0704937  16.7879261  )
        19           C   tau(  19) = (   4.9999981  12.2472791   3.6851973  )
        20           C   tau(  20) = (   4.9999997  12.1980893  13.0925535  )
        21           C   tau(  21) = (   4.9999986  12.3125624  17.5015718  )
        22           C   tau(  22) = (   4.9999978   9.8354926   0.7150873  )
        23           C   tau(  23) = (   4.9999974   9.7772287   4.9885690  )
        24           C   tau(  24) = (   4.9999994   9.7923091  14.6490598  )
        25           C   tau(  25) = (   4.9999980  11.0704840   1.4448861  )
        26           C   tau(  26) = (   4.9999977  10.9289040   5.7341827  )
        27           C   tau(  27) = (   4.9999990  11.0399469  15.3281391  )
        28           C   tau(  28) = (   4.9999985  13.5010299   2.9793763  )
        29           C   tau(  29) = (   4.9999989  13.3706241   7.4545502  )
        30           C   tau(  30) = (   4.9999997  13.3956753  12.2305473  )
        31           C   tau(  31) = (   4.9999990  13.5455333  16.7306150  )
        32           C   tau(  32) = (   4.9999991  14.6767000   3.8099666  )
        33           C   tau(  33) = (   4.9999996  14.5002147   8.3250100  )
        34           C   tau(  34) = (   4.9999997  14.6332917  12.9262829  )
        35           C   tau(  35) = (   4.9999992  14.8097872  17.4413762  )
        36           C   tau(  36) = (   4.9999983  12.3125723   0.7312272  )
        37           C   tau(  37) = (   4.9999982  12.1981161   5.1402516  )
        38           C   tau(  38) = (   4.9999993  12.2473024  14.5475941  )
        39           C   tau(  39) = (   4.9999987  13.5455292   1.5021845  )
        40           C   tau(  40) = (   4.9999987  13.3956812   6.0022528  )
        41           C   tau(  41) = (   4.9999998  13.3706264  10.7782485  )
        42           C   tau(  42) = (   4.9999992  13.5010259  15.2534262  )
        43           C   tau(  43) = (   4.9999999  15.9142977   3.1142223  )
        44           C   tau(  44) = (   5.0000000  15.7644716   7.6142608  )
        45           C   tau(  45) = (   5.0000000  15.8089582  12.0957134  )
        46           C   tau(  46) = (   4.9999995  15.9393681  16.5708834  )
        47           C   tau(  47) = (   5.0000012  17.1118726   3.9762091  )
        48           C   tau(  48) = (   5.0000004  16.9974391   8.3851886  )
        49           C   tau(  49) = (   5.0000004  17.0627194  12.8015260  )
        50           C   tau(  50) = (   4.9999991  14.8097880   0.7914247  )
        51           C   tau(  51) = (   4.9999992  14.6332852   5.3065200  )
        52           C   tau(  52) = (   4.9999998  14.5002103   9.9077919  )
        53           C   tau(  53) = (   4.9999995  14.6766951  14.4228327  )
        54           C   tau(  54) = (   4.9999996  15.9393692   1.6619170  )
        55           C   tau(  55) = (   4.9999999  15.8089627   6.1370879  )
        56           C   tau(  56) = (   5.0000001  15.7644749  10.6185400  )
        57           C   tau(  57) = (   4.9999997  15.9142999  15.1185802  )
        58           C   tau(  58) = (   5.0000033  18.3811125   3.3823052  )
        59           C   tau(  59) = (   5.0000011  18.2395222   7.6715380  )
        60           C   tau(  60) = (   5.0000009  18.2699941  12.0210112  )
        61           C   tau(  61) = (   5.0000043  19.5327250   4.1278669  )
        62           C   tau(  62) = (   5.0000014  19.4745058   8.4013311  )
        63           C   tau(  63) = (   5.0000018  19.5177385  12.7001034  )
        64           C   tau(  64) = (   5.0000009  17.0627158   5.4312742  )
        65           C   tau(  65) = (   5.0000003  16.9974361   9.8476118  )
        66           C   tau(  66) = (   5.0000004  17.1118681  14.2565923  )
        67           C   tau(  67) = (   5.0000017  18.2699993   6.2117878  )
        68           C   tau(  68) = (   5.0000007  18.2395235  10.5612645  )
        69           C   tau(  69) = (   5.0000013  18.3811235  14.8504891  )
        70           C   tau(  70) = (   5.0000021  20.7346455   7.6916199  )
        71           C   tau(  71) = (   5.0000021  20.7641931  11.9637112  )
        72           C   tau(  72) = (   5.0000016  21.9743403   8.3920587  )
        73           C   tau(  73) = (   5.0000027  21.9982444  12.6345213  )
        74           C   tau(  74) = (   5.0000032  19.5177336   5.5327001  )
        75           C   tau(  75) = (   5.0000010  19.4745097   9.8314681  )
        76           C   tau(  76) = (   5.0000021  19.5327130  14.1049381  )
        77           C   tau(  77) = (   5.0000033  20.7641887   6.2690793  )
        78           C   tau(  78) = (   5.0000015  20.7346319  10.5411922  )
        79           C   tau(  79) = (   5.0000019  23.1796772   7.6769619  )
        80           C   tau(  80) = (   5.0000022  23.1952239  11.9400923  )
        81           C   tau(  81) = (   5.0000041  21.9982644   5.5983010  )
        82           C   tau(  82) = (   5.0000013  21.9743636   9.8407381  )
        83           C   tau(  83) = (   5.0000032  23.1952003   6.2926828  )
        84           C   tau(  84) = (   5.0000013  23.1796571  10.5558569  )
        85           H   tau(  85) = (   4.9999985   5.1664033   3.3615856  )
        86           H   tau(  86) = (   4.9999958   5.1805397  17.3202136  )
        87           H   tau(  87) = (   4.9999983   7.2750677   4.6037385  )
        88           H   tau(  88) = (   4.9999981   5.1805019   0.9125652  )
        89           H   tau(  89) = (   4.9999973   5.1663939  14.8712212  )
        90           H   tau(  90) = (   5.0000006   8.8315917  12.7098411  )
        91           H   tau(  91) = (   4.9999998   7.2750692  13.6290237  )
        92           H   tau(  92) = (   5.0000008  10.8365025  11.4144704  )
        93           H   tau(  93) = (   4.9999969   8.8315650   5.5229711  )
        94           H   tau(  94) = (   4.9999975  10.8365053   6.8183495  )
        95           H   tau(  95) = (   4.9999984  12.3872902   7.9243731  )
        96           H   tau(  96) = (   4.9999997  12.3872896  10.3084281  )
        97           H   tau(  97) = (   4.9999996  16.9227147  17.0406804  )
        98           H   tau(  98) = (   4.9999997  16.9227147   1.1921206  )
        99           H   tau(  99) = (   5.0000042  18.4734852   2.2980958  )
       100           H   tau( 100) = (   5.0000060  20.4784363   3.5934861  )
       101           H   tau( 101) = (   5.0000015  18.4734846  15.9347074  )
       102           H   tau( 102) = (   5.0000036  22.0349409  13.7201143  )
       103           H   tau( 103) = (   5.0000030  20.4784392  14.6393161  )
       104           H   tau( 104) = (   5.0000012  24.1294895   8.2038421  )
       105           H   tau( 105) = (   5.0000025  24.1436010  12.4779595  )
       106           H   tau( 106) = (   5.0000053  22.0349404   4.5126790  )
       107           H   tau( 107) = (   5.0000037  24.1436042   5.7548415  )
       108           H   tau( 108) = (   5.0000008  24.1294975  10.0289542  )

     number of k points=    26  Marzari-Vanderbilt smearing, width (Ry)=  0.0100
                       cart. coord. in units 2pi/alat
        k(    1) = (   0.0000000   0.0000000   0.0000000), wk =   0.0400000
        k(    2) = (   0.0000000   0.0000000   0.0010969), wk =   0.0800000
        k(    3) = (   0.0000000   0.0000000   0.0021938), wk =   0.0800000
        k(    4) = (   0.0000000   0.0000000   0.0032908), wk =   0.0800000
        k(    5) = (   0.0000000   0.0000000   0.0043877), wk =   0.0800000
        k(    6) = (   0.0000000   0.0000000   0.0054846), wk =   0.0800000
        k(    7) = (   0.0000000   0.0000000   0.0065815), wk =   0.0800000
        k(    8) = (   0.0000000   0.0000000   0.0076785), wk =   0.0800000
        k(    9) = (   0.0000000   0.0000000   0.0087754), wk =   0.0800000
        k(   10) = (   0.0000000   0.0000000   0.0098723), wk =   0.0800000
        k(   11) = (   0.0000000   0.0000000   0.0109692), wk =   0.0800000
        k(   12) = (   0.0000000   0.0000000   0.0120662), wk =   0.0800000
        k(   13) = (   0.0000000   0.0000000   0.0131631), wk =   0.0800000
        k(   14) = (   0.0000000   0.0000000   0.0142600), wk =   0.0800000
        k(   15) = (   0.0000000   0.0000000   0.0153569), wk =   0.0800000
        k(   16) = (   0.0000000   0.0000000   0.0164539), wk =   0.0800000
        k(   17) = (   0.0000000   0.0000000   0.0175508), wk =   0.0800000
        k(   18) = (   0.0000000   0.0000000   0.0186477), wk =   0.0800000
        k(   19) = (   0.0000000   0.0000000   0.0197446), wk =   0.0800000
        k(   20) = (   0.0000000   0.0000000   0.0208416), wk =   0.0800000
        k(   21) = (   0.0000000   0.0000000   0.0219385), wk =   0.0800000
        k(   22) = (   0.0000000   0.0000000   0.0230354), wk =   0.0800000
        k(   23) = (   0.0000000   0.0000000   0.0241323), wk =   0.0800000
        k(   24) = (   0.0000000   0.0000000   0.0252293), wk =   0.0800000
        k(   25) = (   0.0000000   0.0000000   0.0263262), wk =   0.0800000
        k(   26) = (   0.0000000   0.0000000  -0.0274231), wk =   0.0400000

     Dense  grid:  6404317 G-vectors     FFT dimensions: ( 135, 400, 243)

     Smooth grid:  1232257 G-vectors     FFT dimensions: (  80, 225, 144)

     Estimated max dynamical RAM per process >       1.34 GB

     Estimated total dynamical RAM >      21.48 GB

     The potential is recalculated from file :
     /home/zfwang/scratch/GNRDATASET/AGNR/V9_7/V9_7.save/charge-density.dat


     negative rho (up, down):  3.043E-04 0.000E+00
     Starting wfcs are  360 randomized atomic wfcs +  140 random wfcs

     Band Structure Calculation
     Davidson diagonalization with overlap

     ethr =  2.78E-09,  avg # of iterations = 40.4

     total cpu time spent up to now is    10410.2 secs

     End of band structure calculation

          k = 0.0000 0.0000 0.0000 (153997 PWs)   bands (ev):

   -21.2291 -21.1378 -20.9161 -20.7432 -20.6239 -20.4553 -20.2257 -20.0969
   -20.0034 -19.8072 -19.7597 -19.6239 -19.4907 -19.3532 -18.9899 -18.9118
   -18.8568 -18.5601 -18.4127 -18.3638 -18.3199 -18.2162 -18.0457 -17.8536
   -17.7615 -17.6713 -17.4657 -17.3092 -17.0513 -17.0479 -16.9909 -16.9174
   -16.8145 -16.7543 -16.5923 -16.4800 -16.2172 -16.2008 -16.0842 -15.9865
   -15.6739 -15.4078 -14.9566 -14.8911 -14.7799 -14.6046 -14.6036 -14.5783
   -14.2335 -14.2023 -14.1804 -14.1788 -13.9826 -13.8285 -13.7155 -13.6862
   -13.4309 -13.1696 -13.1132 -12.9273 -12.9106 -12.8673 -12.6060 -12.4018
   -12.3076 -12.2058 -12.0117 -11.9638 -11.9467 -11.6940 -11.5888 -11.3695
   -11.3594 -11.2630 -11.1394 -11.0710 -11.0262 -10.9244 -10.7289 -10.7246
   -10.6031 -10.5923 -10.4906 -10.3004 -10.0634 -10.0298 -10.0212  -9.9378
    -9.9002  -9.8720  -9.6445  -9.5089  -9.4850  -9.3626  -9.3495  -9.3038
    -9.3011  -9.2793  -9.2180  -9.1824  -9.0378  -9.0270  -9.0267  -8.9878
    -8.9575  -8.9135  -8.8702  -8.7894  -8.7756  -8.7000  -8.6805  -8.6103
    -8.5684  -8.5373  -8.4867  -8.4850  -8.4660  -8.3011  -8.1937  -8.1826
    -8.1510  -8.0775  -8.0593  -7.9445  -7.9177  -7.8600  -7.7659  -7.7533
    -7.6672  -7.6391  -7.6385  -7.6114  -7.5387  -7.3518  -7.3474  -7.3177
    -7.3092  -7.2973  -7.1459  -7.1418  -7.0872  -6.9922  -6.9131  -6.8458
    -6.8040  -6.7296  -6.7098  -6.7021  -6.6020  -6.4689  -6.2950  -6.2695
    -6.1020  -6.0812  -6.0454  -6.0429  -6.0348  -5.9694  -5.9076  -5.8115
    -5.6275  -5.5758  -5.4736  -5.3805  -5.1894  -5.1568  -4.9332  -4.8997
    -4.7889  -4.7316  -4.6136  -4.4926  -4.4768  -4.4096  -4.1447  -3.9062
    -3.7299  -3.7134  -3.3385  -3.0187  -1.6958  -1.4127  -1.3289  -1.0588
    -0.7579  -0.7462  -0.5296  -0.4421  -0.3748  -0.2988  -0.0864  -0.0175
     0.0189   0.0293   0.3574   0.5213   0.5957   0.7009   0.7433   0.7577
     0.7819   0.8975   0.9616   1.0389   1.1516   1.1757   1.2137   1.3619
     1.4817   1.4823   1.4876   1.5044   1.5777   1.6231   1.6771   1.7887
     1.8287   1.8564   1.8695   1.9331   1.9685   2.1161   2.1503   2.2249
     2.2490   2.2886   2.3093   2.3578   2.4547   2.5156   2.5273   2.5421
     2.5887   2.6204   2.6209   2.6382   2.6399   2.6603   2.6627   2.6812
     2.7442   2.7844   2.8444   2.9079   2.9229   2.9241   2.9406   2.9524
     2.9650   3.0140   3.0406   3.0925   3.1227   3.1247   3.1296   3.1448
     3.2599   3.3366   3.3521   3.3678   3.3827   3.3965   3.4684   3.4961
     3.5146   3.5291   3.5379   3.5617   3.5763   3.5892   3.6002   3.7568
     3.7888   3.8065   3.8267   3.8509   3.8588   3.8684   3.8934   3.9281
     3.9307   3.9466   4.0076   4.0462   4.0520   4.0852   4.1054   4.1072
     4.1108   4.1317   4.1491   4.1964   4.2197   4.2447   4.2646   4.2821
     4.3076   4.3145   4.3404   4.3629   4.3657   4.3716   4.4118   4.4378
     4.4656   4.4819   4.4888   4.5279   4.6121   4.6306   4.6549   4.6692
     4.6872   4.7175   4.7281   4.7670   4.7872   4.8023   4.8559   4.8787
     4.8833   4.8906   4.8949   4.8952   4.9905   5.0114   5.0214   5.0526
     5.0739   5.0803   5.1015   5.1228   5.1247   5.1607   5.1663   5.1733
     5.1794   5.2497   5.2497   5.2512   5.2971   5.3625   5.3662   5.3699
     5.4102   5.4287   5.4425   5.4441   5.4736   5.4808   5.5233   5.5241
     5.5275   5.5735   5.5852   5.6198   5.6200   5.6308   5.6424   5.6546
     5.6577   5.6791   5.6889   5.7576   5.7820   5.7886   5.7910   5.8021
     5.8367   5.8738   5.8990   5.9004   5.9314   5.9558   5.9658   5.9900
     6.0105   6.0110   6.0715   6.0965   6.1070   6.1213   6.1402   6.1604
     6.1856   6.2089   6.2339   6.2391   6.2506   6.2569   6.2693   6.3007
     6.3080   6.3109   6.3466   6.3544   6.3987   6.4283   6.4340   6.4551
     6.4557   6.4661   6.4780   6.5479   6.5543   6.5854   6.5865   6.5866
     6.6074   6.6210   6.6265   6.6300   6.6512   6.6520   6.6830   6.7192
     6.7234   6.7371   6.7425   6.7778   6.7975   6.8262   6.8614   6.8759
     6.8774   6.9212   6.9279   6.9281   6.9332   6.9644   6.9888   6.9897
     6.9916   7.0118   7.0147   7.0371   7.0602   7.0636   7.0767   7.1441
     7.1511   7.1744   7.2088   7.2324   7.2357   7.2409   7.2519   7.2639
     7.3001   7.3204   7.3610   7.3718   7.3756   7.3922   7.4008   7.4169
     7.4868   7.5020   7.5054   7.5124   7.5258   7.5584   7.5873   7.5966
     7.5970   7.6367   7.6463   7.6701   7.6717   7.6862   7.6956   7.7258
     7.7311   7.7396   7.7467   7.7646   7.7659   7.7878   7.8072   7.8397
     7.8478   7.8734   7.9017   7.9065   7.9165   7.9253   7.9506   7.9858
     8.0000   8.0197   8.0210   8.0317   8.0636   8.0872   8.1119   8.1228
     8.1260   8.1646   8.1689   8.1732

          k = 0.0000 0.0000 0.0011 (153987 PWs)   bands (ev):

   -21.2290 -21.1380 -20.9159 -20.7435 -20.6236 -20.4554 -20.2257 -20.0967
   -20.0039 -19.8079 -19.7593 -19.6231 -19.4910 -19.3532 -18.9898 -18.9124
   -18.8559 -18.5605 -18.4123 -18.3639 -18.3206 -18.2154 -18.0471 -17.8535
   -17.7606 -17.6712 -17.4654 -17.3092 -17.0509 -17.0482 -16.9922 -16.9163
   -16.8145 -16.7547 -16.5918 -16.4800 -16.2173 -16.2009 -16.0844 -15.9870
   -15.6737 -15.4080 -14.9557 -14.8909 -14.7802 -14.6050 -14.6041 -14.5774
   -14.2335 -14.2069 -14.1788 -14.1752 -13.9825 -13.8289 -13.7163 -13.6856
   -13.4320 -13.1717 -13.1123 -12.9340 -12.9108 -12.8582 -12.6068 -12.4010
   -12.3072 -12.2055 -12.0147 -11.9640 -11.9434 -11.6944 -11.5890 -11.3701
   -11.3583 -11.2632 -11.1414 -11.0746 -11.0216 -10.9253 -10.7290 -10.7239
   -10.6023 -10.5922 -10.4907 -10.3007 -10.0650 -10.0299 -10.0218  -9.9370
    -9.9079  -9.8616  -9.6452  -9.5113  -9.4824  -9.3642  -9.3494  -9.3052
    -9.2998  -9.2780  -9.2182  -9.1838  -9.0407  -9.0297  -9.0229  -8.9875
    -8.9537  -8.9159  -8.8683  -8.7897  -8.7760  -8.7000  -8.6799  -8.6100
    -8.5690  -8.5376  -8.4862  -8.4847  -8.4660  -8.3012  -8.1936  -8.1827
    -8.1513  -8.0782  -8.0587  -7.9451  -7.9171  -7.8598  -7.7656  -7.7533
    -7.6671  -7.6460  -7.6324  -7.6123  -7.5372  -7.3543  -7.3477  -7.3179
    -7.3091  -7.2955  -7.1522  -7.1357  -7.0875  -6.9912  -6.9131  -6.8456
    -6.8039  -6.7315  -6.7076  -6.7023  -6.6020  -6.4686  -6.2967  -6.2681
    -6.1021  -6.0853  -6.0428  -6.0414  -6.0357  -5.9682  -5.9087  -5.8116
    -5.6277  -5.5757  -5.4731  -5.3803  -5.1895  -5.1564  -4.9337  -4.8999
    -4.7886  -4.7315  -4.6136  -4.4929  -4.4767  -4.4095  -4.1446  -3.9069
    -3.7298  -3.7127  -3.3385  -3.0192  -1.6953  -1.4120  -1.3292  -1.0588
    -0.7579  -0.7462  -0.5296  -0.4431  -0.3749  -0.2977  -0.0871  -0.0174
     0.0192   0.0290   0.3561   0.5203   0.5948   0.7010   0.7434   0.7576
     0.7827   0.9010   0.9615   1.0378   1.1527   1.1738   1.2159   1.3611
     1.4756   1.4764   1.4942   1.5108   1.5775   1.6232   1.6768   1.7880
     1.8293   1.8496   1.8766   1.9340   1.9684   2.1158   2.1500   2.2237
     2.2492   2.2887   2.3106   2.3582   2.4538   2.5139   2.5272   2.5417
     2.5864   2.6109   2.6277   2.6373   2.6424   2.6621   2.6629   2.6825
     2.7433   2.7832   2.8410   2.9092   2.9212   2.9237   2.9393   2.9559
     2.9696   3.0135   3.0423   3.0925   3.1142   3.1229   3.1311   3.1555
     3.2607   3.3366   3.3432   3.3707   3.3768   3.4087   3.4680   3.4965
     3.5076   3.5293   3.5348   3.5690   3.5753   3.5933   3.6008   3.7506
     3.7947   3.8048   3.8251   3.8504   3.8590   3.8685   3.8937   3.9285
     3.9300   3.9472   4.0079   4.0455   4.0468   4.0847   4.0991   4.1005
     4.1147   4.1377   4.1501   4.2040   4.2223   4.2422   4.2677   4.2823
     4.3090   4.3093   4.3305   4.3671   4.3731   4.3759   4.4024   4.4290
     4.4763   4.4784   4.5024   4.5232   4.6135   4.6332   4.6556   4.6694
     4.6712   4.7114   4.7444   4.7706   4.7876   4.8001   4.8533   4.8555
     4.8816   4.8908   4.8972   4.9193   4.9866   5.0098   5.0201   5.0528
     5.0690   5.0750   5.0999   5.1261   5.1318   5.1551   5.1609   5.1723
     5.1979   5.2399   5.2533   5.2543   5.3023   5.3624   5.3648   5.3667
     5.4076   5.4247   5.4433   5.4504   5.4746   5.4780   5.5240   5.5262
     5.5270   5.5596   5.5896   5.6169   5.6199   5.6367   5.6431   5.6559
     5.6581   5.6808   5.6909   5.7561   5.7741   5.7848   5.8013   5.8016
     5.8424   5.8763   5.9009   5.9013   5.9311   5.9520   5.9669   5.9865
     6.0111   6.0172   6.0698   6.0991   6.1030   6.1198   6.1372   6.1424
     6.1860   6.2304   6.2342   6.2395   6.2494   6.2527   6.2705   6.3020
     6.3053   6.3129   6.3410   6.3539   6.4039   6.4225   6.4346   6.4350
     6.4621   6.4735   6.4847   6.5483   6.5549   6.5834   6.5876   6.5912
     6.6046   6.6171   6.6282   6.6352   6.6499   6.6550   6.6835   6.7200
     6.7203   6.7381   6.7403   6.7808   6.7982   6.8246   6.8563   6.8572
     6.8961   6.9187   6.9213   6.9383   6.9390   6.9659   6.9788   6.9904
     6.9915   7.0117   7.0253   7.0330   7.0626   7.0671   7.0725   7.1410
     7.1457   7.1771   7.2162   7.2241   7.2403   7.2517   7.2525   7.2623
     7.2954   7.3254   7.3522   7.3580   7.3933   7.3937   7.4064   7.4172
     7.4789   7.4993   7.5046   7.5241   7.5248   7.5573   7.5879   7.5941
     7.5949   7.6343   7.6429   7.6591   7.6725   7.6881   7.7052   7.7159
     7.7298   7.7401   7.7482   7.7623   7.7679   7.7937   7.8056   7.8244
     7.8676   7.8750   7.8937   7.9108   7.9201   7.9238   7.9416   7.9847
     7.9985   8.0211   8.0301   8.0308   8.0559   8.0864   8.1162   8.1235
     8.1293   8.1553   8.1766   8.1874

          k = 0.0000 0.0000 0.0022 (153977 PWs)   bands (ev):

   -21.2288 -21.1384 -20.9154 -20.7444 -20.6227 -20.4557 -20.2255 -20.0959
   -20.0053 -19.8099 -19.7580 -19.6210 -19.4919 -19.3533 -18.9896 -18.9142
   -18.8535 -18.5617 -18.4112 -18.3641 -18.3224 -18.2131 -18.0509 -17.8536
   -17.7578 -17.6708 -17.4644 -17.3092 -17.0499 -17.0493 -16.9961 -16.9132
   -16.8142 -16.7560 -16.5903 -16.4799 -16.2178 -16.2013 -16.0848 -15.9883
   -15.6731 -15.4087 -14.9530 -14.8902 -14.7809 -14.6085 -14.6026 -14.5752
   -14.2335 -14.2153 -14.1786 -14.1648 -13.9821 -13.8302 -13.7185 -13.6840
   -13.4351 -13.1780 -13.1099 -12.9473 -12.9114 -12.8380 -12.6090 -12.3987
   -12.3059 -12.2046 -12.0225 -11.9647 -11.9350 -11.6953 -11.5896 -11.3714
   -11.3555 -11.2637 -11.1476 -11.0824 -11.0107 -10.9280 -10.7293 -10.7219
   -10.5999 -10.5919 -10.4909 -10.3014 -10.0696 -10.0303 -10.0244  -9.9345
    -9.9186  -9.8421  -9.6474  -9.5167  -9.4761  -9.3688  -9.3491  -9.3088
    -9.2961  -9.2748  -9.2189  -9.1878  -9.0456  -9.0364  -9.0157  -8.9867
    -8.9437  -8.9222  -8.8636  -8.7906  -8.7769  -8.6999  -8.6781  -8.6091
    -8.5708  -8.5385  -8.4847  -8.4838  -8.4660  -8.3018  -8.1934  -8.1828
    -8.1522  -8.0802  -8.0570  -7.9467  -7.9152  -7.8592  -7.7651  -7.7534
    -7.6667  -7.6542  -7.6267  -7.6150  -7.5329  -7.3608  -7.3484  -7.3185
    -7.3088  -7.2909  -7.1602  -7.1283  -7.0883  -6.9882  -6.9133  -6.8452
    -6.8036  -6.7355  -6.7030  -6.7025  -6.6019  -6.4675  -6.3010  -6.2646
    -6.1023  -6.0946  -6.0425  -6.0382  -6.0323  -5.9648  -5.9117  -5.8121
    -5.6283  -5.5754  -5.4715  -5.3799  -5.1899  -5.1550  -4.9353  -4.9003
    -4.7877  -4.7312  -4.6135  -4.4938  -4.4764  -4.4092  -4.1442  -3.9090
    -3.7296  -3.7109  -3.3388  -3.0205  -1.6940  -1.4097  -1.3302  -1.0586
    -0.7578  -0.7462  -0.5298  -0.4457  -0.3754  -0.2946  -0.0893  -0.0169
     0.0202   0.0281   0.3523   0.5171   0.5926   0.7014   0.7437   0.7573
     0.7853   0.9111   0.9612   1.0346   1.1559   1.1689   1.2216   1.3585
     1.4633   1.4705   1.5041   1.5223   1.5768   1.6233   1.6760   1.7860
     1.8313   1.8389   1.8879   1.9367   1.9680   2.1149   2.1490   2.2204
     2.2499   2.2891   2.3143   2.3594   2.4512   2.5088   2.5267   2.5404
     2.5809   2.5995   2.6316   2.6348   2.6486   2.6603   2.6699   2.6860
     2.7408   2.7798   2.8319   2.9132   2.9152   2.9264   2.9355   2.9640
     2.9818   3.0128   3.0465   3.0927   3.0976   3.1235   3.1356   3.1723
     3.2629   3.3298   3.3366   3.3539   3.3904   3.4259   3.4665   3.4939
     3.4976   3.5281   3.5300   3.5724   3.5816   3.6036   3.6049   3.7381
     3.7998   3.8061   3.8205   3.8489   3.8595   3.8687   3.8944   3.9279
     3.9296   3.9485   4.0087   4.0350   4.0434   4.0815   4.0852   4.0903
     4.1188   4.1522   4.1529   4.2222   4.2291   4.2376   4.2743   4.2828
     4.2969   4.3133   4.3144   4.3706   4.3826   4.3856   4.3899   4.4158
     4.4764   4.4956   4.5105   4.5269   4.6175   4.6378   4.6446   4.6585
     4.6701   4.6983   4.7721   4.7761   4.7890   4.7940   4.8268   4.8467
     4.8777   4.8910   4.9030   4.9505   4.9765   5.0056   5.0134   5.0531
     5.0561   5.0693   5.0949   5.1299   5.1423   5.1497   5.1613   5.1803
     5.2165   5.2242   5.2547   5.2670   5.3141   5.3573   5.3608   5.3622
     5.4022   5.4203   5.4403   5.4658   5.4700   5.4760   5.5239   5.5259
     5.5344   5.5347   5.5978   5.6098   5.6197   5.6223   5.6580   5.6597
     5.6673   5.6856   5.6946   5.7519   5.7585   5.7930   5.8030   5.8058
     5.8524   5.8852   5.9052   5.9055   5.9300   5.9419   5.9701   5.9855
     6.0112   6.0274   6.0651   6.0917   6.0988   6.1065   6.1154   6.1483
     6.1872   6.2351   6.2397   6.2447   6.2472   6.2630   6.2705   6.3007
     6.3060   6.3147   6.3286   6.3501   6.4119   6.4126   6.4157   6.4371
     6.4625   6.4750   6.5024   6.5491   6.5571   6.5780   6.5897   6.5991
     6.6030   6.6116   6.6322   6.6447   6.6450   6.6648   6.6854   6.7120
     6.7223   6.7341   6.7412   6.7876   6.8004   6.8199   6.8387   6.8449
     6.9102   6.9167   6.9198   6.9494   6.9515   6.9623   6.9699   6.9913
     6.9952   7.0113   7.0248   7.0389   7.0672   7.0689   7.0722   7.1236
     7.1496   7.1741   7.2244   7.2355   7.2388   7.2540   7.2563   7.2734
     7.2883   7.3334   7.3346   7.3531   7.3983   7.4040   7.4181   7.4187
     7.4729   7.4917   7.5035   7.5192   7.5454   7.5544   7.5866   7.5882
     7.5894   7.6281   7.6350   7.6408   7.6786   7.6888   7.7008   7.7172
     7.7268   7.7276   7.7553   7.7566   7.7663   7.8040   7.8097   7.8183
     7.8697   7.8882   7.8888   7.9203   7.9205   7.9223   7.9300   7.9753
     7.9909   8.0212   8.0282   8.0497   8.0536   8.0832   8.1241   8.1245
     8.1400   8.1410   8.2015   8.2029

          k = 0.0000 0.0000 0.0033 (153985 PWs)   bands (ev):

   -21.2285 -21.1391 -20.9146 -20.7458 -20.6212 -20.4563 -20.2252 -20.0945
   -20.0075 -19.8131 -19.7558 -19.6175 -19.4934 -19.3535 -18.9893 -18.9168
   -18.8497 -18.5636 -18.4095 -18.3645 -18.3253 -18.2094 -18.0571 -17.8539
   -17.7532 -17.6701 -17.4627 -17.3092 -17.0512 -17.0481 -17.0019 -16.9088
   -16.8138 -16.7580 -16.5879 -16.4798 -16.2184 -16.2019 -16.0854 -15.9905
   -15.6721 -15.4097 -14.9486 -14.8892 -14.7821 -14.6135 -14.6003 -14.5725
   -14.2335 -14.2241 -14.1782 -14.1528 -13.9814 -13.8322 -13.7217 -13.6817
   -13.4403 -13.1879 -13.1064 -12.9603 -12.9123 -12.8134 -12.6127 -12.3949
   -12.3037 -12.2031 -12.0327 -11.9657 -11.9237 -11.6971 -11.5903 -11.3728
   -11.3517 -11.2646 -11.1576 -11.0911 -10.9973 -10.9323 -10.7297 -10.7187
   -10.5959 -10.5914 -10.4911 -10.3028 -10.0769 -10.0307 -10.0298  -9.9307
    -9.9253  -9.8204  -9.6509  -9.5234  -9.4681  -9.3755  -9.3487  -9.3135
    -9.2910  -9.2708  -9.2199  -9.1943  -9.0503  -9.0448  -9.0073  -8.9855
    -8.9308  -8.9300  -8.8577  -8.7920  -8.7784  -8.6997  -8.6752  -8.6075
    -8.5737  -8.5400  -8.4825  -8.4822  -8.4661  -8.3027  -8.1931  -8.1830
    -8.1535  -8.0835  -8.0543  -7.9495  -7.9121  -7.8583  -7.7641  -7.7537
    -7.6661  -7.6631  -7.6214  -7.6196  -7.5263  -7.3699  -7.3496  -7.3194
    -7.3084  -7.2851  -7.1684  -7.1211  -7.0897  -6.9833  -6.9135  -6.8445
    -6.8031  -6.7402  -6.7042  -6.6960  -6.6019  -6.4657  -6.3066  -6.2602
    -6.1058  -6.1027  -6.0419  -6.0419  -6.0214  -5.9596  -5.9167  -5.8129
    -5.6292  -5.5752  -5.4687  -5.3793  -5.1905  -5.1529  -4.9379  -4.9010
    -4.7863  -4.7308  -4.6133  -4.4952  -4.4758  -4.4086  -4.1436  -3.9125
    -3.7293  -3.7080  -3.3392  -3.0228  -1.6919  -1.4059  -1.3318  -1.0584
    -0.7576  -0.7462  -0.5300  -0.4498  -0.3761  -0.2896  -0.0930  -0.0161
     0.0218   0.0266   0.3460   0.5113   0.5902   0.7021   0.7443   0.7568
     0.7896   0.9269   0.9608   1.0296   1.1608   1.1627   1.2291   1.3543
     1.4496   1.4661   1.5149   1.5345   1.5757   1.6237   1.6748   1.7827
     1.8282   1.8344   1.8999   1.9409   1.9674   2.1135   2.1471   2.2156
     2.2510   2.2898   2.3197   2.3613   2.4470   2.5010   2.5259   2.5373
     2.5750   2.5873   2.6306   2.6333   2.6565   2.6575   2.6796   2.6911
     2.7372   2.7745   2.8198   2.9087   2.9196   2.9297   2.9310   2.9738
     2.9987   3.0129   3.0519   3.0806   3.0934   3.1245   3.1429   3.1898
     3.2659   3.3167   3.3370   3.3370   3.4039   3.4434   3.4635   3.4798
     3.4993   3.5211   3.5314   3.5678   3.5866   3.6169   3.6189   3.7239
     3.7925   3.8134   3.8182   3.8466   3.8598   3.8694   3.8955   3.9240
     3.9305   3.9496   4.0102   4.0221   4.0403   4.0673   4.0707   4.0864
     4.1224   4.1572   4.1698   4.2333   4.2378   4.2449   4.2815   4.2815
     4.2837   4.2982   4.3209   4.3575   4.3797   4.3947   4.4072   4.4073
     4.4752   4.4927   4.5167   4.5552   4.6174   4.6237   4.6377   4.6655
     4.6714   4.6854   4.7784   4.7843   4.7892   4.7997   4.8010   4.8379
     4.8743   4.8902   4.9108   4.9629   4.9825   5.0000   5.0004   5.0393
     5.0538   5.0678   5.0888   5.1337   5.1352   5.1619   5.1660   5.1895
     5.2086   5.2299   5.2538   5.2922   5.3283   5.3427   5.3547   5.3619
     5.3976   5.4185   5.4343   5.4583   5.4757   5.4835   5.5077   5.5239
     5.5256   5.5459   5.6013   5.6028   5.6087   5.6194   5.6585   5.6625
     5.6919   5.6939   5.6978   5.7466   5.7467   5.8027   5.8056   5.8092
     5.8579   5.8999   5.9087   5.9110   5.9284   5.9362   5.9750   5.9892
     6.0111   6.0357   6.0581   6.0587   6.0745   6.1085   6.1175   6.1569
     6.1894   6.2356   6.2365   6.2366   6.2481   6.2677   6.2912   6.2941
     6.3101   6.3119   6.3205   6.3356   6.4033   6.4033   6.4292   6.4379
     6.4496   6.4863   6.5130   6.5498   6.5618   6.5699   6.5923   6.5939
     6.6073   6.6159   6.6374   6.6403   6.6586   6.6778   6.6896   6.7028
     6.7233   6.7239   6.7458   6.7944   6.8023   6.8124   6.8235   6.8330
     6.9027   6.9216   6.9329   6.9414   6.9603   6.9701   6.9747   6.9923
     7.0031   7.0112   7.0166   7.0397   7.0707   7.0771   7.0774   7.1105
     7.1547   7.1651   7.2301   7.2369   7.2450   7.2564   7.2616   7.2840
     7.2927   7.3236   7.3437   7.3508   7.4018   7.4058   7.4195   7.4320
     7.4743   7.4811   7.5063   7.5119   7.5507   7.5624   7.5734   7.5796
     7.5906   7.6212   7.6252   7.6283   7.6747   7.6808   7.6910   7.7215
     7.7228   7.7262   7.7493   7.7503   7.7610   7.8090   7.8238   7.8320
     7.8521   7.8976   7.8980   7.9122   7.9170   7.9240   7.9376   7.9640
     7.9831   8.0213   8.0240   8.0555   8.0627   8.0925   8.1232   8.1291
     8.1337   8.1587   8.2092   8.2128

          k = 0.0000 0.0000 0.0044 (153999 PWs)   bands (ev):

   -21.2280 -21.1400 -20.9134 -20.7478 -20.6191 -20.4571 -20.2248 -20.0927
   -20.0106 -19.8174 -19.7529 -19.6127 -19.4954 -19.3539 -18.9888 -18.9201
   -18.8449 -18.5661 -18.4071 -18.3651 -18.3290 -18.2046 -18.0652 -17.8549
   -17.7467 -17.6691 -17.4604 -17.3092 -17.0537 -17.0457 -17.0091 -16.9034
   -16.8133 -16.7607 -16.5846 -16.4797 -16.2194 -16.2027 -16.0863 -15.9936
   -15.6707 -15.4112 -14.9425 -14.8877 -14.7836 -14.6192 -14.5972 -14.5700
   -14.2334 -14.2323 -14.1778 -14.1401 -13.9805 -13.8352 -13.7257 -13.6789
   -13.4473 -13.2011 -13.1023 -12.9708 -12.9137 -12.7868 -12.6176 -12.3898
   -12.3007 -12.2010 -12.0440 -11.9672 -11.9108 -11.6996 -11.5910 -11.3741
   -11.3473 -11.2659 -11.1709 -11.0996 -10.9829 -10.9377 -10.7304 -10.7146
   -10.5909 -10.5907 -10.4911 -10.3047 -10.0864 -10.0381 -10.0310  -9.9268
    -9.9255  -9.7978  -9.6555  -9.5307  -9.4591  -9.3836  -9.3480  -9.3185
    -9.2851  -9.2666  -9.2214  -9.2028  -9.0547  -9.0533  -8.9984  -8.9838
    -8.9404  -8.9142  -8.8518  -8.7938  -8.7804  -8.6994  -8.6711  -8.6054
    -8.5775  -8.5420  -8.4809  -8.4789  -8.4662  -8.3039  -8.1926  -8.1833
    -8.1551  -8.0878  -8.0507  -7.9532  -7.9081  -7.8571  -7.7627  -7.7541
    -7.6727  -7.6652  -7.6258  -7.6162  -7.5177  -7.3803  -7.3513  -7.3207
    -7.3078  -7.2792  -7.1764  -7.1143  -7.0916  -6.9766  -6.9138  -6.8435
    -6.8025  -6.7449  -6.7059  -6.6888  -6.6018  -6.4632  -6.3131  -6.2555
    -6.1177  -6.1032  -6.0464  -6.0411  -6.0100  -5.9532  -5.9233  -5.8140
    -5.6306  -5.5753  -5.4646  -5.3784  -5.1913  -5.1499  -4.9414  -4.9020
    -4.7843  -4.7302  -4.6131  -4.4972  -4.4751  -4.4078  -4.1427  -3.9172
    -3.7289  -3.7041  -3.3396  -3.0260  -1.6889  -1.4006  -1.3340  -1.0581
    -0.7574  -0.7463  -0.5303  -0.4551  -0.3772  -0.2831  -0.0982  -0.0150
     0.0241   0.0246   0.3377   0.5026   0.5887   0.7030   0.7450   0.7562
     0.7956   0.9474   0.9601   1.0233   1.1560   1.1671   1.2376   1.3487
     1.4354   1.4633   1.5263   1.5466   1.5742   1.6242   1.6735   1.7786
     1.8177   1.8383   1.9121   1.9465   1.9668   2.1117   2.1444   2.2102
     2.2525   2.2907   2.3263   2.3636   2.4414   2.4911   2.5247   2.5314
     2.5709   2.5745   2.6248   2.6337   2.6537   2.6649   2.6907   2.6969
     2.7326   2.7675   2.8067   2.9026   2.9223   2.9278   2.9371   2.9841
     3.0145   3.0181   3.0577   3.0638   3.0947   3.1258   3.1528   3.2072
     3.2685   3.3046   3.3202   3.3386   3.4163   3.4583   3.4606   3.4675
     3.5014   3.5160   3.5340   3.5619   3.5854   3.6317   3.6396   3.7092
     3.7838   3.8039   3.8289   3.8436   3.8596   3.8715   3.8969   3.9178
     3.9307   3.9492   4.0114   4.0121   4.0364   4.0501   4.0564   4.0847
     4.1261   4.1624   4.1873   4.2296   4.2465   4.2656   4.2672   4.2848
     4.2849   4.2880   4.3318   4.3359   4.3894   4.3916   4.4150   4.4235
     4.4716   4.4740   4.5380   4.5850   4.5921   4.6289   4.6308   4.6713
     4.6732   4.6810   4.7719   4.7760   4.7783   4.7834   4.8276   4.8292
     4.8747   4.8870   4.9204   4.9474   4.9847   4.9938   5.0147   5.0226
     5.0547   5.0638   5.0872   5.1277   5.1416   5.1626   5.1655   5.1952
     5.2076   5.2442   5.2525   5.3147   5.3326   5.3431   5.3468   5.3616
     5.3958   5.4192   5.4248   5.4437   5.4736   5.4811   5.5004   5.5244
     5.5268   5.5582   5.5807   5.5933   5.6191   5.6213   5.6564   5.6667
     5.6979   5.7001   5.7201   5.7416   5.7421   5.7956   5.8180   5.8215
     5.8583   5.8999   5.9146   5.9186   5.9267   5.9498   5.9811   5.9958
     6.0109   6.0169   6.0422   6.0514   6.0533   6.0999   6.1292   6.1669
     6.1930   6.2279   6.2300   6.2388   6.2517   6.2636   6.2818   6.3000
     6.3007   6.3184   6.3197   6.3209   6.3959   6.4135   6.4332   6.4348
     6.4467   6.4921   6.5157   6.5510   6.5604   6.5698   6.5903   6.5942
     6.6050   6.6192   6.6433   6.6454   6.6767   6.6903   6.6966   6.6967
     6.7105   6.7231   6.7498   6.7932   6.8021   6.8034   6.8190   6.8240
     6.8958   6.9174   6.9301   6.9463   6.9664   6.9771   6.9876   6.9965
     7.0106   7.0132   7.0137   7.0374   7.0596   7.0849   7.0971   7.1035
     7.1566   7.1612   7.2256   7.2367   7.2396   7.2595   7.2833   7.2897
     7.2974   7.3342   7.3498   7.3542   7.3937   7.4159   7.4206   7.4399
     7.4704   7.4721   7.5070   7.5174   7.5468   7.5514   7.5576   7.5874
     7.5907   7.6148   7.6185   7.6227   7.6446   7.6649   7.7002   7.7185
     7.7223   7.7321   7.7330   7.7454   7.7585   7.8164   7.8326   7.8352
     7.8570   7.8961   7.8992   7.9092   7.9118   7.9173   7.9532   7.9562
     7.9893   8.0184   8.0213   8.0517   8.0678   8.1106   8.1211   8.1246
     8.1440   8.1805   8.1826   8.1869

          k = 0.0000 0.0000 0.0055 (154037 PWs)   bands (ev):

   -21.2275 -21.1412 -20.9119 -20.7502 -20.6165 -20.4581 -20.2242 -20.0903
   -20.0145 -19.8226 -19.7493 -19.6070 -19.4979 -19.3543 -18.9882 -18.9236
   -18.8394 -18.5693 -18.4041 -18.3658 -18.3333 -18.1988 -18.0748 -17.8568
   -17.7386 -17.6679 -17.4576 -17.3090 -17.0571 -17.0427 -17.0174 -16.8976
   -16.8126 -16.7640 -16.5806 -16.4796 -16.2205 -16.2038 -16.0875 -15.9975
   -15.6688 -15.4130 -14.9349 -14.8858 -14.7853 -14.6255 -14.5934 -14.5679
   -14.2397 -14.2333 -14.1772 -14.1269 -13.9793 -13.8389 -13.7302 -13.6758
   -13.4561 -13.2171 -13.0978 -12.9779 -12.9153 -12.7592 -12.6236 -12.3836
   -12.2971 -12.1982 -12.0556 -11.9690 -11.8971 -11.7032 -11.5914 -11.3751
   -11.3425 -11.2675 -11.1867 -11.1080 -10.9680 -10.9440 -10.7314 -10.7099
   -10.5901 -10.5847 -10.4906 -10.3072 -10.0985 -10.0478 -10.0310  -9.9239
    -9.9194  -9.7750  -9.6609  -9.5385  -9.4496  -9.3926  -9.3472  -9.3235
    -9.2789  -9.2626  -9.2233  -9.2131  -9.0610  -9.0588  -8.9894  -8.9816
    -8.9504  -8.8972  -8.8465  -8.7958  -8.7830  -8.6990  -8.6660  -8.6028
    -8.5819  -8.5443  -8.4793  -8.4747  -8.4663  -8.3054  -8.1920  -8.1839
    -8.1570  -8.0930  -8.0463  -7.9580  -7.9033  -7.8554  -7.7610  -7.7548
    -7.6827  -7.6641  -7.6336  -7.6110  -7.5078  -7.3913  -7.3535  -7.3221
    -7.3072  -7.2740  -7.1842  -7.1077  -7.0940  -6.9683  -6.9142  -6.8422
    -6.8016  -6.7493  -6.7079  -6.6811  -6.6019  -6.4601  -6.3201  -6.2508
    -6.1299  -6.1038  -6.0511  -6.0401  -5.9986  -5.9457  -5.9314  -5.8153
    -5.6323  -5.5761  -5.4591  -5.3772  -5.1923  -5.1462  -4.9457  -4.9033
    -4.7820  -4.7294  -4.6128  -4.4996  -4.4741  -4.4070  -4.1416  -3.9228
    -3.7284  -3.6996  -3.3401  -3.0300  -1.6852  -1.3939  -1.3369  -1.0577
    -0.7571  -0.7465  -0.5308  -0.4613  -0.3785  -0.2755  -0.1050  -0.0135
     0.0221   0.0270   0.3276   0.4913   0.5885   0.7042   0.7459   0.7553
     0.8032   0.9592   0.9715   1.0160   1.1495   1.1743   1.2466   1.3419
     1.4209   1.4623   1.5381   1.5583   1.5721   1.6248   1.6721   1.7737
     1.8077   1.8426   1.9244   1.9532   1.9662   2.1095   2.1405   2.2047
     2.2544   2.2918   2.3335   2.3659   2.4344   2.4799   2.5226   2.5231
     2.5614   2.5694   2.6173   2.6331   2.6490   2.6732   2.7024   2.7027
     2.7272   2.7593   2.7946   2.8973   2.9138   2.9376   2.9439   2.9943
     3.0175   3.0389   3.0478   3.0636   3.0971   3.1275   3.1650   3.2242
     3.2692   3.2941   3.3038   3.3426   3.4271   3.4508   3.4577   3.4768
     3.5034   3.5136   3.5386   3.5558   3.5814   3.6472   3.6623   3.6946
     3.7745   3.7921   3.8364   3.8399   3.8590   3.8761   3.8984   3.9089
     3.9297   3.9458   4.0045   4.0142   4.0318   4.0353   4.0415   4.0831
     4.1303   4.1681   4.2021   4.2256   4.2514   4.2540   4.2627   4.2866
     4.2917   4.2993   4.3195   4.3460   4.3877   4.4019   4.4281   4.4366
     4.4485   4.4728   4.5586   4.5710   4.6130   4.6148   4.6364   4.6705
     4.6759   4.6876   4.7573   4.7587   4.7712   4.7777   4.8165   4.8550
     4.8789   4.8796   4.9316   4.9325   4.9691   4.9872   5.0088   5.0469
     5.0545   5.0558   5.0915   5.1224   5.1476   5.1489   5.1633   5.1962
     5.2205   5.2520   5.2618   5.3010   5.3376   5.3535   5.3572   5.3613
     5.4022   5.4122   5.4224   5.4261   5.4565   5.4701   5.5116   5.5268
     5.5299   5.5577   5.5692   5.5872   5.6190   5.6344   5.6523   5.6723
     5.7017   5.7032   5.7372   5.7443   5.7458   5.7869   5.8264   5.8395
     5.8583   5.8877   5.9193   5.9253   5.9337   5.9710   5.9760   5.9876
     6.0040   6.0118   6.0304   6.0440   6.0484   6.0904   6.1387   6.1777
     6.1973   6.2181   6.2266   6.2421   6.2563   6.2588   6.2655   6.2697
     6.2957   6.3220   6.3249   6.3286   6.3913   6.4222   6.4262   6.4350
     6.4592   6.4911   6.5113   6.5509   6.5530   6.5789   6.5885   6.5948
     6.6048   6.6141   6.6497   6.6574   6.6894   6.6937   6.7000   6.7067
     6.7078   6.7219   6.7520   6.7797   6.7936   6.8051   6.8195   6.8225
     6.8933   6.9015   6.9283   6.9536   6.9651   6.9762   7.0045   7.0071
     7.0072   7.0199   7.0268   7.0421   7.0469   7.0905   7.0930   7.1184
     7.1535   7.1698   7.2056   7.2425   7.2426   7.2630   7.2853   7.2986
     7.3156   7.3495   7.3534   7.3619   7.3895   7.4197   7.4281   7.4353
     7.4648   7.4654   7.5111   7.5262   7.5272   7.5430   7.5513   7.5873
     7.5893   7.6040   7.6076   7.6209   7.6274   7.6480   7.7107   7.7127
     7.7139   7.7218   7.7388   7.7432   7.7592   7.8138   7.8247   7.8393
     7.8826   7.8907   7.8910   7.8997   7.9045   7.9305   7.9520   7.9652
     8.0053   8.0118   8.0213   8.0353   8.0785   8.1113   8.1192   8.1382
     8.1392   8.1593   8.1691   8.1949

          k = 0.0000 0.0000 0.0066 (154027 PWs)   bands (ev):

   -21.2267 -21.1426 -20.9100 -20.7531 -20.6135 -20.4594 -20.2235 -20.0875
   -20.0190 -19.8285 -19.7451 -19.6003 -19.5010 -19.3549 -18.9875 -18.9273
   -18.8333 -18.5730 -18.4007 -18.3667 -18.3381 -18.1923 -18.0856 -17.8596
   -17.7290 -17.6664 -17.4542 -17.3086 -17.0612 -17.0390 -17.0263 -16.8916
   -16.8118 -16.7678 -16.5759 -16.4794 -16.2219 -16.2050 -16.0888 -16.0021
   -15.6664 -15.4154 -14.9259 -14.8836 -14.7871 -14.6321 -14.5892 -14.5664
   -14.2460 -14.2331 -14.1766 -14.1133 -13.9779 -13.8435 -13.7352 -13.6727
   -13.4666 -13.2354 -13.0933 -12.9818 -12.9173 -12.7313 -12.6306 -12.3764
   -12.2929 -12.1947 -12.0670 -11.9711 -11.8830 -11.7079 -11.5913 -11.3760
   -11.3374 -11.2695 -11.2043 -11.1164 -10.9531 -10.9506 -10.7326 -10.7048
   -10.5893 -10.5782 -10.4892 -10.3103 -10.1130 -10.0575 -10.0304  -9.9179
    -9.9124  -9.7524  -9.6668  -9.5469  -9.4395  -9.4023  -9.3462  -9.3282
    -9.2727  -9.2588  -9.2255  -9.2248  -9.0676  -9.0627  -8.9819  -8.9789
    -8.9593  -8.8795  -8.8422  -8.7977  -8.7860  -8.6983  -8.6599  -8.5998
    -8.5868  -8.5471  -8.4778  -8.4698  -8.4666  -8.3072  -8.1911  -8.1846
    -8.1590  -8.0990  -8.0411  -7.9635  -7.8978  -7.8535  -7.7590  -7.7558
    -7.6930  -7.6627  -7.6429  -7.6056  -7.4967  -7.4026  -7.3561  -7.3238
    -7.3065  -7.2697  -7.1917  -7.1013  -7.0971  -6.9585  -6.9148  -6.8407
    -6.8006  -6.7535  -6.7103  -6.6731  -6.6021  -6.4563  -6.3274  -6.2463
    -6.1421  -6.1046  -6.0560  -6.0388  -5.9872  -5.9407  -5.9376  -5.8168
    -5.6344  -5.5779  -5.4521  -5.3758  -5.1935  -5.1418  -4.9508  -4.9050
    -4.7792  -4.7286  -4.6124  -4.5024  -4.4729  -4.4061  -4.1403  -3.9292
    -3.7277  -3.6947  -3.3405  -3.0349  -1.6806  -1.3859  -1.3403  -1.0573
    -0.7568  -0.7466  -0.5313  -0.4681  -0.3800  -0.2668  -0.1132  -0.0116
     0.0192   0.0305   0.3162   0.4778   0.5898   0.7056   0.7470   0.7542
     0.8123   0.9580   0.9984   1.0081   1.1432   1.1820   1.2558   1.3342
     1.4061   1.4627   1.5499   1.5694   1.5695   1.6256   1.6711   1.7684
     1.7984   1.8471   1.9367   1.9609   1.9658   2.1072   2.1355   2.1997
     2.2567   2.2931   2.3411   2.3679   2.4265   2.4682   2.5115   2.5210
     2.5481   2.5702   2.6082   2.6317   2.6437   2.6809   2.7081   2.7142
     2.7207   2.7502   2.7848   2.8927   2.9049   2.9486   2.9510   3.0037
     3.0219   3.0329   3.0602   3.0696   3.1009   3.1296   3.1791   3.2402
     3.2671   3.2862   3.2876   3.3499   3.4360   3.4413   3.4510   3.4903
     3.5045   3.5136   3.5457   3.5513   3.5757   3.6631   3.6802   3.6854
     3.7655   3.7780   3.8358   3.8399   3.8578   3.8837   3.8972   3.9001
     3.9272   3.9399   4.0003   4.0161   4.0236   4.0266   4.0278   4.0814
     4.1351   4.1728   4.2111   4.2201   4.2416   4.2478   4.2603   4.2889
     4.2900   4.3142   4.3250   4.3624   4.3884   4.4164   4.4239   4.4422
     4.4424   4.4719   4.5583   4.5775   4.5935   4.6363   4.6428   4.6701
     4.6809   4.6908   4.7414   4.7522   4.7592   4.7761   4.8047   4.8668
     4.8764   4.8837   4.9163   4.9488   4.9547   4.9810   4.9989   5.0438
     5.0571   5.0789   5.0980   5.1170   5.1260   5.1566   5.1639   5.1942
     5.2303   5.2555   5.2750   5.2873   5.3272   5.3602   5.3659   5.3706
     5.3973   5.4051   5.4249   5.4282   5.4355   5.4663   5.5152   5.5297
     5.5343   5.5347   5.5777   5.5843   5.6190   5.6473   5.6491   5.6787
     5.7031   5.7093   5.7330   5.7556   5.7648   5.7782   5.8314   5.8582
     5.8619   5.8786   5.9208   5.9249   5.9363   5.9449   5.9909   5.9927
     6.0080   6.0129   6.0159   6.0381   6.0565   6.0817   6.1444   6.1884
     6.1992   6.2065   6.2268   6.2339   6.2467   6.2519   6.2536   6.2615
     6.2941   6.3229   6.3315   6.3358   6.3900   6.4114   6.4120   6.4582
     6.4714   6.4849   6.5035   6.5421   6.5557   6.5850   6.5884   6.5951
     6.6054   6.6087   6.6553   6.6673   6.6767   6.6922   6.7162   6.7199
     6.7204   6.7281   6.7531   6.7658   6.7841   6.8022   6.8186   6.8310
     6.8851   6.8965   6.9250   6.9545   6.9572   6.9735   7.0043   7.0142
     7.0274   7.0314   7.0396   7.0416   7.0553   7.0749   7.0935   7.1389
     7.1555   7.1814   7.1839   7.2464   7.2483   7.2664   7.2897   7.3057
     7.3336   7.3532   7.3576   7.3699   7.3947   7.4161   7.4197   7.4402
     7.4601   7.4703   7.5053   7.5180   7.5190   7.5433   7.5584   7.5683
     7.5775   7.5868   7.5933   7.6210   7.6329   7.6412   7.6910   7.7090
     7.7193   7.7255   7.7438   7.7439   7.7589   7.8014   7.8174   7.8400
     7.8791   7.8861   7.8977   7.9030   7.9066   7.9428   7.9556   7.9705
     8.0050   8.0159   8.0211   8.0216   8.0716   8.1051   8.1247   8.1316
     8.1325   8.1500   8.1744   8.1903

          k = 0.0000 0.0000 0.0077 (154025 PWs)   bands (ev):

   -21.2259 -21.1442 -20.9079 -20.7563 -20.6101 -20.4609 -20.2225 -20.0842
   -20.0242 -19.8350 -19.7403 -19.5929 -19.5045 -19.3558 -18.9867 -18.9309
   -18.8268 -18.5772 -18.3968 -18.3678 -18.3430 -18.1851 -18.0972 -17.8634
   -17.7184 -17.6647 -17.4503 -17.3079 -17.0662 -17.0356 -17.0348 -16.8857
   -16.8109 -16.7719 -16.5708 -16.4792 -16.2235 -16.2065 -16.0904 -16.0074
   -15.6635 -15.4181 -14.9157 -14.8810 -14.7889 -14.6390 -14.5846 -14.5656
   -14.2510 -14.2328 -14.1758 -14.0996 -13.9763 -13.8490 -13.7404 -13.6694
   -13.4786 -13.2553 -13.0886 -12.9826 -12.9197 -12.7034 -12.6382 -12.3685
   -12.2882 -12.1906 -12.0780 -11.9735 -11.8686 -11.7138 -11.5906 -11.3768
   -11.3324 -11.2721 -11.2231 -11.1251 -10.9572 -10.9383 -10.7342 -10.6995
   -10.5884 -10.5720 -10.4863 -10.3141 -10.1295 -10.0663 -10.0292  -9.9099
    -9.9047  -9.7307  -9.6727  -9.5558  -9.4292  -9.4124  -9.3451  -9.3323
    -9.2667  -9.2554  -9.2375  -9.2281  -9.0729  -9.0666  -8.9815  -8.9759
    -8.9613  -8.8618  -8.8393  -8.7989  -8.7895  -8.6974  -8.6530  -8.5963
    -8.5920  -8.5500  -8.4765  -8.4669  -8.4641  -8.3093  -8.1900  -8.1855
    -8.1609  -8.1055  -8.0355  -7.9699  -7.8918  -7.8512  -7.7573  -7.7566
    -7.7035  -7.6610  -7.6533  -7.5998  -7.4849  -7.4140  -7.3591  -7.3257
    -7.3057  -7.2665  -7.1989  -7.1007  -7.0949  -6.9475  -6.9155  -6.8389
    -6.7995  -6.7573  -6.7130  -6.6647  -6.6024  -6.4520  -6.3350  -6.2420
    -6.1544  -6.1056  -6.0608  -6.0373  -5.9762  -5.9508  -5.9289  -5.8184
    -5.6369  -5.5807  -5.4437  -5.3741  -5.1948  -5.1368  -4.9566  -4.9071
    -4.7762  -4.7276  -4.6119  -4.5055  -4.4715  -4.4051  -4.1387  -3.9362
    -3.7269  -3.6895  -3.3407  -3.0406  -1.6753  -1.3766  -1.3443  -1.0568
    -0.7565  -0.7469  -0.5319  -0.4751  -0.3817  -0.2575  -0.1229  -0.0094
     0.0160   0.0345   0.3037   0.4629   0.5923   0.7073   0.7482   0.7529
     0.8226   0.9566   0.9998   1.0273   1.1374   1.1900   1.2651   1.3259
     1.3911   1.4645   1.5615   1.5662   1.5801   1.6265   1.6705   1.7628
     1.7899   1.8511   1.9489   1.9661   1.9693   2.1048   2.1292   2.1954
     2.2593   2.2946   2.3488   2.3685   2.4177   2.4572   2.4991   2.5184
     2.5347   2.5725   2.5973   2.6295   2.6377   2.6879   2.7122   2.7135
     2.7258   2.7406   2.7782   2.8884   2.8960   2.9578   2.9606   3.0119
     3.0195   3.0276   3.0759   3.0815   3.1061   3.1319   3.1947   3.2536
     3.2621   3.2720   3.2827   3.3609   3.4307   3.4430   3.4471   3.4975
     3.5043   3.5155   3.5522   3.5555   3.5684   3.6664   3.6788   3.7081
     3.7574   3.7618   3.8314   3.8402   3.8562   3.8831   3.8932   3.9020
     3.9235   3.9328   3.9965   4.0117   4.0153   4.0208   4.0217   4.0797
     4.1406   4.1731   4.2120   4.2144   4.2328   4.2390   4.2652   4.2877
     4.2919   4.3173   4.3507   4.3796   4.3944   4.3987   4.4318   4.4374
     4.4566   4.4717   4.5583   4.5729   4.5922   4.6310   4.6625   4.6683
     4.6860   4.6925   4.7261   4.7536   4.7589   4.7743   4.7924   4.8491
     4.8866   4.8922   4.9008   4.9417   4.9704   4.9777   4.9918   5.0337
     5.0587   5.1020   5.1076   5.1101   5.1109   5.1628   5.1643   5.1917
     5.2315   5.2620   5.2647   5.2981   5.3157   5.3592   5.3725   5.3813
     5.3819   5.3819   5.4176   5.4358   5.4487   5.4706   5.5130   5.5151
     5.5277   5.5395   5.5841   5.5844   5.6190   5.6495   5.6589   5.6833
     5.7056   5.7178   5.7295   5.7689   5.7708   5.7795   5.8344   5.8622
     5.8730   5.8804   5.9019   5.9182   5.9257   5.9502   5.9895   5.9940
     6.0054   6.0212   6.0226   6.0377   6.0682   6.0761   6.1472   6.1932
     6.1941   6.1974   6.1983   6.2295   6.2446   6.2497   6.2529   6.2671
     6.2974   6.3239   6.3384   6.3406   6.3921   6.3932   6.4017   6.4664
     6.4751   6.4823   6.5047   6.5342   6.5576   6.5865   6.5884   6.5958
     6.6057   6.6061   6.6585   6.6606   6.6730   6.7029   6.7171   6.7232
     6.7286   6.7548   6.7560   6.7602   6.7767   6.7950   6.8191   6.8439
     6.8700   6.9033   6.9206   6.9449   6.9521   6.9697   7.0016   7.0246
     7.0392   7.0451   7.0467   7.0522   7.0576   7.0763   7.0947   7.1571
     7.1582   7.1622   7.1968   7.2484   7.2552   7.2690   7.2961   7.3185
     7.3388   7.3507   7.3600   7.3779   7.3980   7.4014   7.4141   7.4453
     7.4604   7.4882   7.4943   7.5059   7.5154   7.5294   7.5560   7.5623
     7.5640   7.5839   7.5843   7.6224   7.6251   7.6509   7.6734   7.7038
     7.7157   7.7387   7.7468   7.7487   7.7543   7.7888   7.8096   7.8327
     7.8650   7.8859   7.9038   7.9045   7.9263   7.9442   7.9684   7.9739
     7.9968   8.0002   8.0225   8.0268   8.0545   8.0932   8.1033   8.1383
     8.1438   8.1586   8.1591   8.1925

          k = 0.0000 0.0000 0.0088 (154059 PWs)   bands (ev):

   -21.2249 -21.1461 -20.9055 -20.7598 -20.6064 -20.4626 -20.2213 -20.0806
   -20.0299 -19.8420 -19.7351 -19.5849 -19.5085 -19.3568 -18.9858 -18.9345
   -18.8199 -18.5818 -18.3927 -18.3690 -18.3481 -18.1775 -18.1093 -17.8681
   -17.7071 -17.6627 -17.4460 -17.3068 -17.0720 -17.0452 -17.0301 -16.8800
   -16.8098 -16.7762 -16.5653 -16.4790 -16.2252 -16.2082 -16.0921 -16.0133
   -15.6600 -15.4213 -14.9044 -14.8781 -14.7904 -14.6459 -14.5798 -14.5656
   -14.2548 -14.2324 -14.1750 -14.0857 -13.9744 -13.8554 -13.7459 -13.6660
   -13.4919 -13.2763 -13.0840 -12.9808 -12.9223 -12.6759 -12.6465 -12.3600
   -12.2833 -12.1858 -12.0882 -11.9760 -11.8541 -11.7209 -11.5890 -11.3774
   -11.3274 -11.2754 -11.2425 -11.1342 -10.9636 -10.9237 -10.7362 -10.6941
   -10.5873 -10.5667 -10.4814 -10.3185 -10.1476 -10.0740 -10.0271  -9.9007
    -9.8966  -9.7112  -9.6772  -9.5651  -9.4228  -9.4186  -9.3438  -9.3356
    -9.2615  -9.2524  -9.2509  -9.2310  -9.0767  -9.0705  -8.9902  -8.9725
    -8.9548  -8.8443  -8.8384  -8.7990  -8.7933  -8.6961  -8.6452  -8.5972
    -8.5924  -8.5532  -8.4755  -8.4673  -8.4578  -8.3116  -8.1886  -8.1868
    -8.1627  -8.1123  -8.0293  -7.9769  -7.8856  -7.8487  -7.7596  -7.7540
    -7.7141  -7.6645  -7.6591  -7.5938  -7.4726  -7.4253  -7.3626  -7.3276
    -7.3049  -7.2646  -7.2058  -7.1048  -7.0885  -6.9355  -6.9163  -6.8369
    -6.7981  -6.7607  -6.7160  -6.6562  -6.6030  -6.4471  -6.3428  -6.2379
    -6.1665  -6.1068  -6.0654  -6.0355  -5.9656  -5.9617  -5.9197  -5.8200
    -5.6398  -5.5845  -5.4342  -5.3722  -5.1961  -5.1312  -4.9630  -4.9095
    -4.7729  -4.7265  -4.6114  -4.5090  -4.4699  -4.4043  -4.1369  -3.9437
    -3.7259  -3.6843  -3.3406  -3.0470  -1.6692  -1.3664  -1.3486  -1.0564
    -0.7562  -0.7472  -0.5326  -0.4824  -0.3835  -0.2477  -0.1341  -0.0068
     0.0124   0.0391   0.2905   0.4471   0.5958   0.7092   0.7497   0.7514
     0.8341   0.9549   0.9913   1.0576   1.1322   1.1980   1.2744   1.3174
     1.3759   1.4674   1.5625   1.5726   1.5897   1.6277   1.6703   1.7573
     1.7824   1.8542   1.9609   1.9674   1.9783   2.1023   2.1220   2.1920
     2.2624   2.2961   2.3563   2.3668   2.4082   2.4482   2.4861   2.5153
     2.5213   2.5760   2.5851   2.6265   2.6311   2.6942   2.7031   2.7173
     2.7308   2.7371   2.7746   2.8840   2.8874   2.9642   2.9734   3.0082
     3.0187   3.0343   3.0824   3.1018   3.1129   3.1346   3.2116   3.2555
     3.2569   3.2611   3.2873   3.3748   3.4195   3.4460   3.4485   3.4959
     3.5027   3.5188   3.5597   3.5613   3.5676   3.6535   3.6939   3.7293
     3.7437   3.7505   3.8274   3.8383   3.8540   3.8678   3.9027   3.9040
     3.9190   3.9260   3.9905   4.0017   4.0099   4.0143   4.0232   4.0782
     4.1467   4.1641   4.2095   4.2138   4.2181   4.2398   4.2690   4.2897
     4.2956   4.3229   4.3703   4.3738   4.3991   4.4055   4.4247   4.4457
     4.4710   4.4747   4.5524   4.5700   4.5928   4.6334   4.6569   4.6696
     4.6816   4.7000   4.7267   4.7543   4.7726   4.7762   4.7795   4.8284
     4.8835   4.8868   4.9028   4.9300   4.9786   4.9860   4.9964   5.0246
     5.0605   5.0834   5.1039   5.1132   5.1397   5.1624   5.1642   5.1931
     5.2281   5.2486   5.2747   5.3031   5.3060   5.3576   5.3587   5.3650
     5.3826   5.3912   5.4016   5.4438   5.4483   5.4891   5.5021   5.5115
     5.5242   5.5449   5.5864   5.5906   5.6185   5.6522   5.6678   5.6824
     5.7102   5.7292   5.7292   5.7641   5.7856   5.7872   5.8378   5.8541
     5.8584   5.8921   5.9021   5.9100   5.9253   5.9526   5.9806   5.9900
     6.0112   6.0250   6.0297   6.0479   6.0764   6.0802   6.1508   6.1620
     6.1780   6.1850   6.2049   6.2315   6.2425   6.2518   6.2571   6.2728
     6.3077   6.3252   6.3444   6.3461   6.3714   6.3928   6.3972   6.4524
     6.4634   6.4920   6.5178   6.5270   6.5565   6.5834   6.5888   6.5970
     6.6060   6.6084   6.6494   6.6587   6.6746   6.7139   6.7156   6.7233
     6.7283   6.7567   6.7572   6.7746   6.7880   6.7953   6.8190   6.8567
     6.8587   6.9112   6.9171   6.9304   6.9496   6.9652   7.0014   7.0265
     7.0349   7.0446   7.0566   7.0646   7.0744   7.0959   7.1015   7.1425
     7.1580   7.1731   7.2155   7.2491   7.2616   7.2699   7.3017   7.3314
     7.3333   7.3510   7.3567   7.3756   7.3942   7.3986   7.4159   7.4366
     7.4574   7.4881   7.5008   7.5018   7.5116   7.5152   7.5513   7.5557
     7.5610   7.5818   7.5886   7.6240   7.6250   7.6554   7.6600   7.6984
     7.7111   7.7459   7.7462   7.7516   7.7533   7.7806   7.8053   7.8188
     7.8522   7.8893   7.9012   7.9143   7.9371   7.9453   7.9606   7.9817
     7.9975   8.0014   8.0124   8.0236   8.0531   8.0757   8.0765   8.1265
     8.1554   8.1568   8.1664   8.1933

          k = 0.0000 0.0000 0.0099 (154015 PWs)   bands (ev):

   -21.2238 -21.1481 -20.9029 -20.7636 -20.6024 -20.4646 -20.2199 -20.0765
   -20.0360 -19.8493 -19.7295 -19.5764 -19.5129 -19.3582 -18.9849 -18.9380
   -18.8128 -18.5868 -18.3883 -18.3703 -18.3531 -18.1694 -18.1218 -17.8737
   -17.6954 -17.6606 -17.4413 -17.3053 -17.0789 -17.0547 -17.0250 -16.8748
   -16.8087 -16.7805 -16.5595 -16.4788 -16.2271 -16.2101 -16.0939 -16.0196
   -15.6560 -15.4250 -14.8924 -14.8749 -14.7916 -14.6528 -14.5751 -14.5664
   -14.2571 -14.2319 -14.1742 -14.0717 -13.9723 -13.8627 -13.7515 -13.6625
   -13.5065 -13.2978 -13.0794 -12.9768 -12.9252 -12.6554 -12.6490 -12.3511
   -12.2785 -12.1803 -12.0974 -11.9785 -11.8396 -11.7291 -11.5866 -11.3780
   -11.3227 -11.2808 -11.2609 -11.1437 -10.9692 -10.9093 -10.7387 -10.6887
   -10.5861 -10.5627 -10.4742 -10.3236 -10.1665 -10.0808 -10.0242  -9.8908
    -9.8881  -9.7001  -9.6743  -9.5749  -9.4335  -9.4079  -9.3423  -9.3378
    -9.2668  -9.2549  -9.2497  -9.2341  -9.0792  -9.0746  -9.0013  -8.9688
    -8.9462  -8.8394  -8.8276  -8.7978  -8.7975  -8.6944  -8.6368  -8.6023
    -8.5882  -8.5564  -8.4750  -8.4678  -8.4509  -8.3142  -8.1885  -8.1869
    -8.1643  -8.1194  -8.0227  -7.9845  -7.8790  -7.8459  -7.7632  -7.7512
    -7.7248  -7.6760  -7.6569  -7.5874  -7.4598  -7.4364  -7.3665  -7.3296
    -7.3040  -7.2640  -7.2122  -7.1095  -7.0819  -6.9227  -6.9172  -6.8347
    -6.7966  -6.7638  -6.7193  -6.6474  -6.6038  -6.4418  -6.3509  -6.2341
    -6.1785  -6.1083  -6.0697  -6.0335  -5.9729  -5.9556  -5.9103  -5.8215
    -5.6430  -5.5894  -5.4236  -5.3701  -5.1974  -5.1251  -4.9699  -4.9123
    -4.7695  -4.7254  -4.6107  -4.5126  -4.4681  -4.4035  -4.1348  -3.9516
    -3.7248  -3.6793  -3.3401  -3.0542  -1.6625  -1.3582  -1.3503  -1.0560
    -0.7559  -0.7476  -0.5334  -0.4896  -0.3854  -0.2375  -0.1466  -0.0038
     0.0086   0.0441   0.2769   0.4308   0.6000   0.7114   0.7497   0.7512
     0.8465   0.9528   0.9827   1.0891   1.1276   1.2058   1.2836   1.3089
     1.3606   1.4715   1.5583   1.5829   1.5984   1.6290   1.6708   1.7520
     1.7763   1.8561   1.9699   1.9725   1.9878   2.1000   2.1141   2.1893
     2.2657   2.2975   2.3615   2.3636   2.3985   2.4422   2.4726   2.5079
     2.5116   2.5716   2.5802   2.6226   2.6238   2.6926   2.6998   2.7212
     2.7213   2.7478   2.7733   2.8787   2.8796   2.9700   2.9866   2.9998
     3.0233   3.0421   3.0893   3.1181   3.1235   3.1373   3.2294   3.2426
     3.2490   3.2640   3.2987   3.3910   3.4081   3.4472   3.4526   3.4879
     3.4995   3.5229   3.5500   3.5760   3.5814   3.6417   3.7072   3.7241
     3.7441   3.7484   3.8247   3.8351   3.8511   3.8529   3.9063   3.9104
     3.9143   3.9204   3.9810   3.9943   4.0067   4.0074   4.0250   4.0772
     4.1474   4.1533   4.2039   4.2082   4.2186   4.2407   4.2714   4.2957
     4.3003   4.3296   4.3438   4.3811   4.4146   4.4201   4.4216   4.4531
     4.4844   4.4852   4.5330   4.5799   4.5888   4.6372   4.6480   4.6678
     4.6820   4.6910   4.7507   4.7558   4.7663   4.7717   4.8001   4.8071
     4.8639   4.8858   4.9098   4.9195   4.9801   4.9832   5.0160   5.0249
     5.0624   5.0658   5.0963   5.1204   5.1529   5.1636   5.1659   5.2004
     5.2228   5.2397   5.2827   5.2895   5.3071   5.3383   5.3496   5.3554
     5.3869   5.3960   5.3976   5.4428   5.4511   5.4742   5.5013   5.5245
     5.5261   5.5502   5.5910   5.6036   5.6165   5.6544   5.6720   5.6764
     5.7145   5.7347   5.7433   5.7594   5.7885   5.8043   5.8216   5.8388
     5.8601   5.8970   5.9059   5.9157   5.9200   5.9540   5.9826   5.9863
     6.0077   6.0248   6.0393   6.0616   6.0847   6.0863   6.1297   6.1599
     6.1609   6.1783   6.2036   6.2361   6.2406   6.2598   6.2609   6.2781
     6.3206   6.3304   6.3474   6.3482   6.3545   6.3845   6.4041   6.4309
     6.4518   6.5014   6.5204   6.5236   6.5518   6.5774   6.5898   6.5977
     6.6069   6.6146   6.6480   6.6560   6.6731   6.7117   6.7118   6.7152
     6.7335   6.7594   6.7665   6.7782   6.7858   6.8174   6.8326   6.8446
     6.8721   6.9151   6.9166   6.9196   6.9495   6.9602   6.9989   7.0063
     7.0445   7.0534   7.0615   7.0818   7.0917   7.0973   7.1257   7.1299
     7.1527   7.1886   7.2352   7.2494   7.2670   7.2679   7.2972   7.3260
     7.3351   7.3476   7.3581   7.3687   7.3928   7.4123   7.4191   7.4240
     7.4422   7.4583   7.4983   7.5006   7.5185   7.5407   7.5454   7.5512
     7.5524   7.5833   7.6090   7.6180   7.6295   7.6528   7.6593   7.6927
     7.7044   7.7364   7.7399   7.7575   7.7577   7.7785   7.8006   7.8080
     7.8440   7.8897   7.8938   7.9237   7.9363   7.9477   7.9496   7.9798
     7.9993   8.0111   8.0186   8.0242   8.0487   8.0518   8.0587   8.0889
     8.1539   8.1750   8.1780   8.1962

          k = 0.0000 0.0000 0.0110 (154021 PWs)   bands (ev):

   -21.2226 -21.1503 -20.9000 -20.7676 -20.5981 -20.4668 -20.2181 -20.0721
   -20.0426 -19.8569 -19.7235 -19.5676 -19.5176 -19.3598 -18.9838 -18.9412
   -18.8055 -18.5920 -18.3839 -18.3718 -18.3579 -18.1610 -18.1345 -17.8799
   -17.6835 -17.6581 -17.4361 -17.3032 -17.0869 -17.0641 -17.0194 -16.8700
   -16.8074 -16.7848 -16.5535 -16.4786 -16.2290 -16.2121 -16.0959 -16.0264
   -15.6515 -15.4291 -14.8799 -14.8715 -14.7924 -14.6597 -14.5704 -14.5680
   -14.2581 -14.2311 -14.1733 -14.0576 -13.9700 -13.8709 -13.7572 -13.6589
   -13.5221 -13.3194 -13.0747 -12.9712 -12.9283 -12.6646 -12.6230 -12.3419
   -12.2739 -12.1741 -12.1052 -11.9810 -11.8252 -11.7382 -11.5833 -11.3787
   -11.3184 -11.2933 -11.2734 -11.1536 -10.9739 -10.8952 -10.7418 -10.6836
   -10.5847 -10.5601 -10.4645 -10.3293 -10.1859 -10.0871 -10.0203  -9.8805
    -9.8794  -9.7016  -9.6598  -9.5850  -9.4442  -9.3974  -9.3406  -9.3386
    -9.2816  -9.2505  -9.2473  -9.2374  -9.0803  -9.0787  -9.0130  -8.9648
    -8.9378  -8.8419  -8.8120  -8.8019  -8.7954  -8.6922  -8.6279  -8.6069
    -8.5838  -8.5595  -8.4749  -8.4685  -8.4435  -8.3169  -8.1905  -8.1851
    -8.1655  -8.1265  -8.0157  -7.9925  -7.8725  -7.8428  -7.7686  -7.7482
    -7.7355  -7.6868  -7.6545  -7.5808  -7.4473  -7.4467  -7.3707  -7.3317
    -7.3030  -7.2645  -7.2183  -7.1148  -7.0751  -6.9184  -6.9094  -6.8323
    -6.7950  -6.7665  -6.7227  -6.6384  -6.6051  -6.4361  -6.3591  -6.2306
    -6.1903  -6.1101  -6.0737  -6.0311  -5.9843  -5.9464  -5.9005  -5.8227
    -5.6466  -5.5952  -5.4124  -5.3678  -5.1986  -5.1186  -4.9774  -4.9154
    -4.7659  -4.7242  -4.6099  -4.5165  -4.4661  -4.4029  -4.1325  -3.9596
    -3.7235  -3.6746  -3.3391  -3.0621  -1.6551  -1.3614  -1.3401  -1.0557
    -0.7556  -0.7481  -0.5343  -0.4967  -0.3873  -0.2271  -0.1603  -0.0004
     0.0046   0.0497   0.2631   0.4143   0.6047   0.7138   0.7478   0.7529
     0.8597   0.9504   0.9741   1.1213   1.1238   1.2130   1.2925   1.3008
     1.3451   1.4765   1.5538   1.5919   1.6060   1.6306   1.6717   1.7472
     1.7718   1.8564   1.9738   1.9836   1.9977   2.0978   2.1058   2.1874
     2.2693   2.2987   2.3524   2.3705   2.3886   2.4398   2.4591   2.4946
     2.5073   2.5573   2.5852   2.6158   2.6180   2.6817   2.7048   2.7124
     2.7250   2.7573   2.7731   2.8718   2.8731   2.9753   2.9948   3.0001
     3.0258   3.0507   3.0967   3.1271   3.1395   3.1400   3.2293   3.2446
     3.2479   3.2674   3.3120   3.3969   3.4081   3.4506   3.4559   3.4770
     3.4948   3.5275   3.5402   3.5934   3.5960   3.6317   3.7033   3.7173
     3.7407   3.7606   3.8249   3.8310   3.8407   3.8476   3.9090   3.9101
     3.9147   3.9161   3.9676   3.9914   4.0001   4.0053   4.0264   4.0767
     4.1275   4.1604   4.1903   4.2079   4.2252   4.2427   4.2714   4.3044
     4.3059   4.3184   4.3372   4.3632   4.4257   4.4359   4.4407   4.4546
     4.4937   4.5024   4.5159   4.5687   4.6116   4.6177   4.6558   4.6665
     4.6836   4.6884   4.7527   4.7548   4.7672   4.7716   4.7945   4.8280
     4.8431   4.8860   4.9099   4.9144   4.9742   4.9884   5.0066   5.0521
     5.0544   5.0644   5.0885   5.1276   5.1388   5.1622   5.1850   5.2097
     5.2162   5.2349   5.2748   5.2883   5.3049   5.3244   5.3355   5.3526
     5.3736   5.3998   5.4055   5.4362   5.4566   5.4657   5.4886   5.5324
     5.5341   5.5553   5.5983   5.6113   5.6292   5.6546   5.6683   5.6688
     5.7181   5.7445   5.7551   5.7598   5.7869   5.7929   5.8254   5.8361
     5.8690   5.8814   5.9127   5.9202   5.9241   5.9521   5.9769   5.9960
     6.0032   6.0243   6.0483   6.0736   6.0875   6.0996   6.1035   6.1417
     6.1662   6.1841   6.1956   6.2370   6.2459   6.2636   6.2734   6.2813
     6.3241   6.3267   6.3484   6.3500   6.3625   6.3766   6.4063   6.4108
     6.4434   6.5111   6.5144   6.5168   6.5450   6.5699   6.5907   6.5970
     6.6095   6.6218   6.6502   6.6574   6.6684   6.7015   6.7022   6.7129
     6.7349   6.7612   6.7806   6.7834   6.7911   6.8145   6.8334   6.8713
     6.8812   6.9002   6.9209   6.9309   6.9514   6.9549   6.9731   7.0129
     7.0532   7.0592   7.0653   7.0927   7.0985   7.1087   7.1322   7.1420
     7.1435   7.2048   7.2490   7.2541   7.2626   7.2704   7.2756   7.3257
     7.3330   7.3371   7.3599   7.3699   7.4027   7.4152   7.4209   7.4225
     7.4301   7.4382   7.4876   7.4897   7.5255   7.5365   7.5420   7.5622
     7.5649   7.6002   7.6028   7.6324   7.6370   7.6518   7.6648   7.6868
     7.6951   7.7239   7.7269   7.7620   7.7637   7.7727   7.7824   7.8174
     7.8427   7.8730   7.8971   7.9275   7.9281   7.9374   7.9533   7.9862
     7.9921   8.0214   8.0253   8.0253   8.0287   8.0420   8.0523   8.0584
     8.1476   8.1850   8.1987   8.1991

          k = 0.0000 0.0000 0.0121 (154013 PWs)   bands (ev):

   -21.2212 -21.1526 -20.8968 -20.7718 -20.5937 -20.4693 -20.2161 -20.0673
   -20.0495 -19.8647 -19.7172 -19.5585 -19.5227 -19.3618 -18.9827 -18.9443
   -18.7980 -18.5975 -18.3798 -18.3734 -18.3620 -18.1524 -18.1471 -17.8868
   -17.6719 -17.6555 -17.4304 -17.3005 -17.0960 -17.0732 -17.0135 -16.8661
   -16.8061 -16.7888 -16.5474 -16.4783 -16.2311 -16.2143 -16.0979 -16.0335
   -15.6464 -15.4336 -14.8678 -14.8670 -14.7927 -14.6665 -14.5703 -14.5660
   -14.2576 -14.2301 -14.1725 -14.0437 -13.9676 -13.8801 -13.7629 -13.6551
   -13.5385 -13.3408 -13.0700 -12.9642 -12.9317 -12.6741 -12.5979 -12.3326
   -12.2698 -12.1676 -12.1114 -11.9831 -11.8109 -11.7482 -11.5794 -11.3793
   -11.3146 -11.3129 -11.2796 -11.1639 -10.9775 -10.8815 -10.7457 -10.6789
   -10.5830 -10.5586 -10.4527 -10.3355 -10.2053 -10.0929 -10.0156  -9.8705
    -9.8702  -9.7072  -9.6426  -9.5949  -9.4551  -9.3872  -9.3387  -9.3378
    -9.2971  -9.2465  -9.2451  -9.2410  -9.0830  -9.0802  -9.0251  -8.9605
    -8.9301  -8.8451  -8.8066  -8.7983  -8.7923  -8.6895  -8.6186  -8.6105
    -8.5791  -8.5626  -8.4754  -8.4694  -8.4357  -8.3199  -8.1930  -8.1832
    -8.1664  -8.1332  -8.0084  -8.0010  -7.8659  -7.8396  -7.7765  -7.7461
    -7.7450  -7.6964  -7.6518  -7.5739  -7.4579  -7.4334  -7.3753  -7.3337
    -7.3020  -7.2661  -7.2240  -7.1206  -7.0680  -6.9198  -6.8958  -6.8297
    -6.7931  -6.7690  -6.7263  -6.6293  -6.6067  -6.4300  -6.3674  -6.2274
    -6.2019  -6.1121  -6.0772  -6.0285  -5.9957  -5.9383  -5.8905  -5.8234
    -5.6506  -5.6018  -5.4008  -5.3653  -5.1997  -5.1117  -4.9853  -4.9189
    -4.7623  -4.7231  -4.6090  -4.5205  -4.4639  -4.4025  -4.1299  -3.9678
    -3.7221  -3.6705  -3.3375  -3.0707  -1.6472  -1.3674  -1.3266  -1.0556
    -0.7553  -0.7487  -0.5352  -0.5035  -0.3891  -0.2166  -0.1751   0.0003
     0.0033   0.0558   0.2493   0.3977   0.6099   0.7164   0.7457   0.7547
     0.8735   0.9476   0.9656   1.1207   1.1539   1.2192   1.2936   1.3012
     1.3295   1.4823   1.5492   1.5994   1.6121   1.6324   1.6731   1.7429
     1.7693   1.8551   1.9794   1.9938   2.0078   2.0956   2.0979   2.1860
     2.2732   2.2993   2.3401   2.3769   2.3792   2.4402   2.4458   2.4814
     2.5023   2.5423   2.5908   2.6071   2.6126   2.6711   2.7045   2.7094
     2.7288   2.7653   2.7733   2.8630   2.8684   2.9798   2.9930   3.0137
     3.0265   3.0601   3.1047   3.1343   3.1421   3.1538   3.2177   3.2446
     3.2669   3.2729   3.3250   3.3860   3.4238   3.4569   3.4586   3.4645
     3.4885   3.5315   3.5324   3.6099   3.6117   3.6249   3.6818   3.7217
     3.7380   3.7657   3.8261   3.8286   3.8343   3.8432   3.9073   3.9121
     3.9132   3.9149   3.9511   3.9926   3.9929   4.0050   4.0276   4.0769
     4.1073   4.1677   4.1772   4.2064   4.2314   4.2483   4.2648   4.2979
     4.3133   4.3149   4.3381   4.3455   4.4283   4.4484   4.4541   4.4652
     4.4957   4.5024   4.5222   4.5691   4.6034   4.6368   4.6396   4.6849
     4.6863   4.6900   4.7389   4.7511   4.7518   4.7713   4.8033   4.8292
     4.8584   4.8889   4.9016   4.9170   4.9673   4.9921   4.9960   5.0432
     5.0665   5.0816   5.0838   5.1239   5.1347   5.1601   5.1918   5.2086
     5.2184   5.2328   5.2595   5.2919   5.3026   5.3211   5.3233   5.3491
     5.3629   5.3973   5.4049   5.4254   5.4562   5.4723   5.4811   5.5325
     5.5409   5.5601   5.6008   5.6076   5.6537   5.6567   5.6575   5.6653
     5.7239   5.7533   5.7552   5.7711   5.7742   5.7856   5.8332   5.8476
     5.8663   5.8812   5.9072   5.9218   5.9343   5.9442   5.9774   5.9777
     6.0247   6.0259   6.0553   6.0833   6.0878   6.0892   6.1173   6.1206
     6.1648   6.1862   6.2022   6.2319   6.2582   6.2701   6.2762   6.2872
     6.3139   6.3250   6.3522   6.3674   6.3687   6.3700   6.3801   6.4146
     6.4438   6.5014   6.5088   6.5216   6.5378   6.5612   6.5916   6.5949
     6.6134   6.6274   6.6407   6.6602   6.6728   6.6873   6.6921   6.7189
     6.7321   6.7629   6.7869   6.7895   6.8047   6.8104   6.8227   6.8863
     6.8869   6.9107   6.9310   6.9464   6.9469   6.9496   6.9528   7.0224
     7.0519   7.0603   7.0792   7.0867   7.1141   7.1247   7.1271   7.1431
     7.1510   7.2190   7.2411   7.2466   7.2549   7.2742   7.2754   7.3210
     7.3291   7.3372   7.3578   7.3794   7.3947   7.4121   7.4194   7.4257
     7.4270   7.4495   7.4744   7.4804   7.5099   7.5326   7.5519   7.5708
     7.5737   7.5877   7.6338   7.6449   7.6488   7.6549   7.6771   7.6809
     7.6841   7.7055   7.7134   7.7635   7.7659   7.7695   7.7705   7.8266
     7.8440   7.8607   7.8970   7.9167   7.9253   7.9273   7.9619   7.9712
     7.9958   7.9970   8.0189   8.0240   8.0288   8.0401   8.0502   8.0686
     8.1425   8.1967   8.1968   8.2157

          k = 0.0000 0.0000 0.0132 (154057 PWs)   bands (ev):

   -21.2198 -21.1550 -20.8935 -20.7761 -20.5891 -20.4720 -20.2138 -20.0622
   -20.0567 -19.8727 -19.7107 -19.5492 -19.5281 -19.3641 -18.9815 -18.9471
   -18.7905 -18.6032 -18.3770 -18.3752 -18.3643 -18.1596 -18.1434 -17.8942
   -17.6608 -17.6527 -17.4243 -17.2971 -17.1062 -17.0820 -17.0072 -16.8630
   -16.8047 -16.7924 -16.5412 -16.4781 -16.2331 -16.2166 -16.1000 -16.0407
   -15.6407 -15.4386 -14.8640 -14.8543 -14.7924 -14.6730 -14.5732 -14.5620
   -14.2556 -14.2289 -14.1716 -14.0299 -13.9650 -13.8902 -13.7686 -13.6512
   -13.5557 -13.3617 -13.0652 -12.9562 -12.9353 -12.6839 -12.5741 -12.3235
   -12.2666 -12.1607 -12.1154 -11.9848 -11.7970 -11.7588 -11.5749 -11.3800
   -11.3348 -11.3114 -11.2842 -11.1744 -10.9797 -10.8681 -10.7503 -10.6748
   -10.5808 -10.5577 -10.4392 -10.3421 -10.2245 -10.0986 -10.0099  -9.8616
    -9.8601  -9.7134  -9.6269  -9.6039  -9.4659  -9.3775  -9.3367  -9.3348
    -9.3131  -9.2447  -9.2430  -9.2429  -9.0876  -9.0790  -9.0372  -8.9560
    -8.9238  -8.8481  -8.8115  -8.7888  -8.7867  -8.6866  -8.6127  -8.6090
    -8.5743  -8.5654  -8.4762  -8.4705  -8.4275  -8.3230  -8.1960  -8.1817
    -8.1669  -8.1390  -8.0098  -8.0009  -7.8594  -7.8364  -7.7873  -7.7567
    -7.7418  -7.7039  -7.6489  -7.5667  -7.4684  -7.4199  -7.3803  -7.3357
    -7.3008  -7.2687  -7.2294  -7.1269  -7.0608  -6.9213  -6.8820  -6.8270
    -6.7910  -6.7711  -6.7300  -6.6200  -6.6088  -6.4236  -6.3759  -6.2243
    -6.2132  -6.1146  -6.0803  -6.0256  -6.0068  -5.9314  -5.8803  -5.8233
    -5.6550  -5.6091  -5.3890  -5.3626  -5.2004  -5.1045  -4.9936  -4.9228
    -4.7587  -4.7219  -4.6080  -4.5247  -4.4615  -4.4023  -4.1271  -3.9760
    -3.7204  -3.6670  -3.3351  -3.0799  -1.6386  -1.3742  -1.3121  -1.0557
    -0.7551  -0.7494  -0.5363  -0.5101  -0.3909  -0.2059  -0.1907  -0.0041
     0.0075   0.0623   0.2357   0.3811   0.6155   0.7193   0.7433   0.7565
     0.8880   0.9446   0.9573   1.1185   1.1867   1.2238   1.2879   1.3095
     1.3137   1.4889   1.5445   1.6049   1.6166   1.6345   1.6748   1.7394
     1.7691   1.8524   1.9865   2.0025   2.0182   2.0908   2.0935   2.1851
     2.2773   2.2989   2.3257   2.3705   2.3825   2.4331   2.4422   2.4685
     2.4969   2.5272   2.5970   2.5975   2.6066   2.6610   2.6979   2.7137
     2.7326   2.7711   2.7735   2.8522   2.8660   2.9834   2.9937   3.0263
     3.0270   3.0702   3.1132   3.1389   3.1431   3.1663   3.2085   3.2500
     3.2809   3.2859   3.3369   3.3761   3.4327   3.4511   3.4612   3.4690
     3.4804   3.5262   3.5371   3.6133   3.6298   3.6310   3.6606   3.7189
     3.7365   3.7641   3.8206   3.8335   3.8357   3.8383   3.9067   3.9110
     3.9122   3.9163   3.9327   3.9851   3.9967   4.0056   4.0295   4.0775
     4.0882   4.1648   4.1746   4.2024   4.2364   4.2469   4.2586   4.2895
     4.3112   4.3210   4.3266   4.3545   4.4208   4.4479   4.4533   4.4905
     4.4913   4.4993   4.5426   4.5826   4.5985   4.6234   4.6634   4.6854
     4.6924   4.7070   4.7251   4.7293   4.7456   4.7700   4.7871   4.8426
     4.8906   4.8947   4.8954   4.9180   4.9591   4.9860   4.9911   5.0380
     5.0684   5.0776   5.1108   5.1119   5.1414   5.1571   5.1848   5.2003
     5.2253   5.2311   5.2443   5.2939   5.3024   5.3136   5.3241   5.3447
     5.3607   5.3911   5.3971   5.4129   5.4452   5.4842   5.4868   5.5267
     5.5495   5.5645   5.5835   5.6169   5.6362   5.6534   5.6546   5.6921
     5.7373   5.7514   5.7580   5.7647   5.7853   5.7875   5.8329   5.8492
     5.8735   5.8943   5.9052   5.9065   5.9342   5.9457   5.9570   5.9830
     6.0267   6.0505   6.0599   6.0842   6.0895   6.0931   6.0981   6.1349
     6.1637   6.1793   6.2201   6.2263   6.2594   6.2716   6.2799   6.3014
     6.3140   6.3254   6.3525   6.3544   6.3617   6.3660   6.3906   6.4187
     6.4529   6.4822   6.5035   6.5302   6.5346   6.5510   6.5921   6.5929
     6.6184   6.6277   6.6305   6.6490   6.6710   6.6844   6.6902   6.7292
     6.7294   6.7659   6.7871   6.7929   6.8055   6.8124   6.8190   6.8741
     6.8936   6.9219   6.9398   6.9465   6.9526   6.9548   6.9636   7.0313
     7.0414   7.0652   7.0850   7.0919   7.1127   7.1261   7.1383   7.1510
     7.1519   7.2063   7.2301   7.2414   7.2476   7.2725   7.3036   7.3073
     7.3235   7.3558   7.3575   7.3697   7.3902   7.4142   7.4207   7.4289
     7.4297   7.4638   7.4642   7.4785   7.4943   7.5259   7.5627   7.5729
     7.5755   7.5817   7.6359   7.6598   7.6656   7.6707   7.6753   7.6802
     7.6842   7.6890   7.7109   7.7559   7.7667   7.7697   7.7738   7.8239
     7.8435   7.8663   7.8927   7.9045   7.9147   7.9198   7.9417   7.9650
     7.9737   8.0049   8.0145   8.0187   8.0225   8.0539   8.0603   8.0869
     8.1420   8.1907   8.2102   8.2141

          k = 0.0000 0.0000 0.0143 (154007 PWs)   bands (ev):

   -21.2182 -21.1576 -20.8900 -20.7806 -20.5843 -20.4749 -20.2111 -20.0640
   -20.0569 -19.8807 -19.7039 -19.5397 -19.5338 -19.3669 -18.9804 -18.9497
   -18.7828 -18.6091 -18.3774 -18.3771 -18.3631 -18.1720 -18.1343 -17.9022
   -17.6504 -17.6497 -17.4175 -17.2931 -17.1173 -17.0907 -17.0007 -16.8610
   -16.8033 -16.7954 -16.5351 -16.4778 -16.2351 -16.2190 -16.1021 -16.0480
   -15.6346 -15.4441 -14.8601 -14.8419 -14.7913 -14.6792 -14.5766 -14.5584
   -14.2523 -14.2274 -14.1707 -14.0163 -13.9622 -13.9014 -13.7741 -13.6470
   -13.5733 -13.3820 -13.0603 -12.9474 -12.9390 -12.6939 -12.5515 -12.3150
   -12.2641 -12.1539 -12.1170 -11.9856 -11.7835 -11.7697 -11.5699 -11.3808
   -11.3574 -11.3086 -11.2887 -11.1850 -10.9804 -10.8551 -10.7558 -10.6715
   -10.5782 -10.5570 -10.4247 -10.3490 -10.2435 -10.1042 -10.0035  -9.8527
    -9.8506  -9.7196  -9.6201  -9.6048  -9.4768  -9.3683  -9.3346  -9.3296
    -9.3293  -9.2486  -9.2408  -9.2400  -9.0923  -9.0767  -9.0495  -8.9512
    -8.9196  -8.8501  -8.8166  -8.7850  -8.7776  -8.6843  -8.6125  -8.5992
    -8.5693  -8.5678  -8.4775  -8.4718  -8.4189  -8.3262  -8.1994  -8.1814
    -8.1668  -8.1431  -8.0188  -7.9931  -7.8530  -7.8332  -7.8008  -7.7673
    -7.7385  -7.7092  -7.6457  -7.5594  -7.4786  -7.4064  -7.3856  -7.3375
    -7.2996  -7.2720  -7.2345  -7.1337  -7.0534  -6.9231  -6.8682  -6.8241
    -6.7886  -6.7729  -6.7338  -6.6114  -6.6107  -6.4170  -6.3846  -6.2242
    -6.2215  -6.1175  -6.0830  -6.0223  -6.0174  -5.9261  -5.8699  -5.8221
    -5.6597  -5.6171  -5.3775  -5.3598  -5.2008  -5.0970  -5.0023  -4.9270
    -4.7551  -4.7208  -4.6068  -4.5289  -4.4590  -4.4023  -4.1241  -3.9842
    -3.7186  -3.6642  -3.3319  -3.0896  -1.6296  -1.3816  -1.2969  -1.0560
    -0.7550  -0.7501  -0.5374  -0.5162  -0.3925  -0.2069  -0.1953  -0.0087
     0.0120   0.0692   0.2224   0.3647   0.6212   0.7223   0.7407   0.7584
     0.9029   0.9412   0.9494   1.1170   1.2194   1.2260   1.2845   1.2978
     1.3173   1.4961   1.5399   1.6083   1.6193   1.6370   1.6766   1.7366
     1.7713   1.8486   1.9947   2.0089   2.0288   2.0857   2.0914   2.1846
     2.2816   2.2969   2.3103   2.3635   2.3863   2.4218   2.4447   2.4558
     2.4909   2.5123   2.5873   2.5999   2.6035   2.6519   2.6928   2.7181
     2.7362   2.7736   2.7742   2.8399   2.8666   2.9857   2.9948   3.0269
     3.0398   3.0809   3.1224   3.1407   3.1420   3.1782   3.2029   3.2603
     3.2910   3.3042   3.3471   3.3678   3.4319   3.4372   3.4637   3.4708
     3.4875   3.5267   3.5412   3.6101   3.6330   3.6459   3.6540   3.7101
     3.7360   3.7583   3.8147   3.8329   3.8357   3.8443   3.9039   3.9077
     3.9079   3.9187   3.9219   3.9782   3.9994   4.0068   4.0335   4.0718
     4.0781   4.1531   4.1787   4.1964   4.2262   4.2395   4.2724   4.2837
     4.2862   4.3294   4.3390   4.3639   4.4066   4.4320   4.4528   4.4796
     4.5124   4.5157   4.5614   4.6034   4.6039   4.6092   4.6845   4.6893
[...]
    -6.7854  -6.7674  -6.7249  -6.6633  -6.5240  -6.4665  -6.3534  -6.3085
    -6.1956  -6.1649  -6.0881  -6.0764  -5.9796  -5.9436  -5.7716  -5.7655
    -5.7166  -5.7054  -5.3308  -5.3202  -5.1596  -5.0946  -5.0244  -4.9789
    -4.7276  -4.7184  -4.5879  -4.5669  -4.4318  -4.4144  -4.0865  -4.0514
    -3.6936  -3.6721  -3.2639  -3.1933  -1.5338  -1.4665  -1.1525  -1.0862
    -0.7583  -0.7579  -0.5483  -0.5482  -0.3870  -0.3427  -0.1074  -0.0607
     0.0691   0.1210   0.1522   0.2277   0.6757   0.7075   0.7536   0.7669
     0.9025   0.9073   1.0490   1.1363   1.1500   1.1727   1.3257   1.3487
     1.4759   1.5277   1.5506   1.5729   1.6064   1.6590   1.6775   1.7165
     1.8281   1.8353   1.9940   2.0438   2.0852   2.1105   2.1301   2.1971
     2.2047   2.2049   2.3215   2.3241   2.3551   2.3621   2.3876   2.4258
     2.4438   2.4690   2.5166   2.5330   2.6440   2.6715   2.7003   2.7077
     2.7149   2.7328   2.7773   2.7963   2.9342   2.9363   2.9509   3.0235
     3.1461   3.1602   3.1767   3.2047   3.2142   3.2577   3.2626   3.3023
     3.3057   3.3173   3.3190   3.3673   3.3705   3.3934   3.4574   3.4713
     3.5226   3.5320   3.6281   3.6558   3.6668   3.6829   3.6939   3.6979
     3.7352   3.7564   3.7751   3.7892   3.7930   3.8457   3.8770   3.8899
     3.8915   3.9153   3.9398   3.9506   3.9681   3.9714   4.0240   4.0362
     4.0622   4.1027   4.1220   4.1280   4.1463   4.1986   4.2208   4.2347
     4.3198   4.3551   4.3707   4.3904   4.4369   4.4456   4.4460   4.4508
     4.4877   4.5550   4.5557   4.6048   4.6121   4.6648   4.6871   4.7003
     4.7108   4.7363   4.7484   4.7708   4.8053   4.8367   4.8387   4.8399
     4.8744   4.8824   4.9208   4.9821   4.9836   4.9865   4.9934   5.0246
     5.0975   5.1008   5.1019   5.1442   5.1507   5.1547   5.1692   5.1816
     5.1900   5.2082   5.2185   5.2531   5.2632   5.2666   5.2703   5.2940
     5.3086   5.3231   5.3290   5.3700   5.4184   5.4520   5.4810   5.4961
     5.5379   5.5421   5.5681   5.6187   5.6393   5.6460   5.6608   5.6739
     5.7025   5.7166   5.7538   5.7702   5.7766   5.8053   5.8387   5.8648
     5.8650   5.8840   5.9549   5.9551   5.9785   6.0026   6.0094   6.0244
     6.0335   6.0504   6.0514   6.0621   6.1213   6.1473   6.1499   6.1825
     6.1985   6.2107   6.2347   6.2763   6.2952   6.3144   6.3357   6.3391
     6.3428   6.3530   6.3673   6.4004   6.4180   6.4231   6.4287   6.4449
     6.4663   6.4745   6.4849   6.5158   6.5328   6.5398   6.5434   6.5534
     6.5561   6.5825   6.6190   6.6261   6.6460   6.6482   6.6873   6.6888
     6.7244   6.7295   6.7480   6.7883   6.8098   6.8217   6.8306   6.8363
     6.8828   6.8879   6.9104   6.9206   6.9228   6.9361   6.9928   6.9982
     7.0209   7.0261   7.0694   7.0806   7.0908   7.1367   7.1547   7.1729
     7.1918   7.2079   7.2228   7.2623   7.2936   7.3093   7.3154   7.3279
     7.3326   7.3431   7.3505   7.3874   7.4105   7.4194   7.4518   7.4575
     7.4726   7.4727   7.4985   7.4995   7.5286   7.5641   7.5682   7.5927
     7.6082   7.6143   7.6199   7.6232   7.6257   7.6461   7.6842   7.6944
     7.7099   7.7370   7.7380   7.7792   7.7923   7.7942   7.8097   7.8335
     7.8452   7.8545   7.8796   7.8836   7.9111   7.9236   7.9726   7.9815
     7.9995   8.0028   8.0251   8.0330   8.0686   8.0933   8.0993   8.0994
     8.1379   8.1610   8.1793   8.1865

          k = 0.0000 0.0000 0.0252 (153860 PWs)   bands (ev):

   -21.1967 -21.1858 -20.8475 -20.8284 -20.5338 -20.5143 -20.1658 -20.1394
   -19.9916 -19.9613 -19.6305 -19.6008 -19.4477 -19.4169 -18.9691 -18.9652
   -18.7050 -18.6754 -18.3987 -18.3963 -18.3047 -18.2745 -18.0364 -17.9960
   -17.6169 -17.6088 -17.3089 -17.2517 -17.2205 -17.1827 -16.9283 -16.8998
   -16.7937 -16.7928 -16.4886 -16.4807 -16.2462 -16.2422 -16.1120 -16.1044
   -15.5541 -15.5185 -14.8181 -14.8017 -14.7455 -14.7211 -14.5816 -14.5631
   -14.2023 -14.1962 -14.1238 -14.0584 -13.9313 -13.9283 -13.7801 -13.7380
   -13.5832 -13.5410 -13.0066 -12.9851 -12.8427 -12.7993 -12.3926 -12.3498
   -12.1930 -12.1587 -12.0301 -11.9838 -11.7916 -11.7359 -11.5358 -11.5322
   -11.3762 -11.3515 -11.2894 -11.2721 -10.9112 -10.8621 -10.7381 -10.7034
   -10.5277 -10.5199 -10.4182 -10.3968 -10.2505 -10.1923  -9.9048  -9.8593
    -9.7788  -9.7625  -9.6154  -9.5781  -9.5230  -9.4835  -9.3048  -9.2895
    -9.2731  -9.2480  -9.2183  -9.1971  -9.1712  -9.1611  -9.0196  -8.9848
    -8.8964  -8.8729  -8.7977  -8.7761  -8.7423  -8.7224  -8.5697  -8.5630
    -8.5176  -8.5061  -8.4996  -8.4874  -8.3382  -8.3372  -8.2513  -8.2455
    -8.1353  -8.1076  -8.0632  -7.9960  -7.9063  -7.8683  -7.8105  -7.8079
    -7.7139  -7.7133  -7.5986  -7.5699  -7.4818  -7.4513  -7.3359  -7.3212
    -7.2825  -7.2743  -7.2724  -7.2270  -6.9808  -6.9576  -6.7953  -6.7871
    -6.7842  -6.7708  -6.7138  -6.6724  -6.5143  -6.4759  -6.3462  -6.3164
    -6.1914  -6.1709  -6.0869  -6.0792  -5.9736  -5.9494  -5.7605  -5.7570
    -5.7243  -5.7163  -5.3279  -5.3204  -5.1496  -5.1058  -5.0164  -4.9860
    -4.7255  -4.7193  -4.5848  -4.5707  -4.4287  -4.4170  -4.0812  -4.0578
    -3.6900  -3.6755  -3.2529  -3.2056  -1.5224  -1.4774  -1.1387  -1.0943
    -0.7587  -0.7583  -0.5492  -0.5490  -0.3826  -0.3532  -0.0989  -0.0678
     0.0771   0.1116   0.1637   0.2141   0.6815   0.7027   0.7568   0.7658
     0.9012   0.9047   1.0659   1.1332   1.1414   1.1658   1.3311   1.3468
     1.4968   1.5308   1.5475   1.5611   1.6143   1.6509   1.6843   1.7110
     1.8306   1.8373   1.9984   2.0337   2.0929   2.1099   2.1422   2.1921
     2.1985   2.2018   2.3238   2.3263   2.3489   2.3505   2.3926   2.4186
     2.4485   2.4656   2.5158   2.5273   2.6520   2.6790   2.6953   2.7048
     2.7082   2.7267   2.7837   2.7973   2.9288   2.9307   2.9629   3.0115
     3.1643   3.1667   3.1797   3.2149   3.2248   3.2488   3.2623   3.2905
     3.3050   3.3142   3.3230   3.3591   3.3778   3.3934   3.4474   3.4588
     3.5463   3.5471   3.6129   3.6433   3.6660   3.6907   3.6967   3.7219
     3.7259   3.7579   3.7725   3.7965   3.8126   3.8368   3.8524   3.8823
     3.9114   3.9123   3.9266   3.9567   3.9670   3.9761   4.0106   4.0139
     4.0787   4.1053   4.1215   4.1273   4.1406   4.1736   4.2338   4.2397
     4.3247   4.3484   4.3833   4.3930   4.4297   4.4448   4.4481   4.4647
     4.4724   4.5378   4.5656   4.6037   4.6112   4.6537   4.7025   4.7076
     4.7108   4.7356   4.7571   4.7704   4.7890   4.8394   4.8421   4.8451
     4.8777   4.8954   4.9274   4.9778   4.9912   4.9971   4.9994   5.0111
     5.0968   5.1004   5.1037   5.1352   5.1352   5.1497   5.1738   5.1873
     5.1913   5.2136   5.2276   5.2372   5.2546   5.2623   5.2692   5.2821
     5.3277   5.3314   5.3345   5.3675   5.4081   5.4469   5.4601   5.4815
     5.5405   5.5474   5.5817   5.6200   5.6495   5.6545   5.6623   5.6720
     5.6849   5.7039   5.7576   5.7693   5.7898   5.7990   5.8345   5.8664
     5.8680   5.8847   5.9368   5.9597   5.9808   5.9837   6.0187   6.0306
     6.0334   6.0521   6.0607   6.0838   6.1214   6.1465   6.1476   6.1739
     6.1755   6.2062   6.2608   6.2837   6.3014   6.3272   6.3329   6.3527
     6.3535   6.3609   6.3675   6.3969   6.4219   6.4349   6.4385   6.4406
     6.4714   6.4813   6.4858   6.5242   6.5244   6.5358   6.5440   6.5471
     6.5519   6.5826   6.5932   6.6112   6.6113   6.6428   6.6946   6.7056
     6.7228   6.7274   6.7465   6.7843   6.8204   6.8209   6.8351   6.8409
     6.8721   6.8770   6.9158   6.9237   6.9310   6.9313   6.9854   7.0078
     7.0146   7.0222   7.0718   7.0860   7.0926   7.1261   7.1648   7.1781
     7.1898   7.1915   7.2100   7.2464   7.2854   7.2935   7.3234   7.3252
     7.3383   7.3461   7.3666   7.3905   7.4105   7.4289   7.4534   7.4556
     7.4670   7.4992   7.5195   7.5242   7.5343   7.5701   7.5738   7.5938
     7.5962   7.6102   7.6113   7.6190   7.6266   7.6329   7.6815   7.6924
     7.6970   7.7224   7.7561   7.7859   7.7885   7.7926   7.8096   7.8313
     7.8454   7.8777   7.8779   7.8909   7.9120   7.9318   7.9669   7.9700
     7.9929   8.0033   8.0074   8.0363   8.0913   8.0958   8.1001   8.1013
     8.1499   8.1579   8.1860   8.1885

          k = 0.0000 0.0000 0.0263 (153872 PWs)   bands (ev):

   -21.1940 -21.1886 -20.8428 -20.8332 -20.5288 -20.5191 -20.1595 -20.1463
   -19.9841 -19.9690 -19.6230 -19.6081 -19.4395 -19.4241 -18.9681 -18.9662
   -18.6974 -18.6826 -18.3987 -18.3974 -18.2976 -18.2825 -18.0263 -18.0060
   -17.6142 -17.6100 -17.2948 -17.2661 -17.2112 -17.1923 -16.9210 -16.9067
   -16.7931 -16.7926 -16.4860 -16.4821 -16.2457 -16.2437 -16.1110 -16.1072
   -15.5452 -15.5273 -14.8137 -14.8053 -14.7390 -14.7266 -14.5770 -14.5674
   -14.2000 -14.1967 -14.1089 -14.0758 -13.9293 -13.9275 -13.7718 -13.7505
   -13.5738 -13.5527 -13.0011 -12.9903 -12.8318 -12.8101 -12.3813 -12.3599
   -12.1837 -12.1665 -12.0175 -11.9939 -11.7771 -11.7479 -11.5362 -11.5353
   -11.3713 -11.3587 -11.2859 -11.2773 -10.8993 -10.8746 -10.7288 -10.7115
   -10.5232 -10.5190 -10.4169 -10.4059 -10.2349 -10.2057  -9.8931  -9.8702
    -9.7740  -9.7659  -9.6064  -9.5876  -9.5149  -9.4952  -9.3011  -9.2935
    -9.2653  -9.2529  -9.2064  -9.1886  -9.1830  -9.1704  -9.0114  -8.9940
    -8.8905  -8.8788  -8.7916  -8.7807  -8.7375  -8.7276  -8.5677  -8.5641
    -8.5128  -8.5038  -8.4997  -8.4903  -8.3352  -8.3352  -8.2533  -8.2502
    -8.1290  -8.1152  -8.0479  -8.0143  -7.8969  -7.8780  -7.8090  -7.8077
    -7.7133  -7.7130  -7.5920  -7.5776  -7.4740  -7.4588  -7.3329  -7.3256
    -7.2802  -7.2751  -7.2621  -7.2384  -6.9746  -6.9630  -6.7930  -6.7889
    -6.7808  -6.7741  -6.7028  -6.6820  -6.5046  -6.4855  -6.3389  -6.3240
    -6.1869  -6.1766  -6.0855  -6.0817  -5.9676  -5.9554  -5.7494  -5.7487
    -5.7322  -5.7272  -5.3254  -5.3214  -5.1390  -5.1170  -5.0086  -4.9933
    -4.7235  -4.7205  -4.5815  -4.5745  -4.4256  -4.4197  -4.0757  -4.0640
    -3.6863  -3.6790  -3.2415  -3.2177  -1.5110  -1.4885  -1.1259  -1.1036
    -0.7589  -0.7587  -0.5497  -0.5496  -0.3770  -0.3624  -0.0907  -0.0751
     0.0853   0.1025   0.1756   0.2008   0.6870   0.6977   0.7597   0.7643
     0.9009   0.9027   1.0827   1.1164   1.1469   1.1591   1.3360   1.3439
     1.5156   1.5347   1.5434   1.5477   1.6233   1.6420   1.6912   1.7048
     1.8333   1.8372   2.0052   2.0235   2.0993   2.1079   2.1544   2.1794
     2.1992   2.2003   2.3266   2.3313   2.3404   2.3427   2.3984   2.4116
     2.4531   2.4618   2.5166   2.5225   2.6613   2.6822   2.6875   2.7013
     2.7098   2.7208   2.7893   2.7964   2.9257   2.9269   2.9750   2.9994
     3.1724   3.1795   3.1823   3.2132   3.2358   3.2491   3.2562   3.2752
     3.3083   3.3125   3.3315   3.3501   3.3839   3.3919   3.4423   3.4487
     3.5631   3.5705   3.5966   3.6192   3.6759   3.6922   3.6991   3.7168
     3.7463   3.7583   3.7736   3.8017   3.8266   3.8274   3.8360   3.8728
     3.9105   3.9160   3.9328   3.9622   3.9637   3.9821   3.9915   3.9991
     4.0973   4.1111   4.1152   4.1307   4.1365   4.1493   4.2427   4.2443
     4.3290   4.3412   4.3929   4.4044   4.4145   4.4372   4.4516   4.4630
     4.4835   4.5201   4.5761   4.5952   4.6203   4.6423   4.7047   4.7094
     4.7280   4.7364   4.7465   4.7670   4.7962   4.8335   4.8404   4.8447
     4.8883   4.9019   4.9407   4.9740   4.9799   4.9851   5.0174   5.0232
     5.0977   5.0995   5.1032   5.1172   5.1323   5.1429   5.1799   5.1895
     5.1987   5.2163   5.2266   5.2347   5.2381   5.2574   5.2681   5.2724
     5.3414   5.3460   5.3594   5.3656   5.3943   5.4279   5.4480   5.4667
     5.5429   5.5473   5.6062   5.6313   5.6489   5.6603   5.6627   5.6681
     5.6697   5.6875   5.7612   5.7672   5.8031   5.8101   5.8264   5.8543
     5.8707   5.8813   5.9368   5.9655   5.9665   5.9787   6.0226   6.0279
     6.0436   6.0520   6.0752   6.1063   6.1131   6.1395   6.1442   6.1523
     6.1800   6.1988   6.2755   6.2849   6.3098   6.3265   6.3465   6.3599
     6.3643   6.3681   6.3706   6.3894   6.4197   6.4285   6.4406   6.4451
     6.4856   6.4951   6.4952   6.5167   6.5299   6.5324   6.5366   6.5455
     6.5498   6.5680   6.5789   6.5816   6.6099   6.6331   6.7018   6.7160
     6.7273   6.7328   6.7433   6.7700   6.8253   6.8275   6.8384   6.8512
     6.8575   6.8699   6.9119   6.9153   6.9424   6.9503   6.9711   6.9892
     7.0276   7.0278   7.0747   7.0869   7.0978   7.1187   7.1756   7.1827
     7.1829   7.1896   7.1994   7.2240   7.2785   7.2788   7.3258   7.3339
     7.3366   7.3473   7.3892   7.3945   7.4038   7.4265   7.4538   7.4544
     7.4791   7.5191   7.5256   7.5461   7.5479   7.5749   7.5757   7.5875
     7.5881   7.5989   7.6005   7.6154   7.6251   7.6314   7.6793   7.6872
     7.6936   7.7094   7.7693   7.7774   7.7872   7.7877   7.8257   7.8362
     7.8440   7.8644   7.8951   7.9103   7.9121   7.9413   7.9554   7.9630
     7.9842   7.9849   8.0114   8.0340   8.0970   8.1010   8.1013   8.1261
     8.1368   8.1553   8.1768   8.1854

          k = 0.0000 0.0000-0.0274 (153870 PWs)   bands (ev):

   -21.1914 -21.1913 -20.8380 -20.8380 -20.5240 -20.5239 -20.1531 -20.1530
   -19.9767 -19.9766 -19.6156 -19.6155 -19.4317 -19.4317 -18.9672 -18.9671
   -18.6900 -18.6900 -18.3983 -18.3982 -18.2903 -18.2901 -18.0162 -18.0161
   -17.6119 -17.6119 -17.2806 -17.2805 -17.2019 -17.2017 -16.9139 -16.9137
   -16.7928 -16.7927 -16.4839 -16.4838 -16.2449 -16.2448 -16.1094 -16.1093
   -15.5362 -15.5361 -14.8095 -14.8094 -14.7327 -14.7326 -14.5722 -14.5721
   -14.1981 -14.1980 -14.0928 -14.0927 -13.9280 -13.9278 -13.7619 -13.7617
   -13.5637 -13.5635 -12.9958 -12.9956 -12.8210 -12.8209 -12.3704 -12.3704
   -12.1749 -12.1748 -12.0053 -12.0052 -11.7621 -11.7620 -11.5363 -11.5363
   -11.3654 -11.3653 -11.2819 -11.2819 -10.8871 -10.8869 -10.7200 -10.7199
   -10.5202 -10.5201 -10.4128 -10.4127 -10.2199 -10.2199  -9.8815  -9.8815
    -9.7698  -9.7697  -9.5972  -9.5969  -9.5057  -9.5056  -9.2974  -9.2973
    -9.2587  -9.2585  -9.1948  -9.1946  -9.1796  -9.1796  -9.0029  -9.0028
    -8.8847  -8.8846  -8.7859  -8.7859  -8.7327  -8.7326  -8.5659  -8.5657
    -8.5083  -8.5082  -8.4944  -8.4944  -8.3343  -8.3342  -8.2530  -8.2529
    -8.1223  -8.1223  -8.0317  -8.0315  -7.8875  -7.8875  -7.8082  -7.8079
    -7.7131  -7.7129  -7.5850  -7.5849  -7.4664  -7.4663  -7.3296  -7.3294
    -7.2779  -7.2776  -7.2501  -7.2501  -6.9687  -6.9685  -6.7909  -6.7908
    -6.7775  -6.7773  -6.6923  -6.6921  -6.4951  -6.4950  -6.3317  -6.3314
    -6.1820  -6.1819  -6.0838  -6.0837  -5.9615  -5.9614  -5.7404  -5.7403
    -5.7383  -5.7382  -5.3232  -5.3231  -5.1282  -5.1281  -5.0009  -5.0008
    -4.7220  -4.7218  -4.5782  -4.5780  -4.4226  -4.4225  -4.0700  -4.0699
    -3.6827  -3.6826  -3.2298  -3.2297  -1.4997  -1.4997  -1.1142  -1.1142
    -0.7589  -0.7588  -0.5498  -0.5498  -0.3704  -0.3703  -0.0829  -0.0826
     0.0937   0.0938   0.1879   0.1882   0.6924   0.6925   0.7622   0.7622
     0.9014   0.9014   1.0995   1.0996   1.1528   1.1528   1.3403   1.3403
     1.5325   1.5326   1.5390   1.5390   1.6327   1.6327   1.6981   1.6982
     1.8357   1.8357   2.0138   2.0138   2.1043   2.1044   2.1667   2.1669
     2.1997   2.1997   2.3323   2.3323   2.3368   2.3368   2.4048   2.4048
     2.4576   2.4576   2.5189   2.5189   2.6716   2.6717   2.6941   2.6942
     2.7151   2.7151   2.7937   2.7937   2.9250   2.9251   2.9872   2.9872
     3.1769   3.1769   3.1994   3.1995   3.2467   3.2467   3.2605   3.2606
     3.3110   3.3110   3.3408   3.3408   3.3887   3.3887   3.4428   3.4429
     3.5797   3.5799   3.5948   3.5948   3.6848   3.6849   3.7078   3.7079
     3.7570   3.7570   3.7887   3.7887   3.8208   3.8210   3.8565   3.8566
     3.9109   3.9111   3.9513   3.9513   3.9739   3.9740   3.9897   3.9897
     4.1088   4.1088   4.1267   4.1267   4.1335   4.1335   4.2459   4.2460
     4.3345   4.3345   4.4022   4.4022   4.4210   4.4210   4.4572   4.4573
     4.5019   4.5020   4.5860   4.5861   4.6309   4.6310   4.7071   4.7072
     4.7397   4.7398   4.7479   4.7480   4.8165   4.8165   4.8423   4.8425
     4.8986   4.8986   4.9594   4.9595   4.9776   4.9776   5.0274   5.0275
     5.1002   5.1002   5.1037   5.1038   5.1363   5.1363   5.1854   5.1854
     5.2145   5.2145   5.2204   5.2205   5.2489   5.2489   5.2683   5.2684
     5.3480   5.3481   5.3773   5.3774   5.3931   5.3931   5.4549   5.4549
     5.5453   5.5453   5.6310   5.6310   5.6476   5.6476   5.6673   5.6674
     5.6725   5.6725   5.7644   5.7645   5.8155   5.8156   5.8314   5.8315
     5.8761   5.8761   5.9489   5.9489   5.9734   5.9734   6.0253   6.0254
     6.0495   6.0496   6.0944   6.0944   6.1292   6.1292   6.1406   6.1407
     6.1895   6.1896   6.2820   6.2822   6.3186   6.3186   6.3639   6.3639
     6.3645   6.3645   6.3805   6.3806   6.4193   6.4194   6.4446   6.4446
     6.4989   6.4990   6.5084   6.5084   6.5257   6.5257   6.5471   6.5472
     6.5499   6.5499   6.5702   6.5703   6.6210   6.6211   6.7090   6.7090
     6.7381   6.7383   6.7499   6.7500   6.8290   6.8290   6.8458   6.8458
     6.8611   6.8611   6.9115   6.9115   6.9549   6.9549   6.9707   6.9707
     7.0316   7.0316   7.0807   7.0809   7.1077   7.1078   7.1859   7.1860
     7.1866   7.1866   7.1998   7.1999   7.2754   7.2755   7.3295   7.3296
     7.3439   7.3440   7.3988   7.3988   7.4101   7.4101   7.4538   7.4540
     7.5007   7.5007   7.5470   7.5471   7.5659   7.5659   7.5795   7.5795
     7.5905   7.5906   7.6023   7.6023   7.6297   7.6297   7.6813   7.6813
     7.6989   7.6989   7.7739   7.7739   7.7864   7.7864   7.8411   7.8411
     7.8452   7.8452   7.9047   7.9048   7.9403   7.9404   7.9484   7.9484
     7.9791   7.9792   8.0237   8.0237   8.1009   8.1009   8.1150   8.1150
     8.1442   8.1443   8.1827   8.1828

     the Fermi energy is    -2.9362 ev

     Writing output data file V9_7.save/

     init_run     :     24.06s CPU     24.51s WALL (       1 calls)
     electrons    :  10300.78s CPU  10384.41s WALL (       1 calls)

     Called by init_run:
     wfcinit      :      0.00s CPU      0.00s WALL (       1 calls)
     potinit      :      1.30s CPU      1.41s WALL (       1 calls)
     hinit0       :     19.11s CPU     19.19s WALL (       1 calls)

     Called by electrons:
     c_bands      :  10300.68s CPU  10384.25s WALL (       1 calls)
     v_of_rho     :      0.98s CPU      1.02s WALL (       1 calls)
     newd         :      0.87s CPU      1.08s WALL (       1 calls)

     Called by c_bands:
     init_us_2    :      1.15s CPU      1.18s WALL (      26 calls)
     cegterg      :  10068.99s CPU  10142.03s WALL (      64 calls)

     Called by sum_band:

     Called by *egterg:
     h_psi        :   2879.20s CPU   2917.86s WALL (    1140 calls)
     s_psi        :    425.61s CPU    426.41s WALL (    1140 calls)
     g_psi        :     18.10s CPU     18.14s WALL (    1050 calls)
     cdiaghg      :   3340.28s CPU   3346.14s WALL (    1076 calls)

     Called by h_psi:
     h_psi:pot    :   2869.90s CPU   2904.50s WALL (    1140 calls)
     h_psi:calbec :    432.04s CPU    434.66s WALL (    1140 calls)
     vloc_psi     :   2012.11s CPU   2043.31s WALL (    1140 calls)
     add_vuspsi   :    425.73s CPU    426.53s WALL (    1140 calls)

     General routines
     calbec       :    432.04s CPU    434.65s WALL (    1140 calls)
     fft          :      1.11s CPU      1.17s WALL (      14 calls)
     ffts         :      0.01s CPU      0.01s WALL (       1 calls)
     fftw         :   1815.43s CPU   1845.74s WALL (  545708 calls)
     interpolate  :      0.07s CPU      0.07s WALL (       1 calls)
     davcio       :      0.01s CPU      7.21s WALL (      52 calls)

     Parallel routines
     fft_scatt_xy :    211.92s CPU    212.91s WALL (  545723 calls)
     fft_scatt_yz :    911.66s CPU    937.87s WALL (  545723 calls)

     PWSCF        :     2h52m CPU       52h 3m WALL

       0h

   This run was terminated on:  17:12:56  20Apr2021            

=------------------------------------------------------------------------------=
   JOB DONE.
=------------------------------------------------------------------------------=
