
     Program PWSCF v.6.3 starts on 20Apr2021 at 15:56:53 

     This program is part of the open-source Quantum ESPRESSO suite
     for quantum simulation of materials; please cite
         "P. Giannozzi et al., J. Phys.:Condens. Matter 21 395502 (2009);
         "P. Giannozzi et al., J. Phys.:Condens. Matter 29 465901 (2017);
          URL http://www.quantum-espresso.org", 
     in publications or presentations arising from this work. More details at
     http://www.quantum-espresso.org/quote

     Parallel version (MPI), running on    16 processors
     R & G space division:  proc/nbgrp/npool/nimage =      16
     Waiting for input...
     Reading input from standard input
     Message from routine read_cards :
     DEPRECATED: no units specified in CELL_PARAMETERS card

     Current dimensions of program PWSCF are:
     Max number of different atomic species (ntypx) = 10
     Max number of k-points (npk) =  40000
     Max angular momentum in pseudopotentials (lmaxx) =  3

     Atomic positions and unit cell read from directory:
     /home/zfwang/scratch/GNRDATASET/AGNR/V9_m3/V9_m3.save/


     Subspace diagonalization in iterative solution of the eigenvalue problem:
     a serial algorithm will be used


     Parallelization info
     --------------------
     sticks:   dense  smooth     PW     G-vecs:    dense   smooth      PW
     Min        2497     832    214               362851    69829    9148
     Max        2498     833    215               362854    69831    9151
     Sum       39953   13323   3439              5805625  1117275  146413



     bravais-lattice index     =            0
     lattice parameter (alat)  =       1.8897  a.u.
     unit-cell volume          =   32692.9225 (a.u.)^3
     number of atoms/cell      =          108
     number of atomic types    =            2
     number of electrons       =       360.00
     number of Kohn-Sham states=          500
     kinetic-energy cutoff     =      40.0000  Ry
     charge density cutoff     =     480.0000  Ry
     Exchange-correlation      = PBE ( 1  4  3  4 0 0)

     celldm(1)=  18.897261  celldm(2)=   2.931000  celldm(3)=   1.652880
     celldm(4)=   0.000000  celldm(5)=   0.000000  celldm(6)=   0.000000

     crystal axes: (cart. coord. in units of alat)
               a(1) = (  10.000000   0.000000   0.000000 )  
               a(2) = (   0.000000  29.310000   0.000000 )  
               a(3) = (   0.000000   0.000000  16.528800 )  

     reciprocal axes: (cart. coord. in units 2 pi/alat)
               b(1) = (  0.100000  0.000000  0.000000 )  
               b(2) = (  0.000000  0.034118  0.000000 )  
               b(3) = (  0.000000  0.000000  0.060500 )  


     PseudoPot. # 1 for C  read from file:
     /home/zfwang/hp_home/MySoftware/qe-6.3/pseudo/C.pbe-n-rrkjus_psl.0.1.UPF
     MD5 check sum: fff530ed632a789b3b184014e67dd7f1
     Pseudo is Ultrasoft + core correction, Zval =  4.0
     Generated using "atomic" code by A. Dal Corso v.5.0.2 svn rev. 9415
     Using radial grid of 1073 points,  4 beta functions with: 
                l(1) =   0
                l(2) =   0
                l(3) =   1
                l(4) =   1
     Q(r) pseudized with 0 coefficients 


     PseudoPot. # 2 for H  read from file:
     /home/zfwang/hp_home/MySoftware/qe-6.3/pseudo/H.pbe-rrkjus_psl.0.1.UPF
     MD5 check sum: e164a6907b691c6980f16942be34de84
     Pseudo is Ultrasoft, Zval =  1.0
     Generated using "atomic" code by A. Dal Corso v.5.0.2 svn rev. 9415
     Using radial grid of  929 points,  2 beta functions with: 
                l(1) =   0
                l(2) =   0
     Q(r) pseudized with 0 coefficients 


     atomic species   valence    mass     pseudopotential
        C              4.00    12.01070     C ( 1.00)
        H              1.00     1.00794     H ( 1.00)

     No symmetry found



   Cartesian axes

     site n.     atom                  positions (alat units)
         1           C   tau(   1) = (   5.0000016   5.9540387   2.8611271  )
         2           C   tau(   2) = (   4.9999999   5.9371839  15.0571276  )
         3           C   tau(   3) = (   5.0000013   7.1582667   3.5506344  )
         4           C   tau(   4) = (   4.9999998   7.1279175  15.7975555  )
         5           C   tau(   5) = (   5.0000010   5.9371842   1.4716739  )
         6           C   tau(   6) = (   4.9999999   5.9540379  13.6676748  )
         7           C   tau(   7) = (   5.0000004   8.3822861   2.8644425  )
         8           C   tau(   8) = (   4.9999992   8.3677321  15.0924582  )
         9           C   tau(   9) = (   5.0000004   9.6549728   3.5700316  )
        10           C   tau(  10) = (   5.0000001   9.7396389  11.5529126  )
        11           C   tau(  11) = (   4.9999989   9.6041465  15.8195209  )
        12           C   tau(  12) = (   5.0000002   7.1279172   0.7312461  )
        13           C   tau(  13) = (   4.9999997   7.1582665  12.9781664  )
        14           C   tau(  14) = (   4.9999999   8.3677327   1.4363427  )
        15           C   tau(  15) = (   4.9999992   8.3822859  13.6643595  )
        16           C   tau(  16) = (   5.0000001  10.8653579   2.8361356  )
        17           C   tau(  17) = (   5.0000006  10.9538884  10.9029881  )
        18           C   tau(  18) = (   4.9999985  10.8384035  15.1195180  )
        19           C   tau(  19) = (   5.0000006  12.1210441   3.5139637  )
        20           C   tau(  20) = (   5.0000000  12.1686797  11.6165416  )
        21           C   tau(  21) = (   4.9999986  12.0622352  15.8262561  )
        22           C   tau(  22) = (   4.9999993   9.6041453   0.7092806  )
        23           C   tau(  23) = (   5.0000006   9.7396415   4.9758911  )
        24           C   tau(  24) = (   4.9999991   9.6549721  12.9587674  )
        25           C   tau(  25) = (   4.9999995  10.8384064   1.4092802  )
        26           C   tau(  26) = (   5.0000009  10.9538866   5.6258099  )
        27           C   tau(  27) = (   4.9999987  10.8653580  13.6926691  )
        28           C   tau(  28) = (   5.0000003  13.3552706   2.7906018  )
        29           C   tau(  29) = (   5.0000009  13.5581483   6.9069939  )
        30           C   tau(  30) = (   5.0000004  13.4666923  10.9806941  )
        31           C   tau(  31) = (   4.9999983  13.3097041  15.1310099  )
        32           C   tau(  32) = (   5.0000007  14.6232993   3.4359269  )
        33           C   tau(  33) = (   5.0000010  14.7761698   7.5588819  )
        34           C   tau(  34) = (   4.9999997  14.6867011  11.7003318  )
        35           C   tau(  35) = (   4.9999986  14.5338262  15.8232699  )
        36           C   tau(  36) = (   4.9999992  12.0622309   0.7025472  )
        37           C   tau(  37) = (   5.0000009  12.1686812   4.9122644  )
        38           C   tau(  38) = (   4.9999990  12.1210435  13.0148312  )
        39           C   tau(  39) = (   4.9999996  13.3097097   1.3977796  )
        40           C   tau(  40) = (   5.0000011  13.4666918   5.5480993  )
        41           C   tau(  41) = (   5.0000015  13.5581479   9.6218132  )
        42           C   tau(  42) = (   4.9999986  13.3552700  13.7382120  )
        43           C   tau(  43) = (   5.0000005  15.8433030   2.7163412  )
        44           C   tau(  44) = (   5.0000006  16.0002913   6.8666095  )
        45           C   tau(  45) = (   4.9999999  15.9547303  11.0549678  )
        46           C   tau(  46) = (   4.9999991  15.7518564  15.1714017  )
        47           C   tau(  47) = (   5.0000010  17.1413187   3.3521457  )
        48           C   tau(  48) = (   5.0000004  17.2477698   7.5618711  )
        49           C   tau(  49) = (   4.9999995  17.1889512  11.7783514  )
        50           C   tau(  50) = (   4.9999990  14.5338227   0.7055375  )
        51           C   tau(  51) = (   5.0000010  14.6867022   4.8284778  )
        52           C   tau(  52) = (   5.0000011  14.7761698   8.9699169  )
        53           C   tau(  53) = (   4.9999989  14.6232992  13.0928614  )
        54           C   tau(  54) = (   4.9999991  15.7518585   1.3573761  )
        55           C   tau(  55) = (   5.0000006  15.9547307   5.4738286  )
        56           C   tau(  56) = (   5.0000004  16.0002926   9.6621938  )
        57           C   tau(  57) = (   4.9999991  15.8433033  13.8124838  )
        58           C   tau(  58) = (   5.0000018  18.3561050   2.6386161  )
        59           C   tau(  59) = (   5.0000001  18.4715929   6.8551222  )
        60           C   tau(  60) = (   4.9999996  18.4446444  11.1005117  )
        61           C   tau(  61) = (   5.0000012  19.5703568   3.2885351  )
        62           C   tau(  62) = (   5.0000000  19.7058618   7.5551287  )
        63           C   tau(  63) = (   4.9999994  19.6550238  11.8344151  )
        64           C   tau(  64) = (   5.0000006  17.1889491   4.7504550  )
        65           C   tau(  65) = (   5.0000002  17.2477679   8.9669290  )
        66           C   tau(  66) = (   4.9999993  17.1413182  13.1766463  )
        67           C   tau(  67) = (   5.0000002  18.4446458   5.4282868  )
        68           C   tau(  68) = (   4.9999998  18.4715950   9.6736795  )
        69           C   tau(  69) = (   4.9999991  18.3561047  13.8901904  )
        70           C   tau(  70) = (   4.9999995  20.9422730   6.8280574  )
        71           C   tau(  71) = (   4.9999997  20.9277191  11.1288425  )
        72           C   tau(  72) = (   4.9999996  22.1820890   7.5331543  )
        73           C   tau(  73) = (   5.0000002  22.1517332  11.8150479  )
        74           C   tau(  74) = (   5.0000000  19.6550225   4.6943880  )
        75           C   tau(  75) = (   4.9999998  19.7058609   8.9736719  )
        76           C   tau(  76) = (   4.9999992  19.5703586  13.2402624  )
        77           C   tau(  77) = (   4.9999991  20.9277194   5.3999573  )
        78           C   tau(  78) = (   4.9999999  20.9422734   9.7007434  )
        79           C   tau(  79) = (   4.9999988  23.3728172   6.7927204  )
        80           C   tau(  80) = (   5.0000011  23.3559619  11.1255371  )
        81           C   tau(  81) = (   4.9999979  22.1517331   4.7137531  )
        82           C   tau(  82) = (   5.0000002  22.1820887   8.9956461  )
        83           C   tau(  83) = (   4.9999978  23.3559616   5.4032630  )
        84           C   tau(  84) = (   5.0000011  23.3728175   9.7360802  )
        85           H   tau(  85) = (   5.0000022   5.0139048   3.4137441  )
        86           H   tau(  86) = (   4.9999999   4.9749579  15.5646844  )
        87           H   tau(  87) = (   5.0000019   7.1380879   4.6385019  )
        88           H   tau(  88) = (   5.0000012   4.9749579   0.9641175  )
        89           H   tau(  89) = (   5.0000001   5.0139042  13.1150577  )
        90           H   tau(  90) = (   5.0000006   8.8347846  10.9488090  )
        91           H   tau(  91) = (   4.9999998   7.1380875  11.8902999  )
        92           H   tau(  92) = (   5.0000015  10.9482630   9.8152787  )
        93           H   tau(  93) = (   5.0000005   8.8347846   5.5799920  )
        94           H   tau(  94) = (   5.0000009  10.9482632   6.7135234  )
        95           H   tau(  95) = (   5.0000004  12.6383188   7.4665951  )
        96           H   tau(  96) = (   5.0000025  12.6383176   9.0622047  )
        97           H   tau(  97) = (   4.9999999  16.6716796  15.7309894  )
        98           H   tau(  98) = (   4.9999981  16.6716766   0.7978143  )
        99           H   tau(  99) = (   5.0000031  18.3617362   1.5508984  )
       100           H   tau( 100) = (   5.0000021  20.4752072   2.6844328  )
       101           H   tau( 101) = (   4.9999988  18.3617368  14.9779006  )
       102           H   tau( 102) = (   5.0000003  22.1719093  12.9029152  )
       103           H   tau( 103) = (   4.9999989  20.4752073  13.8443682  )
       104           H   tau( 104) = (   4.9999989  24.3350448   7.3002742  )
       105           H   tau( 105) = (   5.0000017  24.2960973  11.6781516  )
       106           H   tau( 106) = (   4.9999972  22.1719091   3.6258847  )
       107           H   tau( 107) = (   4.9999970  24.2960970   4.8506488  )
       108           H   tau( 108) = (   5.0000017  24.3350448   9.2285261  )

     number of k points=    26  Marzari-Vanderbilt smearing, width (Ry)=  0.0100
                       cart. coord. in units 2pi/alat
        k(    1) = (   0.0000000   0.0000000   0.0000000), wk =   0.0400000
        k(    2) = (   0.0000000   0.0000000   0.0012100), wk =   0.0800000
        k(    3) = (   0.0000000   0.0000000   0.0024200), wk =   0.0800000
        k(    4) = (   0.0000000   0.0000000   0.0036300), wk =   0.0800000
        k(    5) = (   0.0000000   0.0000000   0.0048400), wk =   0.0800000
        k(    6) = (   0.0000000   0.0000000   0.0060500), wk =   0.0800000
        k(    7) = (   0.0000000   0.0000000   0.0072601), wk =   0.0800000
        k(    8) = (   0.0000000   0.0000000   0.0084701), wk =   0.0800000
        k(    9) = (   0.0000000   0.0000000   0.0096801), wk =   0.0800000
        k(   10) = (   0.0000000   0.0000000   0.0108901), wk =   0.0800000
        k(   11) = (   0.0000000   0.0000000   0.0121001), wk =   0.0800000
        k(   12) = (   0.0000000   0.0000000   0.0133101), wk =   0.0800000
        k(   13) = (   0.0000000   0.0000000   0.0145201), wk =   0.0800000
        k(   14) = (   0.0000000   0.0000000   0.0157301), wk =   0.0800000
        k(   15) = (   0.0000000   0.0000000   0.0169401), wk =   0.0800000
        k(   16) = (   0.0000000   0.0000000   0.0181501), wk =   0.0800000
        k(   17) = (   0.0000000   0.0000000   0.0193601), wk =   0.0800000
        k(   18) = (   0.0000000   0.0000000   0.0205702), wk =   0.0800000
        k(   19) = (   0.0000000   0.0000000   0.0217802), wk =   0.0800000
        k(   20) = (   0.0000000   0.0000000   0.0229902), wk =   0.0800000
        k(   21) = (   0.0000000   0.0000000   0.0242002), wk =   0.0800000
        k(   22) = (   0.0000000   0.0000000   0.0254102), wk =   0.0800000
        k(   23) = (   0.0000000   0.0000000   0.0266202), wk =   0.0800000
        k(   24) = (   0.0000000   0.0000000   0.0278302), wk =   0.0800000
        k(   25) = (   0.0000000   0.0000000   0.0290402), wk =   0.0800000
        k(   26) = (   0.0000000   0.0000000  -0.0302502), wk =   0.0400000

     Dense  grid:  5805625 G-vectors     FFT dimensions: ( 135, 400, 225)

     Smooth grid:  1117275 G-vectors     FFT dimensions: (  80, 225, 125)

     Estimated max dynamical RAM per process >       1.24 GB

     Estimated total dynamical RAM >      19.77 GB

     The potential is recalculated from file :
     /home/zfwang/scratch/GNRDATASET/AGNR/V9_m3/V9_m3.save/charge-density.dat


     negative rho (up, down):  2.663E-04 0.000E+00
     Starting wfcs are  360 randomized atomic wfcs +  140 random wfcs

     Band Structure Calculation
     Davidson diagonalization with overlap

     ethr =  2.78E-09,  avg # of iterations = 41.7

     total cpu time spent up to now is    10771.8 secs

     End of band structure calculation

          k = 0.0000 0.0000 0.0000 (139631 PWs)   bands (ev):

   -21.4621 -21.2301 -21.1128 -20.8139 -20.6639 -20.6347 -20.2232 -20.1989
   -20.1091 -19.8611 -19.7886 -19.7308 -19.5764 -19.3324 -19.1206 -18.9292
   -18.9271 -18.6342 -18.5868 -18.3289 -18.3182 -18.1555 -18.0471 -17.8409
   -17.6691 -17.6281 -17.4866 -17.3441 -17.1483 -17.0300 -16.9833 -16.8942
   -16.7396 -16.6618 -16.5902 -16.4756 -16.2721 -16.2462 -15.8904 -15.6986
   -15.5939 -15.2432 -15.2096 -14.9295 -14.7097 -14.6637 -14.6390 -14.3611
   -14.3002 -14.2465 -14.1065 -14.0975 -13.8351 -13.8342 -13.6699 -13.5539
   -13.4283 -13.0606 -13.0384 -12.7810 -12.6641 -12.6517 -12.5312 -12.5077
   -12.4301 -12.0312 -11.9918 -11.8842 -11.8409 -11.7591 -11.4693 -11.3303
   -11.2451 -11.1596 -11.1411 -11.0714 -10.9409 -10.8466 -10.7233 -10.6689
   -10.6054 -10.3730 -10.3465 -10.1971 -10.1674  -9.9070  -9.8941  -9.8068
    -9.7908  -9.6572  -9.6058  -9.5054  -9.4436  -9.3923  -9.3375  -9.2488
    -9.2137  -9.1973  -9.1237  -9.1067  -9.0888  -8.8959  -8.8686  -8.7911
    -8.7470  -8.7361  -8.7064  -8.6925  -8.6022  -8.5925  -8.5786  -8.5730
    -8.5225  -8.4591  -8.4340  -8.3718  -8.2612  -8.2508  -8.1950  -8.1872
    -8.1090  -8.0848  -7.9400  -7.9220  -7.8912  -7.8706  -7.6668  -7.6308
    -7.6045  -7.5616  -7.5423  -7.5177  -7.5059  -7.3793  -7.3430  -7.2305
    -7.1798  -7.1713  -7.0311  -6.9850  -6.9550  -6.8485  -6.8259  -6.6975
    -6.6870  -6.6486  -6.5320  -6.5172  -6.3855  -6.3305  -6.2612  -6.2578
    -6.0072  -6.0055  -5.9371  -5.9319  -5.9026  -5.8799  -5.6849  -5.5561
    -5.4760  -5.4226  -5.2432  -5.1639  -5.1448  -5.1344  -4.8961  -4.7644
    -4.6729  -4.5330  -4.4181  -4.4134  -4.4082  -4.2900  -4.1167  -3.8571
    -3.4945  -3.4269  -3.0016  -2.8763  -1.2812  -1.2406  -1.0582  -0.9161
    -0.5685  -0.4798  -0.3269  -0.1844  -0.1810   0.0107   0.1568   0.1640
     0.2802   0.3015   0.6173   0.7746   0.8038   0.8500   1.0019   1.0689
     1.1001   1.1663   1.2278   1.2533   1.4063   1.4921   1.4955   1.5471
     1.6024   1.6598   1.6600   1.7147   1.7197   1.8452   1.9601   1.9816
     2.0280   2.0308   2.1689   2.1728   2.3018   2.3447   2.3829   2.3937
     2.4150   2.4832   2.5121   2.5467   2.6522   2.6535   2.6705   2.7675
     2.7831   2.8791   2.8794   2.8941   2.9247   2.9402   2.9763   2.9922
     3.0207   3.0929   3.1371   3.2071   3.2153   3.2391   3.2433   3.2556
     3.2868   3.2872   3.2998   3.3166   3.3341   3.3744   3.4101   3.6033
     3.6036   3.6133   3.6141   3.6355   3.6597   3.7289   3.7404   3.7411
     3.7872   3.8016   3.8075   3.8289   3.9115   3.9467   3.9880   4.0335
     4.0830   4.0918   4.0963   4.1147   4.1592   4.2057   4.2438   4.3674
     4.3736   4.3926   4.4153   4.4394   4.4411   4.4663   4.5196   4.5274
     4.5523   4.5600   4.5662   4.5774   4.6087   4.6332   4.6373   4.6996
     4.7020   4.7426   4.7538   4.7766   4.8120   4.8281   4.8428   4.8548
     4.8945   4.8951   4.9178   5.0280   5.0434   5.1150   5.1298   5.1622
     5.1649   5.1678   5.1706   5.1951   5.2110   5.2475   5.2796   5.3298
     5.3551   5.3866   5.4093   5.4200   5.4449   5.4632   5.4724   5.4985
     5.5052   5.5711   5.5974   5.6460   5.6947   5.7182   5.7510   5.7514
     5.7742   5.8120   5.8275   5.8281   5.8319   5.8897   5.9114   5.9220
     5.9483   5.9686   5.9750   5.9879   5.9905   5.9911   6.0075   6.0205
     6.0363   6.0655   6.0671   6.0971   6.0984   6.1267   6.1271   6.1624
     6.1701   6.1731   6.2118   6.2124   6.2320   6.2641   6.3071   6.3712
     6.3933   6.4264   6.4407   6.4455   6.4701   6.4796   6.4938   6.5033
     6.5043   6.5289   6.5621   6.5651   6.5783   6.6438   6.6954   6.6965
     6.7194   6.7216   6.7234   6.7308   6.7471   6.7575   6.7825   6.8175
     6.8643   6.8654   6.8797   6.9079   6.9121   6.9241   6.9332   6.9437
     6.9724   6.9730   6.9796   7.0276   7.0538   7.0624   7.1187   7.1429
     7.1677   7.1714   7.1869   7.1883   7.2002   7.2221   7.2373   7.2669
     7.3090   7.3101   7.3149   7.3469   7.3813   7.4037   7.4342   7.4382
     7.4441   7.4884   7.5011   7.5036   7.5151   7.5299   7.5324   7.5488
     7.5489   7.5877   7.5932   7.6140   7.6144   7.6243   7.6318   7.6412
     7.6789   7.7404   7.7410   7.7472   7.7512   7.7911   7.8213   7.8234
     7.8455   7.8904   7.9131   7.9239   7.9290   7.9353   7.9388   7.9693
     7.9781   7.9782   7.9817   8.0154   8.0212   8.0469   8.0491   8.1214
     8.1385   8.1568   8.1658   8.1728   8.2630   8.2992   8.3097   8.3243
     8.3368   8.3444   8.3903   8.3937   8.4007   8.4240   8.4315   8.4327
     8.4608   8.4714   8.4807   8.5033   8.5075   8.5098   8.5257   8.5396
     8.5424   8.5986   8.6117   8.6176   8.6611   8.6648   8.6672   8.7393
     8.7529   8.7743   8.7855   8.7917

          k = 0.0000 0.0000 0.0012 (139655 PWs)   bands (ev):

   -21.4619 -21.2309 -21.1119 -20.8141 -20.6637 -20.6345 -20.2250 -20.1970
   -20.1099 -19.8622 -19.7877 -19.7297 -19.5766 -19.3326 -19.1204 -18.9350
   -18.9211 -18.6351 -18.5859 -18.3290 -18.3186 -18.1550 -18.0493 -17.8410
   -17.6674 -17.6279 -17.4863 -17.3440 -17.1486 -17.0296 -16.9838 -16.8938
   -16.7400 -16.6611 -16.5902 -16.4756 -16.2723 -16.2462 -15.8907 -15.6987
   -15.5937 -15.2668 -15.1858 -14.9292 -14.7099 -14.6646 -14.6380 -14.3620
   -14.3008 -14.2455 -14.1081 -14.0947 -13.8353 -13.8341 -13.6698 -13.5540
   -13.4291 -13.0606 -13.0393 -12.7819 -12.6818 -12.6332 -12.5303 -12.5100
   -12.4276 -12.0315 -11.9922 -11.8837 -11.8409 -11.7584 -11.4717 -11.3273
   -11.2453 -11.1610 -11.1420 -11.0715 -10.9399 -10.8484 -10.7240 -10.6650
   -10.6057 -10.3733 -10.3468 -10.2002 -10.1638  -9.9094  -9.8923  -9.8064
    -9.7924  -9.6602  -9.6009  -9.5052  -9.4438  -9.3921  -9.3371  -9.2495
    -9.2135  -9.1978  -9.1235  -9.1068  -9.0881  -8.8961  -8.8688  -8.7914
    -8.7479  -8.7349  -8.7074  -8.6928  -8.6083  -8.5923  -8.5780  -8.5728
    -8.5209  -8.4606  -8.4300  -8.3715  -8.2608  -8.2497  -8.1993  -8.1832
    -8.1113  -8.0824  -7.9408  -7.9213  -7.8915  -7.8696  -7.6684  -7.6312
    -7.6039  -7.5610  -7.5432  -7.5160  -7.5054  -7.3795  -7.3432  -7.2304
    -7.1821  -7.1692  -7.0314  -6.9857  -6.9546  -6.8481  -6.8259  -6.6979
    -6.6865  -6.6478  -6.5324  -6.5179  -6.3854  -6.3310  -6.2609  -6.2580
    -6.0072  -6.0069  -5.9382  -5.9313  -5.9012  -5.8782  -5.6866  -5.5564
    -5.4765  -5.4229  -5.2432  -5.1630  -5.1464  -5.1321  -4.8962  -4.7646
    -4.6727  -4.5332  -4.4180  -4.4131  -4.4080  -4.2901  -4.1166  -3.8574
    -3.4944  -3.4265  -3.0020  -2.8775  -1.2803  -1.2405  -1.0580  -0.9159
    -0.5684  -0.4799  -0.3269  -0.1910  -0.1745   0.0104   0.1564   0.1643
     0.2800   0.3020   0.6164   0.7747   0.8040   0.8501   1.0026   1.0687
     1.1001   1.1627   1.2270   1.2530   1.4067   1.4923   1.4953   1.5509
     1.6006   1.6471   1.6738   1.7167   1.7196   1.8455   1.9604   1.9811
     2.0280   2.0307   2.1695   2.1731   2.3020   2.3448   2.3786   2.3984
     2.4152   2.4816   2.5131   2.5464   2.6513   2.6536   2.6703   2.7682
     2.7839   2.8738   2.8791   2.8983   2.9192   2.9370   2.9778   2.9974
     3.0242   3.0916   3.1357   3.2074   3.2104   3.2416   3.2421   3.2514
     3.2788   3.2875   3.2994   3.3194   3.3378   3.3789   3.4200   3.5890
     3.5940   3.6139   3.6266   3.6451   3.6543   3.7239   3.7337   3.7429
     3.7950   3.8037   3.8137   3.8318   3.9114   3.9472   3.9883   4.0287
     4.0877   4.0919   4.0959   4.1130   4.1484   4.2172   4.2440   4.3502
     4.3911   4.3917   4.4146   4.4325   4.4387   4.4570   4.5232   4.5278
     4.5393   4.5595   4.5789   4.5831   4.6026   4.6369   4.6411   4.6995
     4.7039   4.7414   4.7616   4.7805   4.8111   4.8128   4.8314   4.8610
     4.8839   4.9173   4.9288   5.0277   5.0389   5.1134   5.1306   5.1430
     5.1623   5.1684   5.1724   5.2131   5.2202   5.2468   5.2787   5.3158
     5.3502   5.3917   5.4036   5.4344   5.4446   5.4620   5.4793   5.4842
     5.5185   5.5699   5.5971   5.6469   5.6937   5.7201   5.7440   5.7462
     5.7745   5.8081   5.8134   5.8369   5.8440   5.8878   5.9107   5.9115
     5.9392   5.9662   5.9767   5.9841   5.9880   5.9980   6.0009   6.0218
     6.0366   6.0682   6.0694   6.0954   6.1100   6.1318   6.1336   6.1565
     6.1716   6.1732   6.2078   6.2149   6.2442   6.2657   6.3065   6.3661
     6.3906   6.4283   6.4391   6.4467   6.4691   6.4801   6.4921   6.5046
     6.5084   6.5299   6.5634   6.5661   6.5781   6.6412   6.6940   6.6951
     6.7195   6.7218   6.7243   6.7263   6.7494   6.7569   6.7861   6.8146
     6.8644   6.8650   6.8800   6.9061   6.9099   6.9143   6.9306   6.9427
     6.9718   6.9817   6.9833   7.0242   7.0527   7.0658   7.1189   7.1459
     7.1684   7.1714   7.1881   7.1885   7.1967   7.2250   7.2404   7.2683
     7.2971   7.3089   7.3284   7.3410   7.3781   7.4003   7.4321   7.4364
     7.4372   7.4922   7.4934   7.5056   7.5205   7.5338   7.5367   7.5371
     7.5473   7.5915   7.5948   7.6109   7.6156   7.6216   7.6483   7.6488
     7.6847   7.7074   7.7421   7.7455   7.7716   7.7876   7.8119   7.8286
     7.8453   7.8911   7.9140   7.9236   7.9390   7.9391   7.9404   7.9625
     7.9771   7.9809   7.9929   8.0151   8.0170   8.0494   8.0519   8.1232
     8.1356   8.1618   8.1682   8.1739   8.2641   8.2943   8.3095   8.3197
     8.3373   8.3425   8.3798   8.3899   8.3919   8.4276   8.4282   8.4295
     8.4567   8.4592   8.4834   8.5143   8.5157   8.5236   8.5265   8.5284
     8.5646   8.6023   8.6108   8.6163   8.6511   8.6682   8.6691   8.7354
     8.7404   8.7556   8.7765   8.7842

          k = 0.0000 0.0000 0.0024 (139625 PWs)   bands (ev):

   -21.4616 -21.2332 -21.1095 -20.8150 -20.6632 -20.6338 -20.2294 -20.1923
   -20.1122 -19.8655 -19.7851 -19.7266 -19.5772 -19.3330 -19.1196 -18.9414
   -18.9140 -18.6378 -18.5833 -18.3292 -18.3198 -18.1534 -18.0557 -17.8415
   -17.6626 -17.6276 -17.4852 -17.3436 -17.1492 -17.0284 -16.9854 -16.8927
   -16.7413 -16.6590 -16.5903 -16.4756 -16.2728 -16.2463 -15.8915 -15.6991
   -15.5933 -15.3014 -15.1504 -14.9282 -14.7105 -14.6671 -14.6355 -14.3644
   -14.3027 -14.2423 -14.1105 -14.0888 -13.8359 -13.8339 -13.6696 -13.5545
   -13.4317 -13.0606 -13.0418 -12.7847 -12.7034 -12.6092 -12.5276 -12.5159
   -12.4206 -12.0325 -11.9936 -11.8822 -11.8408 -11.7566 -11.4782 -11.3191
   -11.2458 -11.1650 -11.1449 -11.0720 -10.9368 -10.8535 -10.7251 -10.6544
   -10.6066 -10.3742 -10.3477 -10.2072 -10.1557  -9.9147  -9.8890  -9.8051
    -9.7967  -9.6669  -9.5888  -9.5048  -9.4444  -9.3914  -9.3357  -9.2517
    -9.2128  -9.1995  -9.1231  -9.1073  -9.0859  -8.8967  -8.8696  -8.7923
    -8.7499  -8.7321  -8.7104  -8.6937  -8.6243  -8.5916  -8.5763  -8.5720
    -8.5176  -8.4637  -8.4204  -8.3708  -8.2598  -8.2464  -8.2062  -8.1770
    -8.1165  -8.0768  -7.9431  -7.9193  -7.8922  -7.8669  -7.6729  -7.6323
    -7.6022  -7.5594  -7.5457  -7.5111  -7.5041  -7.3800  -7.3438  -7.2302
    -7.1865  -7.1653  -7.0323  -6.9878  -6.9536  -6.8470  -6.8262  -6.6989
    -6.6852  -6.6455  -6.5335  -6.5198  -6.3849  -6.3324  -6.2603  -6.2584
    -6.0108  -6.0073  -5.9409  -5.9294  -5.8975  -5.8734  -5.6915  -5.5571
    -5.4780  -5.4236  -5.2429  -5.1604  -5.1493  -5.1271  -4.8965  -4.7654
    -4.6721  -4.5337  -4.4180  -4.4121  -4.4074  -4.2906  -4.1161  -3.8581
    -3.4939  -3.4251  -3.0030  -2.8809  -1.2777  -1.2400  -1.0574  -0.9153
    -0.5680  -0.4800  -0.3270  -0.1990  -0.1665   0.0097   0.1553   0.1651
     0.2792   0.3036   0.6135   0.7752   0.8044   0.8504   1.0043   1.0679
     1.1004   1.1524   1.2246   1.2519   1.4076   1.4930   1.4946   1.5619
     1.5955   1.6358   1.6884   1.7193   1.7223   1.8463   1.9613   1.9798
     2.0282   2.0305   2.1713   2.1742   2.3024   2.3448   2.3717   2.4067
     2.4159   2.4774   2.5159   2.5456   2.6487   2.6537   2.6695   2.7702
     2.7863   2.8635   2.8779   2.9053   2.9060   2.9287   2.9818   3.0099
     3.0332   3.0874   3.1315   3.1995   3.2083   3.2391   3.2394   3.2462
     3.2616   3.2882   3.2983   3.3273   3.3477   3.3916   3.4434   3.5688
     3.5773   3.6156   3.6386   3.6426   3.6629   3.7117   3.7184   3.7501
     3.8064   3.8114   3.8299   3.8412   3.9110   3.9485   3.9891   4.0179
     4.0924   4.0944   4.0983   4.1080   4.1281   4.2394   4.2447   4.3312
     4.3890   4.4057   4.4123   4.4201   4.4312   4.4374   4.5132   4.5269
     4.5426   4.5589   4.5798   4.5894   4.6068   4.6451   4.6529   4.6988
     4.7098   4.7402   4.7788   4.7816   4.7898   4.8154   4.8278   4.8310
     4.9155   4.9189   4.9628   5.0263   5.0274   5.1091   5.1093   5.1318
     5.1626   5.1768   5.1780   5.2194   5.2445   5.2548   5.2763   5.2865
     5.3401   5.3915   5.4024   5.4432   5.4541   5.4646   5.4723   5.4948
     5.5323   5.5666   5.5959   5.6493   5.6908   5.7256   5.7286   5.7333
     5.7673   5.7884   5.8127   5.8488   5.8569   5.8828   5.8935   5.9096
     5.9259   5.9628   5.9643   5.9661   5.9844   6.0004   6.0009   6.0265
     6.0377   6.0705   6.0782   6.0953   6.1389   6.1441   6.1446   6.1500
     6.1694   6.1732   6.2117   6.2222   6.2655   6.2708   6.3045   6.3547
     6.3846   6.4253   6.4324   6.4600   6.4667   6.4814   6.4894   6.5055
     6.5167   6.5327   6.5674   6.5675   6.5789   6.6337   6.6878   6.6945
     6.7172   6.7198   6.7224   6.7270   6.7548   6.7550   6.7920   6.8065
     6.8644   6.8645   6.8798   6.8823   6.8969   6.9086   6.9419   6.9448
     6.9714   6.9862   6.9938   7.0148   7.0502   7.0744   7.1198   7.1557
     7.1686   7.1698   7.1866   7.1884   7.1953   7.2333   7.2484   7.2705
     7.2853   7.3073   7.3252   7.3416   7.3700   7.3896   7.4187   7.4258
     7.4342   7.4839   7.5064   7.5077   7.5198   7.5202   7.5374   7.5449
     7.5564   7.5928   7.6006   7.6118   7.6150   7.6236   7.6460   7.6769
     7.6894   7.7045   7.7304   7.7340   7.7709   7.7891   7.8004   7.8436
     7.8441   7.8930   7.9187   7.9220   7.9378   7.9532   7.9586   7.9601
     7.9759   7.9898   7.9976   8.0149   8.0180   8.0569   8.0604   8.1266
     8.1290   8.1735   8.1755   8.1774   8.2657   8.2802   8.3053   8.3132
     8.3344   8.3386   8.3535   8.3765   8.3879   8.4211   8.4217   8.4249
     8.4288   8.4505   8.5080   8.5183   8.5216   8.5368   8.5384   8.5578
     8.5854   8.6110   8.6128   8.6139   8.6278   8.6744   8.6755   8.7193
     8.7220   8.7258   8.7429   8.7951

          k = 0.0000 0.0000 0.0036 (139595 PWs)   bands (ev):

   -21.4610 -21.2369 -21.1056 -20.8164 -20.6623 -20.6327 -20.2349 -20.1864
   -20.1161 -19.8703 -19.7815 -19.7215 -19.5782 -19.3338 -19.1184 -18.9476
   -18.9066 -18.6417 -18.5795 -18.3295 -18.3217 -18.1508 -18.0660 -17.8424
   -17.6550 -17.6270 -17.4834 -17.3430 -17.1503 -17.0264 -16.9881 -16.8908
   -16.7433 -16.6556 -16.5905 -16.4757 -16.2738 -16.2465 -15.8929 -15.6998
   -15.5926 -15.3365 -15.1141 -14.9267 -14.7115 -14.6705 -14.6321 -14.3682
   -14.3056 -14.2374 -14.1123 -14.0814 -13.8369 -13.8336 -13.6692 -13.5552
   -13.4360 -13.0606 -13.0462 -12.7891 -12.7237 -12.5847 -12.5268 -12.5204
   -12.4107 -12.0340 -11.9959 -11.8800 -11.8406 -11.7535 -11.4876 -11.3070
   -11.2466 -11.1712 -11.1494 -11.0730 -10.9317 -10.8616 -10.7246 -10.6397
   -10.6081 -10.3756 -10.3493 -10.2153 -10.1456  -9.9214  -9.8866  -9.8030
    -9.8022  -9.6747  -9.5727  -9.5041  -9.4452  -9.3903  -9.3334  -9.2552
    -9.2117  -9.2023  -9.1225  -9.1079  -9.0824  -8.8975  -8.8709  -8.7938
    -8.7521  -8.7284  -8.7150  -8.6960  -8.6456  -8.5904  -8.5737  -8.5708
    -8.5147  -8.4669  -8.4085  -8.3695  -8.2580  -8.2408  -8.2136  -8.1709
    -8.1228  -8.0699  -7.9470  -7.9160  -7.8928  -7.8629  -7.6796  -7.6337
    -7.5997  -7.5571  -7.5496  -7.5032  -7.5024  -7.3809  -7.3449  -7.2298
    -7.1915  -7.1613  -7.0337  -6.9911  -6.9519  -6.8452  -6.8266  -6.7005
    -6.6831  -6.6419  -6.5353  -6.5228  -6.3843  -6.3347  -6.2592  -6.2590
    -6.0167  -6.0074  -5.9446  -5.9263  -5.8922  -5.8658  -5.6996  -5.5584
    -5.4805  -5.4248  -5.2425  -5.1563  -5.1521  -5.1206  -4.8971  -4.7666
    -4.6710  -4.5345  -4.4178  -4.4105  -4.4064  -4.2913  -4.1154  -3.8592
    -3.4930  -3.4229  -3.0048  -2.8865  -1.2736  -1.2393  -1.0564  -0.9144
    -0.5674  -0.4801  -0.3271  -0.2071  -0.1586   0.0086   0.1536   0.1663
     0.2779   0.3062   0.6087   0.7759   0.8051   0.8509   1.0068   1.0666
     1.1008   1.1369   1.2207   1.2502   1.4090   1.4932   1.4941   1.5787
     1.5880   1.6265   1.7036   1.7187   1.7309   1.8478   1.9628   1.9776
     2.0285   2.0301   2.1741   2.1758   2.3028   2.3451   2.3649   2.4157
     2.4170   2.4712   2.5198   2.5444   2.6444   2.6539   2.6683   2.7736
     2.7902   2.8516   2.8760   2.8891   2.9123   2.9175   2.9878   3.0255
     3.0455   3.0798   3.1244   3.1862   3.2099   3.2177   3.2371   3.2475
     3.2504   3.2890   3.2968   3.3386   3.3622   3.4093   3.4724   3.5477
     3.5597   3.6184   3.6221   3.6526   3.6826   3.6972   3.7011   3.7612
     3.8065   3.8305   3.8524   3.8561   3.9104   3.9508   3.9906   4.0052
     4.0920   4.0933   4.0998   4.1066   4.1107   4.2459   4.2641   4.3132
     4.3839   4.3859   4.4084   4.4144   4.4185   4.4357   4.5021   4.5216
     4.5459   4.5578   4.5769   4.5853   4.6300   4.6523   4.6702   4.6965
     4.7204   4.7430   4.7502   4.7956   4.8009   4.8086   4.8208   4.8312
     4.9123   4.9539   4.9967   5.0128   5.0225   5.0773   5.1040   5.1318
     5.1633   5.1818   5.1911   5.2294   5.2412   5.2531   5.2733   5.2881
     5.3303   5.3789   5.4148   5.4310   5.4455   5.4698   5.4997   5.5132
     5.5437   5.5619   5.5937   5.6519   5.6860   5.7097   5.7167   5.7342
     5.7456   5.7664   5.8127   5.8627   5.8636   5.8768   5.8819   5.9114
     5.9121   5.9419   5.9543   5.9580   5.9639   5.9965   6.0071   6.0343
     6.0392   6.0713   6.0790   6.1064   6.1313   6.1585   6.1636   6.1713
     6.1719   6.1794   6.2263   6.2339   6.2792   6.2882   6.3006   6.3428
     6.3783   6.4114   6.4364   6.4631   6.4753   6.4830   6.4862   6.5071
     6.5225   6.5367   6.5652   6.5747   6.5823   6.6241   6.6795   6.6939
     6.7074   6.7196   6.7234   6.7306   6.7523   6.7603   6.7948   6.7950
     6.8408   6.8641   6.8641   6.8797   6.8889   6.9078   6.9527   6.9534
     6.9788   6.9916   6.9942   7.0010   7.0474   7.0858   7.1220   7.1647
     7.1665   7.1669   7.1773   7.1904   7.2087   7.2441   7.2572   7.2642
     7.2862   7.3017   7.3032   7.3486   7.3607   7.3728   7.3942   7.4157
     7.4363   7.4792   7.5000   7.5175   7.5194   7.5248   7.5382   7.5480
     7.5686   7.5876   7.6058   7.6125   7.6238   7.6364   7.6376   7.6591
     7.7105   7.7218   7.7219   7.7315   7.7552   7.7963   7.7982   7.8427
     7.8596   7.8962   7.9192   7.9266   7.9349   7.9669   7.9692   7.9761
     7.9776   7.9818   8.0057   8.0172   8.0363   8.0698   8.0742   8.1196
     8.1277   8.1834   8.1883   8.1883   8.2589   8.2607   8.3011   8.3123
     8.3141   8.3255   8.3403   8.3658   8.3785   8.4050   8.4094   8.4150
     8.4155   8.4464   8.5209   8.5213   8.5332   8.5570   8.5654   8.5871
     8.5911   8.5961   8.6080   8.6309   8.6314   8.6749   8.6821   8.6879
     8.7099   8.7138   8.7138   8.7794

          k = 0.0000 0.0000 0.0048 (139597 PWs)   bands (ev):

   -21.4601 -21.2417 -21.1004 -20.8184 -20.6610 -20.6312 -20.2409 -20.1799
   -20.1214 -19.8761 -19.7772 -19.7145 -19.5796 -19.3348 -19.1166 -18.9535
   -18.8991 -18.6465 -18.5750 -18.3300 -18.3243 -18.1473 -18.0794 -17.8439
   -17.6450 -17.6261 -17.4809 -17.3421 -17.1519 -17.0237 -16.9917 -16.8881
   -16.7459 -16.6512 -16.5907 -16.4758 -16.2750 -16.2467 -15.8947 -15.7009
   -15.5917 -15.3710 -15.0778 -14.9245 -14.7129 -14.6743 -14.6282 -14.3731
   -14.3092 -14.2311 -14.1134 -14.0728 -13.8381 -13.8333 -13.6686 -13.5561
   -13.4419 -13.0607 -13.0524 -12.7950 -12.7421 -12.5603 -12.5357 -12.5150
   -12.3990 -12.0362 -11.9988 -11.8773 -11.8399 -11.7494 -11.4986 -11.2921
   -11.2479 -11.1793 -11.1554 -11.0749 -10.9250 -10.8719 -10.7220 -10.6225
   -10.6101 -10.3772 -10.3515 -10.2237 -10.1346  -9.9292  -9.8864  -9.8067
    -9.8001  -9.6826  -9.5547  -9.5031  -9.4464  -9.3887  -9.3302  -9.2598
    -9.2100  -9.2062  -9.1217  -9.1087  -9.0777  -8.8987  -8.8730  -8.7957
    -8.7541  -8.7246  -8.7210  -8.7024  -8.6669  -8.5888  -8.5703  -8.5691
    -8.5129  -8.4701  -8.3965  -8.3677  -8.2558  -8.2328  -8.2211  -8.1650
    -8.1294  -8.0624  -7.9523  -7.9114  -7.8927  -7.8581  -7.6879  -7.6353
    -7.5966  -7.5544  -7.5544  -7.5005  -7.4930  -7.3821  -7.3465  -7.2292
    -7.1968  -7.1573  -7.0358  -6.9956  -6.9497  -6.8427  -6.8272  -6.7022
    -6.6802  -6.6372  -6.5378  -6.5270  -6.3837  -6.3377  -6.2596  -6.2578
    -6.0240  -6.0076  -5.9487  -5.9220  -5.8859  -5.8563  -5.7104  -5.5603
    -5.4840  -5.4265  -5.2420  -5.1556  -5.1501  -5.1130  -4.8978  -4.7683
    -4.6695  -4.5357  -4.4175  -4.4084  -4.4051  -4.2923  -4.1143  -3.8608
    -3.4919  -3.4198  -3.0072  -2.8942  -1.2679  -1.2383  -1.0550  -0.9131
    -0.5666  -0.4803  -0.3273  -0.2152  -0.1507   0.0071   0.1512   0.1681
     0.2761   0.3097   0.6022   0.7769   0.8062   0.8516   1.0092   1.0647
     1.1013   1.1187   1.2156   1.2478   1.4108   1.4905   1.4955   1.5787
     1.5999   1.6198   1.7178   1.7191   1.7415   1.8499   1.9650   1.9749
     2.0289   2.0296   2.1779   2.1782   2.3032   2.3458   2.3586   2.4185
     2.4251   2.4637   2.5242   2.5427   2.6386   2.6541   2.6665   2.7782
     2.7955   2.8388   2.8707   2.8736   2.9050   2.9191   2.9951   3.0420
     3.0594   3.0684   3.1150   3.1719   3.1899   3.2123   3.2364   3.2401
     3.2542   3.2886   3.2963   3.3516   3.3796   3.4288   3.5028   3.5264
     3.5421   3.6030   3.6218   3.6614   3.6834   3.6840   3.7028   3.7754
     3.8045   3.8506   3.8736   3.8780   3.9094   3.9540   3.9928   3.9929
     4.0841   4.0887   4.0903   4.0944   4.1228   4.2478   4.2885   4.2962
     4.3584   4.3756   4.3897   4.4028   4.4033   4.4550   4.4933   4.5227
     4.5292   4.5562   4.5712   4.6005   4.6460   4.6551   4.6855   4.6911
     4.7330   4.7378   4.7513   4.7662   4.8098   4.8315   4.8316   4.8389
     4.9073   4.9880   4.9982   5.0111   5.0302   5.0535   5.0987   5.1307
     5.1644   5.1850   5.2027   5.2181   5.2393   5.2438   5.2714   5.3058
     5.3350   5.3684   5.4080   5.4279   5.4438   5.4699   5.5309   5.5361
     5.5527   5.5563   5.5899   5.6527   5.6790   5.6903   5.6987   5.7133
     5.7437   5.7453   5.8125   5.8631   5.8663   5.8733   5.8792   5.9003
     5.9148   5.9172   5.9458   5.9478   5.9533   5.9880   6.0100   6.0409
     6.0420   6.0680   6.0726   6.1209   6.1263   6.1568   6.1691   6.1718
     6.1943   6.2242   6.2458   6.2489   6.2908   6.2956   6.3082   6.3352
     6.3735   6.4016   6.4390   6.4586   6.4826   6.4847   6.4901   6.5096
     6.5243   6.5411   6.5602   6.5804   6.5845   6.6215   6.6704   6.6940
     6.6968   6.7178   6.7242   6.7337   6.7496   6.7592   6.7862   6.7939
     6.8004   6.8522   6.8632   6.8714   6.8982   6.9096   6.9618   6.9656
     6.9847   6.9859   6.9946   6.9970   7.0454   7.0987   7.1257   7.1502
     7.1564   7.1631   7.1941   7.1968   7.2272   7.2510   7.2526   7.2607
     7.2787   7.2926   7.2958   7.3467   7.3525   7.3555   7.3721   7.4034
     7.4453   7.4735   7.4901   7.5143   7.5245   7.5351   7.5465   7.5514
     7.5574   7.6014   7.6016   7.6244   7.6261   7.6330   7.6455   7.6635
     7.6895   7.7067   7.7071   7.7590   7.7825   7.8030   7.8061   7.8443
     7.8688   7.9005   7.9162   7.9182   7.9472   7.9597   7.9811   7.9839
     7.9850   7.9906   8.0240   8.0273   8.0553   8.0878   8.0915   8.1086
     8.1252   8.1906   8.2013   8.2066   8.2328   8.2479   8.2830   8.2993
     8.3078   8.3125   8.3411   8.3521   8.3594   8.3969   8.3998   8.4060
     8.4107   8.4434   8.5200   8.5232   8.5478   8.5508   8.5784   8.5998
     8.6026   8.6075   8.6152   8.6487   8.6543   8.6552   8.6628   8.6908
     8.6945   8.7015   8.7211   8.7638

          k = 0.0000 0.0000 0.0061 (139625 PWs)   bands (ev):

   -21.4590 -21.2473 -21.0944 -20.8209 -20.6594 -20.6293 -20.2469 -20.1731
   -20.1280 -19.8826 -19.7727 -19.7057 -19.5813 -19.3362 -19.1144 -18.9590
   -18.8915 -18.6517 -18.5700 -18.3306 -18.3274 -18.1430 -18.0954 -17.8462
   -17.6334 -17.6250 -17.4775 -17.3409 -17.1539 -17.0202 -16.9963 -16.8847
   -16.7490 -16.6458 -16.5909 -16.4759 -16.2767 -16.2470 -15.8971 -15.7027
   -15.5905 -15.4044 -15.0419 -14.9217 -14.7146 -14.6785 -14.6240 -14.3788
   -14.3132 -14.2236 -14.1136 -14.0634 -13.8397 -13.8328 -13.6680 -13.5572
   -13.4496 -13.0627 -13.0587 -12.8022 -12.7583 -12.5462 -12.5362 -12.5072
   -12.3864 -12.0388 -12.0024 -11.8745 -11.8384 -11.7444 -11.5104 -11.2757
   -11.2496 -11.1886 -11.1627 -11.0777 -10.9167 -10.8837 -10.7172 -10.6126
   -10.6040 -10.3790 -10.3543 -10.2321 -10.1228  -9.9386  -9.8893  -9.8082
    -9.7964  -9.6907  -9.5357  -9.5018  -9.4479  -9.3867  -9.3262  -9.2653
    -9.2113  -9.2077  -9.1209  -9.1096  -9.0721  -8.9002  -8.8758  -8.7982
    -8.7559  -8.7289  -8.7197  -8.7191  -8.6801  -8.5867  -8.5669  -8.5666
    -8.5121  -8.4732  -8.3858  -8.3654  -8.2531  -8.2287  -8.2228  -8.1595
    -8.1362  -8.0546  -7.9591  -7.9058  -7.8917  -7.8527  -7.6971  -7.6368
    -7.5931  -7.5599  -7.5514  -7.4988  -7.4809  -7.3837  -7.3484  -7.2285
    -7.2023  -7.1535  -7.0385  -7.0011  -6.9470  -6.8394  -6.8278  -6.7040
    -6.6767  -6.6318  -6.5409  -6.5320  -6.3833  -6.3414  -6.2602  -6.2562
    -6.0323  -6.0078  -5.9529  -5.9167  -5.8788  -5.8453  -5.7237  -5.5626
    -5.4883  -5.4287  -5.2413  -5.1581  -5.1436  -5.1044  -4.8988  -4.7704
    -4.6677  -4.5371  -4.4170  -4.4059  -4.4034  -4.2937  -4.1128  -3.8629
    -3.4903  -3.4159  -3.0103  -2.9040  -1.2610  -1.2370  -1.0530  -0.9114
    -0.5655  -0.4806  -0.3276  -0.2232  -0.1429   0.0053   0.1481   0.1704
     0.2738   0.3142   0.5938   0.7783   0.8075   0.8525   1.0095   1.0624
     1.1008   1.1019   1.2094   1.2450   1.4129   1.4862   1.4973   1.5683
     1.6160   1.6238   1.7166   1.7345   1.7535   1.8528   1.9679   1.9719
     2.0289   2.0292   2.1811   2.1826   2.3031   2.3472   2.3530   2.4205
     2.4349   2.4551   2.5292   2.5408   2.6315   2.6544   2.6641   2.7840
     2.8021   2.8253   2.8514   2.8707   2.8921   2.9258   3.0028   3.0531
     3.0588   3.0742   3.1036   3.1575   3.1600   3.2154   3.2379   3.2380
     3.2575   3.2857   3.2979   3.3647   3.3989   3.4477   3.5056   3.5250
     3.5314   3.5848   3.6257   3.6660   3.6683   3.6757   3.7232   3.7913
     3.8012   3.8710   3.8920   3.9039   3.9078   3.9584   3.9831   3.9961
     4.0641   4.0754   4.0864   4.0959   4.1335   4.2505   4.2795   4.3093
     4.3300   4.3634   4.3641   4.3891   4.3984   4.4718   4.4878   4.5070
     4.5283   4.5541   4.5656   4.6212   4.6385   4.6538   4.6898   4.6939
     4.7325   4.7434   4.7636   4.7644   4.8144   4.8320   4.8485   4.8700
     4.9003   4.9857   4.9880   5.0203   5.0430   5.0629   5.0948   5.1289
     5.1659   5.1840   5.1846   5.2047   5.2448   5.2608   5.2725   5.2989
     5.3612   5.3622   5.3834   5.4423   5.4423   5.4707   5.5447   5.5510
     5.5596   5.5723   5.5828   5.6483   5.6663   5.6710   5.6805   5.6842
     5.7234   5.7583   5.8116   5.8535   5.8594   5.8717   5.8738   5.8862
     5.8962   5.9203   5.9397   5.9473   5.9499   5.9777   6.0112   6.0408
     6.0464   6.0610   6.0664   6.1159   6.1487   6.1501   6.1629   6.1831
     6.2172   6.2639   6.2642   6.2660   6.2975   6.3045   6.3179   6.3402
     6.3734   6.3973   6.4401   6.4532   6.4788   6.4865   6.5037   6.5131
     6.5217   6.5456   6.5528   6.5709   6.5953   6.6303   6.6607   6.6843
     6.6954   6.7133   6.7222   6.7351   6.7445   6.7475   6.7624   6.7866
     6.7905   6.8283   6.8617   6.8767   6.9015   6.9246   6.9681   6.9693
     6.9717   6.9789   7.0019   7.0136   7.0450   7.1127   7.1283   7.1305
     7.1462   7.1600   7.1992   7.2193   7.2394   7.2406   7.2423   7.2547
     7.2614   7.2913   7.3075   7.3308   7.3379   7.3577   7.3594   7.3906
     7.4597   7.4612   7.4781   7.5052   7.5292   7.5307   7.5377   7.5690
     7.5693   7.5957   7.6123   7.6178   7.6332   7.6379   7.6518   7.6714
     7.6779   7.6932   7.6979   7.7829   7.7845   7.8160   7.8463   7.8525
     7.8726   7.9055   7.9075   7.9149   7.9389   7.9565   7.9837   7.9996
     8.0039   8.0052   8.0404   8.0483   8.0716   8.0965   8.1094   8.1124
     8.1193   8.1968   8.1973   8.2044   8.2282   8.2473   8.2506   8.2761
     8.3060   8.3197   8.3223   8.3427   8.3533   8.3882   8.4029   8.4030
     8.4072   8.4380   8.5108   8.5180   8.5190   8.5616   8.5942   8.6004
     8.6138   8.6171   8.6240   8.6463   8.6614   8.6667   8.6834   8.6887
     8.6898   8.6984   8.7390   8.7521

          k = 0.0000 0.0000 0.0073 (139619 PWs)   bands (ev):

   -21.4576 -21.2536 -21.0876 -20.8238 -20.6575 -20.6271 -20.2530 -20.1661
   -20.1357 -19.8894 -19.7681 -19.6956 -19.5834 -19.3379 -19.1116 -18.9643
   -18.8837 -18.6573 -18.5647 -18.3313 -18.3309 -18.1380 -18.1133 -17.8493
   -17.6237 -17.6209 -17.4733 -17.3392 -17.1563 -17.0160 -17.0018 -16.8804
   -16.7525 -16.6398 -16.5913 -16.4760 -16.2786 -16.2474 -15.8998 -15.7054
   -15.5892 -15.4364 -15.0066 -14.9183 -14.7166 -14.6827 -14.6197 -14.3849
   -14.3171 -14.2152 -14.1132 -14.0533 -13.8417 -13.8323 -13.6673 -13.5585
   -13.4590 -13.0726 -13.0594 -12.8104 -12.7720 -12.5570 -12.5126 -12.4979
   -12.3731 -12.0419 -12.0064 -11.8722 -11.8358 -11.7386 -11.5222 -11.2584
   -11.2519 -11.1986 -11.1708 -11.0815 -10.9072 -10.8962 -10.7105 -10.6155
   -10.5850 -10.3804 -10.3577 -10.2403 -10.1107  -9.9498  -9.8951  -9.8058
    -9.7919  -9.6988  -9.5167  -9.5002  -9.4496  -9.3840  -9.3214  -9.2716
    -9.2177  -9.2047  -9.1202  -9.1105  -9.0657  -8.9019  -8.8796  -8.8012
    -8.7574  -8.7452  -8.7371  -8.7151  -8.6852  -8.5842  -8.5644  -8.5625
    -8.5122  -8.4765  -8.3768  -8.3626  -8.2500  -8.2361  -8.2111  -8.1543
    -8.1428  -8.0465  -7.9670  -7.8992  -7.8894  -7.8469  -7.7068  -7.6381
    -7.5892  -7.5659  -7.5480  -7.4973  -7.4675  -7.3855  -7.3507  -7.2277
    -7.2080  -7.1499  -7.0417  -7.0075  -6.9440  -6.8356  -6.8287  -6.7057
    -6.6726  -6.6256  -6.5445  -6.5378  -6.3833  -6.3457  -6.2606  -6.2544
    -6.0410  -6.0081  -5.9569  -5.9104  -5.8712  -5.8332  -5.7391  -5.5654
    -5.4936  -5.4314  -5.2405  -5.1606  -5.1363  -5.0947  -4.9001  -4.7730
    -4.6654  -4.5388  -4.4163  -4.4029  -4.4015  -4.2952  -4.1110  -3.8653
    -3.4884  -3.4113  -3.0141  -2.9156  -1.2530  -1.2354  -1.0504  -0.9095
    -0.5642  -0.4810  -0.3278  -0.2312  -0.1352   0.0034   0.1445   0.1731
     0.2709   0.3195   0.5838   0.7799   0.8090   0.8535   1.0046   1.0596
     1.0874   1.1026   1.2023   1.2418   1.4153   1.4802   1.4992   1.5572
     1.6152   1.6493   1.7150   1.7498   1.7665   1.8565   1.9687   1.9717
     2.0282   2.0294   2.1847   2.1879   2.3022   2.3480   2.3496   2.4229
     2.4448   2.4457   2.5347   2.5388   2.6232   2.6545   2.6611   2.7908
     2.8098   2.8115   2.8317   2.8674   2.8792   2.9325   3.0102   3.0346
     3.0748   3.0892   3.0910   3.1298   3.1437   3.2193   3.2402   3.2420
     3.2603   3.2813   3.3009   3.3758   3.4195   3.4641   3.4865   3.5087
     3.5535   3.5689   3.6322   3.6489   3.6739   3.6756   3.7435   3.7968
     3.8074   3.8911   3.9057   3.9098   3.9259   3.9640   3.9803   4.0007
     4.0448   4.0603   4.0827   4.0976   4.1421   4.2535   4.2620   4.3031
     4.3185   4.3378   4.3487   4.3868   4.3948   4.4828   4.4843   4.4853
     4.5365   4.5510   4.5635   4.6134   4.6432   4.6499   4.6756   4.7021
     4.7391   4.7456   4.7775   4.7941   4.8151   4.8328   4.8685   4.8928
     4.8966   4.9641   4.9763   5.0393   5.0476   5.0928   5.0954   5.1265
     5.1542   5.1679   5.1777   5.1968   5.2576   5.2773   5.2808   5.2887
     5.3577   5.3589   5.3884   5.4405   5.4596   5.4718   5.5465   5.5481
     5.5644   5.5705   5.6056   5.6344   5.6397   5.6551   5.6645   5.6759
     5.7096   5.7727   5.8096   5.8395   5.8559   5.8561   5.8572   5.8630
     5.8985   5.9137   5.9478   5.9487   5.9537   5.9694   6.0101   6.0319
     6.0438   6.0585   6.0665   6.1161   6.1440   6.1525   6.1721   6.1924
     6.2387   6.2722   6.2723   6.2858   6.3187   6.3279   6.3312   6.3463
     6.3833   6.3983   6.4413   6.4470   6.4749   6.4885   6.5137   6.5161
     6.5177   6.5437   6.5498   6.5626   6.6049   6.6442   6.6502   6.6700
     6.6979   6.7024   6.7060   6.7236   6.7344   6.7429   6.7464   6.7856
     6.7893   6.8059   6.8600   6.8861   6.9058   6.9472   6.9531   6.9540
     6.9745   6.9915   7.0047   7.0308   7.0478   7.1039   7.1242   7.1284
     7.1434   7.1605   7.2056   7.2083   7.2285   7.2292   7.2414   7.2417
     7.2787   7.2973   7.3092   7.3129   7.3322   7.3582   7.3651   7.3787
     7.4388   7.4613   7.4767   7.4929   7.5180   7.5331   7.5345   7.5827
     7.5864   7.5905   7.6091   7.6169   7.6258   7.6547   7.6586   7.6622
     7.6823   7.6921   7.7099   7.7807   7.8023   7.8286   7.8638   7.8741
     7.8958   7.8989   7.9106   7.9140   7.9251   7.9567   7.9884   8.0134
     8.0206   8.0266   8.0541   8.0743   8.0826   8.0882   8.1120   8.1310
     8.1330   8.1768   8.1784   8.1960   8.2134   8.2435   8.2588   8.2722
     8.2972   8.2990   8.3271   8.3421   8.3477   8.3911   8.4048   8.4060
     8.4104   8.4214   8.4850   8.5098   8.5155   8.5629   8.5842   8.5896
     8.6141   8.6148   8.6369   8.6717   8.6743   8.6801   8.6846   8.6979
     8.7014   8.7161   8.7500   8.7557

          k = 0.0000 0.0000 0.0085 (139631 PWs)   bands (ev):

   -21.4560 -21.2604 -21.0803 -20.8272 -20.6552 -20.6246 -20.2590 -20.1590
   -20.1443 -19.8964 -19.7635 -19.6843 -19.5859 -19.3399 -19.1085 -18.9692
   -18.8758 -18.6629 -18.5594 -18.3347 -18.3322 -18.1327 -18.1323 -17.8530
   -17.6222 -17.6080 -17.4680 -17.3372 -17.1591 -17.0111 -17.0081 -16.8754
   -16.7563 -16.6332 -16.5917 -16.4762 -16.2809 -16.2480 -15.9029 -15.7092
   -15.5877 -15.4663 -14.9723 -14.9143 -14.7188 -14.6870 -14.6154 -14.3915
   -14.3206 -14.2063 -14.1123 -14.0426 -13.8440 -13.8316 -13.6665 -13.5597
   -13.4700 -13.0856 -13.0590 -12.8194 -12.7830 -12.5680 -12.4898 -12.4876
   -12.3596 -12.0455 -12.0106 -11.8706 -11.8316 -11.7322 -11.5337 -11.2551
   -11.2411 -11.2089 -11.1792 -11.0865 -10.9088 -10.8968 -10.7024 -10.6189
   -10.5663 -10.3812 -10.3616 -10.2482 -10.0981  -9.9631  -9.9026  -9.8000
    -9.7867  -9.7072  -9.4983  -9.4983  -9.4516  -9.3806  -9.3157  -9.2785
    -9.2253  -9.2010  -9.1197  -9.1114  -9.0587  -8.9038  -8.8843  -8.8047
    -8.7747  -8.7591  -8.7456  -8.7101  -8.6876  -8.5813  -8.5615  -8.5585
    -8.5129  -8.4797  -8.3697  -8.3594  -8.2467  -8.2434  -8.1986  -8.1495
    -8.1493  -8.0383  -7.9762  -7.8918  -7.8856  -7.8408  -7.7167  -7.6390
    -7.5852  -7.5723  -7.5444  -7.4962  -7.4532  -7.3876  -7.3534  -7.2268
    -7.2137  -7.1466  -7.0455  -7.0148  -6.9405  -6.8311  -6.8296  -6.7072
    -6.6680  -6.6190  -6.5485  -6.5443  -6.3838  -6.3505  -6.2606  -6.2524
    -6.0499  -6.0085  -5.9608  -5.9031  -5.8632  -5.8203  -5.7563  -5.5688
    -5.4996  -5.4346  -5.2395  -5.1630  -5.1283  -5.0842  -4.9015  -4.7761
    -4.6628  -4.5407  -4.4154  -4.3995  -4.3993  -4.2971  -4.1087  -3.8682
    -3.4861  -3.4059  -3.0185  -2.9290  -1.2442  -1.2336  -1.0471  -0.9072
    -0.5627  -0.4814  -0.3282  -0.2390  -0.1275   0.0013   0.1402   0.1764
     0.2675   0.3257   0.5723   0.7817   0.8109   0.8547   0.9917   1.0563
     1.0823   1.1034   1.1946   1.2384   1.4177   1.4726   1.5014   1.5456
     1.6174   1.6754   1.7132   1.7647   1.7802   1.8611   1.9658   1.9764
     2.0272   2.0294   2.1887   2.1939   2.3003   2.3438   2.3532   2.4257
     2.4358   2.4549   2.5368   2.5405   2.6140   2.6546   2.6574   2.7974
     2.7986   2.8118   2.8184   2.8639   2.8667   2.9392   3.0137   3.0169
     3.0781   3.0885   3.1001   3.1040   3.1320   3.2240   3.2459   3.2483
     3.2624   3.2760   3.3046   3.3822   3.4408   3.4713   3.4757   3.4935
     3.5568   3.5637   3.6325   3.6480   3.6786   3.6833   3.7631   3.7920
     3.8214   3.9027   3.9103   3.9260   3.9368   3.9715   3.9925   4.0071
     4.0271   4.0445   4.0791   4.0994   4.1482   4.2417   4.2555   4.2800
     4.3108   4.3112   4.3344   4.3925   4.4016   4.4622   4.4849   4.4850
     4.5425   4.5479   4.5675   4.5877   4.6450   4.6512   4.6655   4.7080
     4.7457   4.7665   4.7908   4.8108   4.8256   4.8339   4.8805   4.8969
     4.8984   4.9639   4.9702   5.0376   5.0616   5.1038   5.1083   5.1238
     5.1440   5.1665   5.1703   5.1846   5.2719   5.2791   5.2830   5.3034
     5.3376   5.3577   5.4071   5.4382   5.4731   5.4821   5.5284   5.5437
     5.5606   5.5670   5.6095   5.6112   5.6230   5.6541   5.6623   5.6742
     5.7029   5.7883   5.8066   5.8248   5.8284   5.8353   5.8516   5.8542
     5.9001   5.9009   5.9465   5.9583   5.9646   5.9678   6.0056   6.0150
     6.0382   6.0626   6.0711   6.1199   6.1393   6.1396   6.1948   6.2003
     6.2578   6.2704   6.2728   6.3030   6.3315   6.3453   6.3461   6.3737
     6.3988   6.4052   6.4397   6.4460   6.4714   6.4906   6.5001   6.5233
     6.5272   6.5379   6.5531   6.5573   6.6113   6.6382   6.6498   6.6642
     6.6647   6.6922   6.7023   6.7051   6.7317   6.7427   6.7459   6.7806
     6.7891   6.7894   6.8588   6.8987   6.9136   6.9340   6.9414   6.9726
     6.9780   6.9992   7.0075   7.0417   7.0546   7.0775   7.1153   7.1235
     7.1531   7.1718   7.1741   7.2117   7.2161   7.2202   7.2266   7.2548
     7.2869   7.2991   7.3047   7.3048   7.3441   7.3673   7.3674   7.3752
     7.4102   7.4389   7.4841   7.4946   7.5009   7.5253   7.5318   7.5873
     7.5901   7.5962   7.5992   7.6184   7.6286   7.6564   7.6703   7.6763
     7.6897   7.6960   7.7317   7.7764   7.8186   7.8421   7.8688   7.8759
     7.8923   7.8969   7.9150   7.9416   7.9450   7.9514   7.9969   8.0271
     8.0365   8.0481   8.0663   8.0835   8.0837   8.0935   8.1086   8.1344
     8.1539   8.1633   8.1679   8.1680   8.2011   8.2297   8.2516   8.2851
     8.3012   8.3029   8.3243   8.3433   8.3441   8.3899   8.4032   8.4081
     8.4138   8.4218   8.4759   8.4981   8.5124   8.5510   8.5536   8.5832
     8.6230   8.6230   8.6397   8.6686   8.6862   8.6987   8.7003   8.7010
     8.7129   8.7460   8.7497   8.7575

          k = 0.0000 0.0000 0.0097 (139659 PWs)   bands (ev):

   -21.4542 -21.2675 -21.0725 -20.8309 -20.6526 -20.6219 -20.2649 -20.1537
   -20.1518 -19.9034 -19.7588 -19.6720 -19.5887 -19.3424 -19.1049 -18.9738
   -18.8679 -18.6687 -18.5541 -18.3387 -18.3332 -18.1531 -18.1261 -17.8575
   -17.6204 -17.5954 -17.4615 -17.3347 -17.1623 -17.0151 -17.0054 -16.8696
   -16.7604 -16.6261 -16.5922 -16.4764 -16.2834 -16.2487 -15.9064 -15.7148
   -15.5862 -15.4937 -14.9393 -14.9098 -14.7213 -14.6913 -14.6112 -14.3983
   -14.3232 -14.1969 -14.1108 -14.0317 -13.8467 -13.8308 -13.6659 -13.5607
   -13.4827 -13.1008 -13.0583 -12.8290 -12.7914 -12.5788 -12.4763 -12.4678
   -12.3460 -12.0497 -12.0149 -11.8698 -11.8258 -11.7253 -11.5446 -11.2595
   -11.2249 -11.2187 -11.1870 -11.0926 -10.9209 -10.8856 -10.6932 -10.6225
   -10.5487 -10.3805 -10.3660 -10.2559 -10.0851  -9.9787  -9.9106  -9.7917
    -9.7807  -9.7158  -9.4962  -9.4813  -9.4536  -9.3759  -9.3093  -9.2859
    -9.2340  -9.1965  -9.1198  -9.1122  -9.0512  -8.9059  -8.8901  -8.8086
    -8.8049  -8.7630  -8.7521  -8.7049  -8.6892  -8.5781  -8.5584  -8.5545
    -8.5143  -8.4830  -8.3642  -8.3558  -8.2505  -8.2432  -8.1860  -8.1556
    -8.1450  -8.0300  -7.9863  -7.8837  -7.8801  -7.8345  -7.7267  -7.6393
    -7.5809  -7.5790  -7.5405  -7.4955  -7.4382  -7.3900  -7.3565  -7.2259
    -7.2196  -7.1435  -7.0498  -7.0229  -6.9366  -6.8305  -6.8260  -6.7084
    -6.6632  -6.6119  -6.5527  -6.5513  -6.3851  -6.3557  -6.2602  -6.2503
    -6.0589  -6.0090  -5.9645  -5.8951  -5.8547  -5.8069  -5.7750  -5.5726
    -5.5064  -5.4382  -5.2384  -5.1652  -5.1201  -5.0730  -4.9032  -4.7796
    -4.6599  -4.5428  -4.4143  -4.3970  -4.3958  -4.2991  -4.1061  -3.8715
    -3.4833  -3.3999  -3.0236  -2.9439  -1.2351  -1.2315  -1.0429  -0.9047
    -0.5610  -0.4820  -0.3285  -0.2467  -0.1199  -0.0007   0.1355   0.1801
     0.2635   0.3326   0.5594   0.7833   0.8130   0.8560   0.9722   1.0525
     1.0847   1.1041   1.1863   1.2349   1.4199   1.4638   1.5035   1.5337
     1.6220   1.7013   1.7110   1.7789   1.7942   1.8666   1.9636   1.9822
     2.0263   2.0291   2.1932   2.2004   2.2973   2.3404   2.3581   2.4254
     2.4289   2.4652   2.5349   2.5468   2.6040   2.6532   2.6544   2.7832
     2.7914   2.8077   2.8276   2.8548   2.8601   2.9457   2.9913   3.0219
     3.0658   3.0713   3.0941   3.1182   3.1281   3.2298   3.2545   3.2568
     3.2635   3.2700   3.3086   3.3808   3.4620   3.4625   3.4795   3.4801
     3.5499   3.5658   3.6170   3.6733   3.6829   3.6959   3.7812   3.7877
     3.8310   3.8993   3.9275   3.9393   3.9410   3.9815   4.0105   4.0170
     4.0172   4.0287   4.0757   4.1015   4.1516   4.2179   4.2535   4.2616
     4.2847   4.2953   4.3246   4.3917   4.4250   4.4411   4.4791   4.4860
     4.5272   4.5514   4.5732   4.5769   4.6287   4.6400   4.6873   4.7129
     4.7561   4.7897   4.7981   4.8047   4.8355   4.8557   4.8740   4.8785
     4.9199   4.9665   4.9892   5.0371   5.0631   5.0835   5.1211   5.1323
     5.1521   5.1666   5.1713   5.1746   5.2708   5.2803   5.2848   5.3282
     5.3283   5.3607   5.4171   5.4353   5.4745   5.4935   5.5095   5.5432
     5.5500   5.5657   5.5832   5.5848   5.6127   5.6574   5.6792   5.6828
     5.6996   5.7990   5.8029   5.8062   5.8100   5.8181   5.8407   5.8515
     5.8848   5.9009   5.9447   5.9579   5.9697   5.9827   5.9983   5.9983
     6.0341   6.0693   6.0767   6.1221   6.1258   6.1410   6.2075   6.2159
     6.2653   6.2736   6.2745   6.3190   6.3413   6.3414   6.3643   6.3994
     6.4103   6.4257   6.4314   6.4589   6.4683   6.4856   6.4929   6.5286
     6.5369   6.5389   6.5537   6.5541   6.6139   6.6235   6.6251   6.6332
     6.6808   6.6809   6.6846   6.7097   6.7268   6.7455   6.7469   6.7776
     6.7804   6.7853   6.8579   6.9123   6.9137   6.9235   6.9342   6.9780
     6.9960   7.0019   7.0154   7.0425   7.0488   7.0641   7.1017   7.1118
     7.1398   7.1661   7.1894   7.2029   7.2043   7.2270   7.2270   7.2573
     7.2679   7.2801   7.3164   7.3283   7.3592   7.3606   7.3814   7.3814
     7.3836   7.4132   7.4783   7.4791   7.5095   7.5127   7.5255   7.5751
     7.5826   7.5957   7.6123   7.6158   7.6440   7.6564   7.6921   7.6925
     7.7024   7.7031   7.7563   7.7731   7.8297   7.8508   7.8697   7.8779
     7.8804   7.8884   7.9171   7.9493   7.9678   7.9915   8.0076   8.0416
     8.0519   8.0603   8.0758   8.0790   8.0818   8.0929   8.1120   8.1133
     8.1360   8.1671   8.1742   8.1856   8.1929   8.2014   8.2547   8.2658
     8.3091   8.3150   8.3347   8.3430   8.3536   8.3678   8.4023   8.4245
     8.4264   8.4370   8.4752   8.4853   8.5085   8.5185   8.5410   8.5762
     8.6256   8.6345   8.6389   8.6599   8.6856   8.6939   8.7029   8.7220
     8.7267   8.7365   8.7561   8.7633

          k = 0.0000 0.0000 0.0109 (139619 PWs)   bands (ev):

   -21.4521 -21.2748 -21.0644 -20.8351 -20.6498 -20.6190 -20.2706 -20.1638
   -20.1445 -19.9106 -19.7540 -19.6592 -19.5917 -19.3452 -19.1009 -18.9780
   -18.8599 -18.6744 -18.5488 -18.3427 -18.3343 -18.1742 -18.1195 -17.8626
   -17.6184 -17.5838 -17.4538 -17.3316 -17.1659 -17.0228 -16.9992 -16.8629
   -16.7647 -16.6189 -16.5927 -16.4766 -16.2862 -16.2497 -15.9101 -15.7224
   -15.5846 -15.5179 -14.9079 -14.9047 -14.7239 -14.6956 -14.6071 -14.4052
   -14.3244 -14.1873 -14.1090 -14.0205 -13.8498 -13.8299 -13.6654 -13.5615
   -13.4970 -13.1179 -13.0574 -12.8391 -12.7973 -12.5896 -12.4643 -12.4468
   -12.3325 -12.0544 -12.0190 -11.8698 -11.8185 -11.7181 -11.5546 -11.2659
   -11.2272 -11.2142 -11.1903 -11.0996 -10.9319 -10.8738 -10.6834 -10.6265
   -10.5330 -10.3776 -10.3709 -10.2632 -10.0720  -9.9962  -9.9185  -9.7818
    -9.7739  -9.7244  -9.4938  -9.4667  -9.4557  -9.3694  -9.3021  -9.2936
    -9.2439  -9.1914  -9.1207  -9.1129  -9.0433  -8.9083  -8.8969  -8.8349
    -8.8128  -8.7716  -8.7542  -8.6995  -8.6906  -8.5744  -8.5550  -8.5506
    -8.5164  -8.4862  -8.3601  -8.3518  -8.2571  -8.2396  -8.1740  -8.1616
    -8.1408  -8.0217  -7.9973  -7.8752  -7.8730  -7.8280  -7.7367  -7.6390
    -7.5859  -7.5765  -7.5363  -7.4952  -7.4229  -7.3926  -7.3600  -7.2255
    -7.2249  -7.1407  -7.0547  -7.0316  -6.9324  -6.8315  -6.8203  -6.7094
    -6.6583  -6.6046  -6.5588  -6.5570  -6.3872  -6.3613  -6.2591  -6.2480
    -6.0679  -6.0096  -5.9679  -5.8864  -5.8460  -5.7946  -5.7931  -5.5769
    -5.5139  -5.4424  -5.2372  -5.1674  -5.1115  -5.0612  -4.9052  -4.7835
    -4.6567  -4.5451  -4.4131  -4.3945  -4.3918  -4.3014  -4.1029  -3.8751
    -3.4802  -3.3933  -3.0292  -2.9601  -1.2292  -1.2258  -1.0378  -0.9020
    -0.5591  -0.4826  -0.3289  -0.2542  -0.1124  -0.0025   0.1302   0.1842
     0.2589   0.3402   0.5453   0.7843   0.8153   0.8575   0.9497   1.0484
     1.0917   1.1047   1.1778   1.2315   1.4216   1.4546   1.5057   1.5216
     1.6285   1.7086   1.7262   1.7920   1.8085   1.8731   1.9623   1.9893
     2.0252   2.0285   2.1980   2.2073   2.2932   2.3379   2.3643   2.4149
     2.4325   2.4755   2.5333   2.5533   2.5934   2.6483   2.6538   2.7691
     2.7714   2.8172   2.8371   2.8438   2.8562   2.9517   2.9680   3.0241
     3.0439   3.0559   3.0875   3.1315   3.1358   3.2366   3.2630   3.2638
     3.2652   3.2673   3.3124   3.3717   3.4581   3.4674   3.4759   3.4837
     3.5499   3.5676   3.6030   3.6869   3.7030   3.7092   3.7857   3.7962
     3.8339   3.8960   3.9417   3.9475   3.9477   3.9948   4.0000   4.0139
     4.0275   4.0458   4.0730   4.1034   4.1528   4.1923   4.2452   4.2464
     4.2587   4.2783   4.3221   4.3929   4.4212   4.4506   4.4685   4.4877
     4.4992   4.5503   4.5662   4.5845   4.6223   4.6355   4.7077   4.7182
     4.7684   4.7825   4.8117   4.8131   4.8387   4.8451   4.8784   4.8802
     4.9446   4.9647   5.0147   5.0420   5.0597   5.0639   5.1189   5.1364
     5.1579   5.1581   5.1750   5.1989   5.2638   5.2645   5.2952   5.3359
     5.3546   5.3658   5.4204   5.4314   5.4558   5.4759   5.5309   5.5384
     5.5457   5.5470   5.5637   5.5727   5.5957   5.6594   5.6904   5.6970
     5.6978   5.7740   5.7957   5.7994   5.8131   5.8222   5.8302   5.8419
     5.8755   5.8966   5.9416   5.9546   5.9638   5.9910   5.9916   6.0015
     6.0309   6.0776   6.0822   6.1149   6.1183   6.1520   6.2143   6.2338
     6.2604   6.2779   6.2850   6.3328   6.3351   6.3469   6.3759   6.4091
     6.4204   6.4215   6.4441   6.4637   6.4771   6.4809   6.4955   6.5304
     6.5448   6.5508   6.5517   6.5522   6.5872   6.6077   6.6145   6.6153
     6.6728   6.6736   6.6999   6.7129   6.7202   6.7456   6.7529   6.7772
     6.7780   6.7803   6.8570   6.8894   6.9294   6.9320   6.9331   6.9799
     6.9892   7.0180   7.0206   7.0273   7.0332   7.0714   7.0948   7.0993
     7.1078   7.1775   7.1884   7.1941   7.2043   7.2375   7.2454   7.2521
     7.2543   7.2607   7.3272   7.3475   7.3526   7.3578   7.3776   7.3780
     7.3916   7.4077   7.4545   7.4756   7.4916   7.5163   7.5304   7.5558
     7.5726   7.6003   7.6081   7.6274   7.6643   7.6653   7.6832   7.7163
     7.7197   7.7306   7.7660   7.7879   7.8300   7.8449   7.8670   7.8746
     7.8768   7.8937   7.9149   7.9565   7.9920   8.0194   8.0314   8.0509
     8.0573   8.0641   8.0685   8.0699   8.0904   8.0915   8.0944   8.1161
     8.1251   8.1764   8.1835   8.1892   8.1898   8.2043   8.2422   8.2630
     8.2911   8.3170   8.3395   8.3437   8.3741   8.3873   8.4016   8.4355
     8.4398   8.4563   8.4730   8.4809   8.4880   8.5041   8.5296   8.5680
     8.6249   8.6349   8.6367   8.6520   8.6635   8.6898   8.7082   8.7199
     8.7528   8.7560   8.7578   8.7697

          k = 0.0000 0.0000 0.0121 (139601 PWs)   bands (ev):

   -21.4498 -21.2823 -21.0562 -20.8396 -20.6466 -20.6160 -20.2761 -20.1743
   -20.1372 -19.9177 -19.7492 -19.6458 -19.5951 -19.3484 -19.0966 -18.9819
   -18.8520 -18.6801 -18.5436 -18.3466 -18.3355 -18.1956 -18.1125 -17.8683
   -17.6162 -17.5736 -17.4446 -17.3280 -17.1699 -17.0311 -16.9924 -16.8555
   -16.7692 -16.6117 -16.5930 -16.4769 -16.2892 -16.2509 -15.9140 -15.7326
   -15.5830 -15.5385 -14.8991 -14.8784 -14.7267 -14.6997 -14.6031 -14.4122
   -14.3238 -14.1776 -14.1068 -14.0092 -13.8532 -13.8288 -13.6653 -13.5618
   -13.5128 -13.1366 -13.0561 -12.8495 -12.8010 -12.6002 -12.4517 -12.4269
   -12.3194 -12.0598 -12.0229 -11.8703 -11.8101 -11.7107 -11.5636 -11.2745
   -11.2338 -11.2158 -11.1824 -11.1077 -10.9413 -10.8617 -10.6732 -10.6307
   -10.5201 -10.3762 -10.3718 -10.2700 -10.0586 -10.0151  -9.9259  -9.7714
    -9.7664  -9.7324  -9.4911  -9.4579  -9.4553  -9.3604  -9.3016  -9.2942
    -9.2549  -9.1855  -9.1228  -9.1136  -9.0352  -8.9108  -8.9046  -8.8638
    -8.8174  -8.7825  -8.7541  -8.6939  -8.6918  -8.5705  -8.5514  -8.5470
    -8.5190  -8.4893  -8.3569  -8.3476  -8.2634  -8.2361  -8.1673  -8.1632
    -8.1369  -8.0132  -8.0090  -7.8663  -7.8641  -7.8215  -7.7465  -7.6378
    -7.5928  -7.5720  -7.5318  -7.4953  -7.4073  -7.3953  -7.3638  -7.2315
    -7.2240  -7.1382  -7.0602  -7.0408  -6.9278  -6.8326  -6.8142  -6.7100
    -6.6535  -6.5969  -6.5665  -6.5612  -6.3901  -6.3671  -6.2574  -6.2456
    -6.0767  -6.0104  -5.9711  -5.8770  -5.8370  -5.8151  -5.7791  -5.5817
    -5.5220  -5.4470  -5.2358  -5.1696  -5.1028  -5.0490  -4.9074  -4.7878
    -4.6532  -4.5475  -4.4117  -4.3919  -4.3876  -4.3039  -4.0992  -3.8792
    -3.4765  -3.3862  -3.0354  -2.9775  -1.2268  -1.2167  -1.0316  -0.8991
    -0.5570  -0.4834  -0.3293  -0.2614  -0.1049  -0.0041   0.1245   0.1888
     0.2537   0.3484   0.5300   0.7840   0.8179   0.8590   0.9273   1.0438
     1.1015   1.1052   1.1691   1.2284   1.4216   1.4465   1.5077   1.5092
     1.6365   1.7061   1.7497   1.8039   1.8228   1.8803   1.9623   1.9976
     2.0243   2.0275   2.2029   2.2146   2.2882   2.3362   2.3715   2.4045
     2.4365   2.4858   2.5320   2.5599   2.5824   2.6429   2.6528   2.7514
     2.7551   2.8276   2.8337   2.8444   2.8542   2.9447   2.9567   3.0183
     3.0217   3.0507   3.0758   3.1433   3.1473   3.2446   3.2578   3.2608
     3.2775   3.2796   3.3154   3.3583   3.4567   3.4576   3.4644   3.5032
     3.5567   3.5719   3.5918   3.6909   3.7173   3.7347   3.7895   3.8053
     3.8302   3.8948   3.9493   3.9523   3.9586   3.9959   4.0010   4.0114
     4.0389   4.0727   4.0751   4.1052   4.1524   4.1668   4.2321   4.2327
     4.2340   4.2621   4.3253   4.3967   4.4026   4.4555   4.4663   4.4761
     4.4898   4.5434   4.5496   4.5975   4.6318   4.6330   4.7235   4.7248
     4.7620   4.7822   4.8193   4.8197   4.8275   4.8471   4.8807   4.8932
     4.9601   4.9724   5.0219   5.0532   5.0561   5.0649   5.1178   5.1214
     5.1460   5.1787   5.1801   5.2285   5.2443   5.2607   5.3023   5.3508
     5.3698   5.3821   5.4192   5.4224   5.4260   5.4772   5.5045   5.5187
     5.5479   5.5505   5.5679   5.5702   5.5777   5.6615   5.6940   5.6956
     5.7025   5.7517   5.7821   5.7957   5.8202   5.8249   5.8275   5.8397
     5.8737   5.8865   5.9383   5.9386   5.9626   5.9848   5.9932   6.0202
     6.0283   6.0868   6.0875   6.1088   6.1117   6.1679   6.2213   6.2465
     6.2572   6.2831   6.2910   6.3269   6.3439   6.3475   6.3786   6.4095
     6.4111   6.4343   6.4441   6.4635   6.4847   6.4898   6.4980   6.5228
     6.5426   6.5526   6.5528   6.5532   6.5717   6.5970   6.6066   6.6181
     6.6693   6.6707   6.7106   6.7132   6.7218   6.7485   6.7602   6.7664
     6.7819   6.7862   6.8554   6.8654   6.9345   6.9390   6.9417   6.9832
     6.9852   6.9859   7.0073   7.0185   7.0569   7.0724   7.0791   7.0903
     7.1016   7.1722   7.1730   7.2041   7.2167   7.2337   7.2428   7.2431
     7.2502   7.2803   7.3176   7.3347   7.3478   7.3677   7.3702   7.3953
     7.3992   7.4247   7.4287   7.4747   7.4755   7.5081   7.5350   7.5454
     7.5659   7.5982   7.6065   7.6430   7.6645   7.6833   7.6855   7.7289
     7.7474   7.7560   7.7676   7.8160   7.8240   7.8280   7.8571   7.8724
     7.8796   7.9033   7.9061   7.9709   8.0050   8.0297   8.0368   8.0493
     8.0554   8.0580   8.0676   8.0718   8.0783   8.0979   8.1133   8.1252
     8.1307   8.1683   8.1801   8.1969   8.2018   8.2201   8.2329   8.2710
     8.2727   8.3158   8.3424   8.3454   8.3931   8.4008   8.4177   8.4395
     8.4482   8.4621   8.4664   8.4792   8.4947   8.4995   8.5200   8.5584
     8.6022   8.6243   8.6364   8.6451   8.6678   8.6929   8.7142   8.7262
     8.7459   8.7659   8.7781   8.7925

          k = 0.0000 0.0000 0.0133 (139557 PWs)   bands (ev):

   -21.4472 -21.2898 -21.0478 -20.8443 -20.6432 -20.6130 -20.2814 -20.1851
   -20.1298 -19.9248 -19.7442 -19.6322 -19.5988 -19.3521 -19.0919 -18.9855
   -18.8440 -18.6856 -18.5386 -18.3504 -18.3369 -18.2173 -18.1052 -17.8745
   -17.6138 -17.5652 -17.4340 -17.3237 -17.1743 -17.0400 -16.9850 -16.8472
   -16.7740 -16.6055 -16.5923 -16.4772 -16.2923 -16.2524 -15.9180 -15.7456
   -15.5815 -15.5550 -14.8929 -14.8513 -14.7295 -14.7037 -14.5993 -14.4193
   -14.3209 -14.1679 -14.1044 -13.9981 -13.8570 -13.8277 -13.6656 -13.5614
   -13.5301 -13.1564 -13.0545 -12.8602 -12.8028 -12.6106 -12.4386 -12.4083
   -12.3068 -12.0659 -12.0262 -11.8711 -11.8008 -11.7033 -11.5714 -11.2853
   -11.2386 -11.2232 -11.1704 -11.1167 -10.9484 -10.8492 -10.6630 -10.6352
   -10.5106 -10.3820 -10.3627 -10.2762 -10.0450 -10.0350  -9.9330  -9.7634
    -9.7581  -9.7371  -9.4881  -9.4600  -9.4476  -9.3488  -9.3097  -9.2857
    -9.2668  -9.1791  -9.1263  -9.1142  -9.0269  -8.9142  -8.9126  -8.8906
    -8.8223  -8.7943  -8.7532  -8.6931  -8.6881  -8.5663  -8.5477  -8.5437
    -8.5223  -8.4921  -8.3545  -8.3432  -8.2690  -8.2326  -8.1727  -8.1539
    -8.1333  -8.0212  -8.0047  -7.8572  -7.8537  -7.8150  -7.7562  -7.6356
    -7.5999  -7.5673  -7.5270  -7.4959  -7.3983  -7.3917  -7.3678  -7.2375
    -7.2232  -7.1361  -7.0661  -7.0505  -6.9229  -6.8336  -6.8076  -6.7105
    -6.6490  -6.5890  -6.5744  -6.5648  -6.3939  -6.3732  -6.2550  -6.2430
    -6.0853  -6.0115  -5.9740  -5.8672  -5.8360  -5.8277  -5.7650  -5.5868
    -5.5306  -5.4521  -5.2343  -5.1718  -5.0940  -5.0367  -4.9098  -4.7925
    -4.6495  -4.5500  -4.4101  -4.3893  -4.3832  -4.3066  -4.0950  -3.8836
    -3.4723  -3.3787  -3.0422  -2.9957  -1.2241  -1.2082  -1.0243  -0.8961
    -0.5547  -0.4844  -0.3297  -0.2684  -0.0974  -0.0053   0.1184   0.1938
     0.2477   0.3573   0.5139   0.7813   0.8207   0.8606   0.9072   1.0388
     1.1054   1.1127   1.1604   1.2256   1.4176   1.4420   1.4968   1.5096
     1.6454   1.7035   1.7712   1.8143   1.8370   1.8884   1.9641   2.0073
     2.0234   2.0261   2.2078   2.2222   2.2825   2.3354   2.3797   2.3945
     2.4408   2.4961   2.5310   2.5665   2.5711   2.6370   2.6512   2.7317
     2.7413   2.8247   2.8386   2.8419   2.8611   2.9221   2.9597   2.9950
     3.0160   3.0501   3.0629   3.1529   3.1577   3.2524   3.2537   3.2569
     3.2908   3.2935   3.3170   3.3444   3.4485   3.4512   3.4564   3.5175
     3.5693   3.5779   3.5866   3.6948   3.7173   3.7663   3.8002   3.8056
     3.8219   3.8975   3.9454   3.9599   3.9726   3.9907   3.9990   4.0301
     4.0464   4.0785   4.1024   4.1062   4.1429   4.1523   4.2119   4.2180
     4.2192   4.2479   4.3306   4.3851   4.4039   4.4338   4.4414   4.4918
     4.4963   4.5161   4.5524   4.6119   4.6291   4.6491   4.7263   4.7332
     4.7393   4.7970   4.8072   4.8214   4.8342   4.8631   4.8842   4.8900
     4.9594   4.9948   5.0196   5.0423   5.0655   5.0949   5.1094   5.1181
     5.1353   5.1825   5.1909   5.2329   5.2575   5.2605   5.3051   5.3650
     5.3677   5.4035   5.4097   5.4149   5.4183   5.4756   5.4783   5.4932
     5.5398   5.5527   5.5600   5.5679   5.5902   5.6645   5.6813   5.6904
     5.7114   5.7369   5.7697   5.7868   5.8107   5.8107   5.8560   5.8573
     5.8717   5.8726   5.9213   5.9352   5.9638   5.9800   5.9967   6.0270
     6.0383   6.0922   6.0966   6.1038   6.1079   6.1853   6.2285   6.2518
     6.2570   6.2905   6.2908   6.3167   6.3424   6.3516   6.3760   6.3948
     6.4028   6.4415   6.4499   6.4711   6.4847   6.4874   6.4990   6.5040
     6.5260   6.5414   6.5556   6.5585   6.5650   6.5942   6.6261   6.6336
     6.6707   6.6756   6.7027   6.7112   6.7424   6.7544   6.7549   6.7684
     6.7899   6.7949   6.8402   6.8530   6.9394   6.9404   6.9425   6.9537
     6.9768   6.9849   6.9974   7.0092   7.0537   7.0754   7.0758   7.0867
     7.1131   7.1545   7.1665   7.2151   7.2218   7.2275   7.2311   7.2331
     7.2644   7.2871   7.3060   7.3265   7.3442   7.3797   7.3814   7.3991
     7.4110   7.4119   7.4378   7.4644   7.4744   7.5078   7.5144   7.5482
     7.5734   7.5882   7.6130   7.6499   7.6590   7.6969   7.6973   7.7406
     7.7682   7.7736   7.7780   7.8093   7.8198   7.8452   7.8543   7.8660
     7.8771   7.8895   7.9071   7.9861   8.0027   8.0277   8.0308   8.0337
     8.0512   8.0564   8.0669   8.0747   8.0953   8.1056   8.1332   8.1338
     8.1486   8.1492   8.1859   8.2119   8.2145   8.2322   8.2362   8.2657
     8.2822   8.3153   8.3476   8.3493   8.3976   8.3993   8.4210   8.4297
     8.4510   8.4687   8.4736   8.4954   8.5044   8.5057   8.5156   8.5478
     8.5788   8.6245   8.6392   8.6414   8.6768   8.7007   8.7175   8.7320
     8.7400   8.7658   8.8007   8.8158

          k = 0.0000 0.0000 0.0145 (139561 PWs)   bands (ev):

   -21.4444 -21.2974 -21.0393 -20.8494 -20.6395 -20.6099 -20.2864 -20.1961
   -20.1224 -19.9320 -19.7392 -19.6184 -19.6027 -19.3562 -19.0869 -18.9887
   -18.8362 -18.6910 -18.5337 -18.3540 -18.3384 -18.2388 -18.0977 -17.8812
   -17.6112 -17.5585 -17.4222 -17.3188 -17.1790 -17.0493 -16.9772 -16.8381
   -16.7790 -16.6022 -16.5890 -16.4776 -16.2956 -16.2543 -15.9221 -15.7611
   -15.5800 -15.5676 -14.8863 -14.8270 -14.7323 -14.7075 -14.5957 -14.4264
   -14.3154 -14.1583 -14.1018 -13.9870 -13.8613 -13.8264 -13.6665 -13.5600
   -13.5488 -13.1772 -13.0525 -12.8708 -12.8029 -12.6208 -12.4250 -12.3908
   -12.2949 -12.0728 -12.0287 -11.8722 -11.7907 -11.6959 -11.5778 -11.2977
   -11.2419 -11.2314 -11.1597 -11.1265 -10.9525 -10.8366 -10.6530 -10.6398
   -10.5043 -10.3880 -10.3506 -10.2813 -10.0554 -10.0314  -9.9400  -9.7641
    -9.7490  -9.7325  -9.4848  -9.4619  -9.4434  -9.3349  -9.3179  -9.2797
    -9.2768  -9.1725  -9.1315  -9.1149  -9.0185  -8.9230  -8.9163  -8.9147
    -8.8275  -8.8068  -8.7518  -8.6944  -8.6822  -8.5618  -8.5439  -8.5406
    -8.5262  -8.4946  -8.3527  -8.3389  -8.2739  -8.2294  -8.1777  -8.1461
    -8.1301  -8.0339  -7.9962  -7.8481  -7.8420  -7.8087  -7.7658  -7.6323
    -7.6069  -7.5626  -7.5221  -7.4969  -7.4013  -7.3761  -7.3722  -7.2434
    -7.2227  -7.1342  -7.0726  -7.0605  -6.9178  -6.8347  -6.8007  -6.7107
    -6.6453  -6.5825  -6.5810  -6.5676  -6.3985  -6.3795  -6.2521  -6.2402
    -6.0937  -6.0128  -5.9766  -5.8571  -5.8569  -5.8181  -5.7509  -5.5924
    -5.5397  -5.4576  -5.2327  -5.1740  -5.0851  -5.0243  -4.9126  -4.7976
    -4.6456  -4.5525  -4.4084  -4.3868  -4.3788  -4.3093  -4.0902  -3.8883
    -3.4675  -3.3709  -3.0494  -3.0147  -1.2213  -1.2006  -1.0158  -0.8930
    -0.5523  -0.4854  -0.3301  -0.2752  -0.0899  -0.0059   0.1120   0.1991
     0.2410   0.3667   0.4971   0.7747   0.8237   0.8622   0.8914   1.0335
     1.1053   1.1250   1.1518   1.2234   1.4092   1.4418   1.4842   1.5112
     1.6548   1.7009   1.7906   1.8230   1.8507   1.8972   1.9677   2.0181
     2.0229   2.0241   2.2124   2.2299   2.2763   2.3355   2.3851   2.3887
     2.4454   2.5063   2.5305   2.5596   2.5725   2.6308   2.6489   2.7123
     2.7279   2.8171   2.8342   2.8502   2.8714   2.9009   2.9591   2.9746
     3.0112   3.0498   3.0516   3.1596   3.1640   3.2485   3.2523   3.2638
     3.3047   3.3090   3.3165   3.3324   3.4305   3.4487   3.4575   3.5218
     3.5848   3.5858   3.5924   3.6988   3.7106   3.7964   3.7968   3.8107
     3.8145   3.9025   3.9416   3.9646   3.9848   3.9867   4.0060   4.0484
     4.0496   4.0919   4.1057   4.1217   4.1217   4.1571   4.1942   4.2056
     4.2068   4.2364   4.3358   4.3690   4.4008   4.4145   4.4267   4.4881
     4.4937   4.5084   4.5620   4.6266   4.6273   4.6663   4.7098   4.7157
     4.7438   4.8117   4.8142   4.8189   4.8381   4.8748   4.8796   4.8880
     4.9574   5.0147   5.0153   5.0264   5.0890   5.1012   5.1199   5.1234
     5.1261   5.1832   5.1868   5.2372   5.2647   5.2852   5.3017   5.3527
     5.3840   5.4006   5.4079   5.4086   5.4361   5.4474   5.4734   5.4802
     5.5306   5.5431   5.5577   5.5654   5.6011   5.6638   5.6687   5.6866
     5.7136   5.7353   5.7590   5.7683   5.8023   5.8053   5.8557   5.8678
     5.8746   5.8907   5.9103   5.9302   5.9646   5.9781   6.0018   6.0274
     6.0557   6.0951   6.0960   6.1064   6.1111   6.2009   6.2359   6.2502
     6.2611   6.2828   6.3000   6.3052   6.3317   6.3551   6.3714   6.3777
     6.3897   6.4386   6.4631   6.4651   6.4796   6.4805   6.4898   6.4939
     6.5149   6.5461   6.5489   6.5611   6.5633   6.5947   6.6343   6.6723
     6.6759   6.6895   6.6947   6.7088   6.7429   6.7622   6.7642   6.7769
     6.8037   6.8047   6.8140   6.8501   6.9229   6.9307   6.9340   6.9482
     6.9486   6.9922   6.9985   7.0112   7.0313   7.0722   7.0825   7.0999
     7.1220   7.1365   7.1660   7.2034   7.2133   7.2149   7.2410   7.2429
     7.2570   7.2790   7.3106   7.3404   7.3421   7.3767   7.3902   7.3959
     7.4192   7.4268   7.4303   7.4726   7.4757   7.4954   7.5151   7.5445
     7.5810   7.5899   7.6193   7.6342   7.6755   7.6965   7.7075   7.7511
     7.7638   7.7968   7.7974   7.7989   7.8125   7.8468   7.8587   7.8663
     7.8746   7.8841   7.8983   7.9905   7.9991   8.0137   8.0267   8.0297
     8.0420   8.0627   8.0663   8.0839   8.1010   8.1166   8.1320   8.1378
     8.1549   8.1795   8.2031   8.2144   8.2336   8.2407   8.2432   8.2780
     8.2912   8.3169   8.3503   8.3569   8.3846   8.3972   8.4129   8.4145
     8.4599   8.4699   8.4828   8.4922   8.4941   8.5295   8.5369   8.5499
     8.5823   8.6242   8.6349   8.6512   8.6830   8.7103   8.7165   8.7354
     8.7413   8.7607   8.8060   8.8140

          k = 0.0000 0.0000 0.0157 (139527 PWs)   bands (ev):

   -21.4413 -21.3050 -21.0307 -20.8547 -20.6357 -20.6069 -20.2911 -20.2071
   -20.1150 -19.9391 -19.7341 -19.6068 -19.6044 -19.3608 -19.0817 -18.9917
   -18.8284 -18.6963 -18.5289 -18.3572 -18.3400 -18.2602 -18.0899 -17.8882
   -17.6084 -17.5535 -17.4094 -17.3132 -17.1841 -17.0591 -16.9690 -16.8281
   -16.7843 -16.6021 -16.5826 -16.4780 -16.2989 -16.2567 -15.9262 -15.7787
   -15.5787 -15.5765 -14.8793 -14.8058 -14.7351 -14.7111 -14.5921 -14.4335
   -14.3069 -14.1489 -14.0991 -13.9762 -13.8660 -13.8250 -13.6681 -13.5686
   -13.5576 -13.1984 -13.0502 -12.8815 -12.8016 -12.6307 -12.4110 -12.3747
   -12.2839 -12.0806 -12.0303 -11.8736 -11.7800 -11.6889 -11.5828 -11.3111
   -11.2443 -11.2394 -11.1520 -11.1369 -10.9528 -10.8240 -10.6448 -10.6437
   -10.5007 -10.3943 -10.3369 -10.2844 -10.0761 -10.0178  -9.9470  -9.7714
    -9.7391  -9.7206  -9.4813  -9.4636  -9.4419  -9.3262  -9.3197  -9.2933
    -9.2677  -9.1666  -9.1378  -9.1156  -9.0100  -8.9352  -8.9332  -8.9195
    -8.8329  -8.8198  -8.7501  -8.6958  -8.6761  -8.5572  -8.5402  -8.5377
    -8.5307  -8.4969  -8.3512  -8.3350  -8.2779  -8.2264  -8.1822  -8.1399
    -8.1271  -8.0468  -7.9876  -7.8392  -7.8295  -7.8028  -7.7752  -7.6275
    -7.6140  -7.5577  -7.5169  -7.4983  -7.4044  -7.3768  -7.3605  -7.2493
    -7.2225  -7.1327  -7.0795  -7.0706  -6.9125  -6.8357  -6.7935  -6.7107
    -6.6427  -6.5905  -6.5728  -6.5691  -6.4039  -6.3860  -6.2486  -6.2371
    -6.1018  -6.0146  -5.9789  -5.8780  -5.8462  -5.8083  -5.7368  -5.5984
    -5.5492  -5.4637  -5.2310  -5.1762  -5.0762  -5.0121  -4.9156  -4.8030
    -4.6416  -4.5552  -4.4065  -4.3842  -4.3744  -4.3122  -4.0848  -3.8935
    -3.4622  -3.3629  -3.0571  -3.0340  -1.2184  -1.1939  -1.0062  -0.8899
    -0.5498  -0.4867  -0.3304  -0.2815  -0.0824  -0.0059   0.1053   0.2049
     0.2335   0.3766   0.4797   0.7633   0.8269   0.8638   0.8814   1.0278
     1.1048   1.1380   1.1434   1.2220   1.3985   1.4439   1.4715   1.5125
     1.6643   1.6985   1.8077   1.8302   1.8637   1.9066   1.9732   2.0217
     2.0230   2.0300   2.2165   2.2372   2.2705   2.3364   2.3768   2.3983
     2.4503   2.5165   2.5305   2.5482   2.5774   2.6247   2.6457   2.6934
     2.7150   2.8108   2.8233   2.8623   2.8813   2.8827   2.9541   2.9579
     3.0096   3.0370   3.0541   3.1624   3.1639   3.2467   3.2482   3.2750
     3.3136   3.3181   3.3240   3.3257   3.4125   3.4507   3.4604   3.5166
     3.5919   3.6046   3.6085   3.7000   3.7029   3.7815   3.7981   3.8141
     3.8368   3.9039   3.9420   3.9662   3.9861   3.9985   4.0136   4.0503
     4.0685   4.1030   4.1039   4.1089   4.1276   4.1667   4.1835   4.1913
     4.2063   4.2284   4.3402   4.3541   4.3683   4.4118   4.4281   4.4606
     4.4953   4.5118   4.5774   4.6261   4.6421   4.6826   4.6833   4.6925
     4.7570   4.8121   4.8193   4.8323   4.8420   4.8607   4.8909   4.8930
     4.9546   5.0063   5.0080   5.0314   5.0947   5.1179   5.1200   5.1232
[...]
    -6.6583  -6.6505  -6.5224  -6.4977  -6.4714  -6.4503  -6.2029  -6.1799
    -6.1661  -6.0993  -5.9890  -5.9841  -5.7445  -5.7128  -5.6836  -5.6453
    -5.6037  -5.5382  -5.2119  -5.1974  -4.9986  -4.9567  -4.9154  -4.8643
    -4.6040  -4.5822  -4.3847  -4.3732  -4.3454  -4.3363  -4.0121  -3.9563
    -3.3840  -3.3246  -3.1650  -3.1376  -1.1903  -1.1772  -0.9070  -0.8771
    -0.5235  -0.5058  -0.3301  -0.3209  -0.0090   0.0382   0.0387   0.1229
     0.2713   0.3346   0.4884   0.5872   0.8580   0.8701   0.9180   0.9652
     1.0889   1.0909   1.2487   1.2664   1.2987   1.3518   1.4794   1.5028
     1.6956   1.7064   1.8888   1.8922   1.9107   1.9508   2.0194   2.0422
     2.0733   2.1065   2.1911   2.1977   2.3589   2.3793   2.3876   2.4316
     2.4639   2.4928   2.5304   2.5498   2.5818   2.5899   2.5967   2.5976
     2.6320   2.6682   2.8160   2.8438   2.8600   2.9147   2.9331   2.9815
     2.9914   3.0177   3.0363   3.0843   3.1202   3.1792   3.1935   3.2140
     3.3316   3.3839   3.4295   3.4357   3.4977   3.5286   3.5330   3.5438
     3.5533   3.6236   3.6458   3.6486   3.7104   3.7147   3.7312   3.7784
     3.8421   3.8685   3.9261   3.9628   4.0083   4.0085   4.0749   4.0798
     4.0801   4.0997   4.1538   4.1564   4.1817   4.2026   4.2159   4.2566
     4.2794   4.2957   4.3173   4.3341   4.3621   4.3825   4.3879   4.4256
     4.4392   4.4905   4.5102   4.5546   4.6034   4.6119   4.6630   4.6962
     4.7077   4.8038   4.8145   4.8192   4.8549   4.8628   4.8768   4.9033
     4.9879   5.0158   5.0194   5.0518   5.0553   5.1024   5.1032   5.1961
     5.2057   5.2219   5.2559   5.2793   5.2852   5.2880   5.2941   5.3071
     5.3562   5.3728   5.3820   5.4020   5.4137   5.4757   5.4794   5.5046
     5.5063   5.5366   5.5617   5.5764   5.5900   5.6546   5.6706   5.6725
     5.6869   5.7191   5.7694   5.7810   5.8002   5.8361   5.8538   5.8598
     5.8921   5.9377   5.9505   5.9563   5.9714   6.0018   6.0051   6.0483
     6.0751   6.1063   6.1203   6.1395   6.1650   6.1651   6.2057   6.2076
     6.2243   6.2442   6.2531   6.2532   6.2563   6.2704   6.2732   6.2984
     6.3271   6.3318   6.4176   6.4220   6.4431   6.4843   6.5150   6.5203
     6.5265   6.5499   6.5546   6.5692   6.5945   6.6213   6.6277   6.6289
     6.6576   6.6619   6.6866   6.6881   6.7452   6.7600   6.7644   6.7891
     6.8011   6.8256   6.8270   6.8342   6.8683   6.8787   6.9161   6.9487
     6.9766   6.9895   7.0477   7.0589   7.0757   7.0856   7.1122   7.1177
     7.1268   7.1273   7.1431   7.1937   7.2272   7.2331   7.2512   7.2632
     7.2679   7.2934   7.3306   7.3364   7.3552   7.4007   7.4034   7.4446
     7.4470   7.4528   7.4667   7.4827   7.4860   7.5073   7.5105   7.5132
     7.5751   7.5967   7.6338   7.6525   7.6755   7.7010   7.7114   7.7184
     7.7271   7.7656   7.7673   7.7705   7.7930   7.8259   7.8449   7.8743
     7.8830   7.8841   7.9204   7.9609   7.9841   8.0096   8.0249   8.0692
     8.0707   8.0979   8.1046   8.1440   8.1496   8.1613   8.1852   8.1928
     8.2105   8.2225   8.2365   8.2571   8.3005   8.3054   8.3283   8.3288
     8.3365   8.3369   8.3599   8.3847   8.4097   8.4152   8.4200   8.4721
     8.4906   8.4944   8.5144   8.5146   8.5617   8.5739   8.5793   8.6235
     8.6260   8.6424   8.6509   8.6611   8.6617   8.7040   8.7139   8.7216
     8.7335   8.7473   8.7741   8.7846

          k = 0.0000 0.0000 0.0278 (139572 PWs)   bands (ev):

   -21.3982 -21.3749 -20.9482 -20.9184 -20.5978 -20.5912 -20.3100 -20.2959
   -20.0407 -20.0112 -19.6792 -19.6569 -19.4750 -19.4331 -19.0300 -19.0160
   -18.7611 -18.7417 -18.4753 -18.4351 -18.3656 -18.3592 -18.0052 -17.9701
   -17.5740 -17.5600 -17.2868 -17.2514 -17.2201 -17.1719 -16.8813 -16.8493
   -16.6985 -16.6526 -16.5105 -16.4929 -16.3161 -16.3025 -15.9476 -15.9306
   -15.5830 -15.5774 -14.7918 -14.7589 -14.7520 -14.7489 -14.5350 -14.5056
   -14.0865 -14.0853 -14.0736 -13.9760 -13.8836 -13.8475 -13.7271 -13.7156
   -13.4651 -13.4003 -13.0061 -12.9773 -12.7495 -12.7193 -12.2718 -12.2612
   -12.2517 -12.2005 -11.9726 -11.9295 -11.6764 -11.6581 -11.5293 -11.4671
   -11.2667 -11.2444 -11.2297 -11.2030 -10.8142 -10.7586 -10.6768 -10.6448
   -10.4690 -10.4519 -10.3039 -10.2603 -10.1143 -10.0469  -9.8996  -9.8649
    -9.5931  -9.5683  -9.4860  -9.4633  -9.4377  -9.4314  -9.4047  -9.3970
    -9.1687  -9.1405  -9.1152  -9.0606  -9.0398  -8.9801  -8.9707  -8.9500
    -8.9277  -8.8977  -8.7256  -8.7153  -8.6134  -8.5885  -8.5186  -8.5171
    -8.5141  -8.5129  -8.3433  -8.3380  -8.2485  -8.2294  -8.1879  -8.1628
    -8.1183  -8.1151  -7.9005  -7.8654  -7.7803  -7.7753  -7.7159  -7.6834
    -7.5400  -7.5233  -7.4832  -7.4579  -7.4464  -7.4331  -7.2838  -7.2662
    -7.2191  -7.1719  -7.1319  -7.1317  -6.8603  -6.8480  -6.7276  -6.7147
    -6.6593  -6.6541  -6.5141  -6.4896  -6.4800  -6.4580  -6.1970  -6.1725
    -6.1688  -6.1147  -5.9890  -5.9861  -5.7334  -5.7016  -5.6925  -5.6565
    -5.5925  -5.5486  -5.2095  -5.1998  -4.9909  -4.9629  -4.9062  -4.8722
    -4.6001  -4.5855  -4.3822  -4.3742  -4.3437  -4.3380  -4.0025  -3.9651
    -3.3725  -3.3310  -3.1661  -3.1459  -1.1875  -1.1786  -0.8991  -0.8792
    -0.5204  -0.5086  -0.3293  -0.3232  -0.0009   0.0305   0.0503   0.1074
     0.2804   0.3223   0.5034   0.5691   0.8609   0.8691   0.9258   0.9574
     1.0876   1.0888   1.2557   1.2809   1.2891   1.3378   1.4837   1.4995
     1.6975   1.7053   1.8937   1.9025   1.9085   1.9426   2.0270   2.0436
     2.0820   2.1052   2.1877   2.1930   2.3736   2.3871   2.3937   2.4222
     2.4610   2.4778   2.5386   2.5558   2.5736   2.5831   2.6027   2.6034
     2.6261   2.6522   2.8216   2.8510   2.8544   2.9034   2.9408   2.9791
     2.9988   3.0103   3.0417   3.0740   3.1316   3.1759   3.1808   3.1998
     3.3411   3.3782   3.4437   3.4550   3.5125   3.5150   3.5366   3.5500
     3.5558   3.6221   3.6392   3.6443   3.7078   3.7090   3.7199   3.7639
     3.8625   3.8866   3.9170   3.9648   3.9839   4.0063   4.0609   4.0721
     4.0838   4.0979   4.1647   4.1746   4.1964   4.2015   4.2360   4.2511
     4.2795   4.3111   4.3237   4.3337   4.3492   4.3807   4.3976   4.4260
     4.4271   4.5047   4.5242   4.5315   4.5970   4.6131   4.6402   4.6804
     4.7019   4.7933   4.8222   4.8333   4.8569   4.8729   4.8749   4.8895
     4.9726   5.0007   5.0335   5.0729   5.0768   5.0930   5.1265   5.1983
     5.2035   5.2120   5.2395   5.2701   5.2755   5.2822   5.3055   5.3161
     5.3527   5.3631   5.3707   5.3906   5.4255   5.4688   5.4796   5.4998
     5.5326   5.5394   5.5563   5.5851   5.6031   5.6644   5.6770   5.6779
     5.6992   5.7298   5.7581   5.7739   5.7826   5.8440   5.8547   5.8654
     5.8955   5.9277   5.9368   5.9512   5.9812   5.9978   6.0051   6.0416
     6.0761   6.1152   6.1152   6.1450   6.1488   6.1726   6.2046   6.2103
     6.2228   6.2314   6.2364   6.2418   6.2696   6.2811   6.2882   6.2975
     6.3231   6.3252   6.4213   6.4348   6.4407   6.4821   6.5070   6.5075
     6.5286   6.5527   6.5562   6.5772   6.5968   6.6175   6.6217   6.6304
     6.6325   6.6613   6.6847   6.6870   6.7500   6.7658   6.7665   6.7888
     6.7911   6.8093   6.8297   6.8340   6.8636   6.8724   6.9266   6.9637
     6.9791   6.9932   7.0313   7.0499   7.0807   7.0942   7.1142   7.1155
     7.1356   7.1457   7.1488   7.2084   7.2207   7.2542   7.2573   7.2619
     7.2716   7.2947   7.3358   7.3396   7.3730   7.3823   7.3858   7.4154
     7.4318   7.4558   7.4715   7.4865   7.4883   7.5045   7.5053   7.5097
     7.5758   7.6018   7.6240   7.6482   7.6747   7.7188   7.7197   7.7251
     7.7259   7.7487   7.7601   7.7710   7.7821   7.8395   7.8529   7.8824
     7.8879   7.8972   7.9184   7.9567   7.9610   8.0385   8.0472   8.0723
     8.0757   8.0917   8.1123   8.1366   8.1436   8.1644   8.1701   8.1778
     8.1963   8.2350   8.2377   8.2492   8.3031   8.3101   8.3106   8.3180
     8.3311   8.3319   8.3627   8.3921   8.3996   8.4008   8.4241   8.4870
     8.4937   8.5258   8.5268   8.5471   8.5610   8.5855   8.5876   8.6208
     8.6399   8.6409   8.6685   8.6699   8.6758   8.6829   8.7121   8.7252
     8.7258   8.7325   8.7590   8.7596

          k = 0.0000 0.0000 0.0290 (139570 PWs)   bands (ev):

   -21.3927 -21.3810 -20.9405 -20.9256 -20.5953 -20.5920 -20.3078 -20.3008
   -20.0333 -20.0186 -19.6736 -19.6624 -19.4639 -19.4429 -19.0260 -19.0190
   -18.7559 -18.7462 -18.4669 -18.4469 -18.3643 -18.3610 -17.9964 -17.9789
   -17.5703 -17.5633 -17.2774 -17.2597 -17.2082 -17.1840 -16.8730 -16.8570
   -16.6858 -16.6627 -16.5053 -16.4965 -16.3140 -16.3071 -15.9455 -15.9371
   -15.5814 -15.5786 -14.7827 -14.7658 -14.7520 -14.7507 -14.5277 -14.5129
   -14.0830 -14.0814 -14.0507 -13.9991 -13.8749 -13.8568 -13.7268 -13.7204
   -13.4500 -13.4176 -12.9995 -12.9851 -12.7423 -12.7271 -12.2659 -12.2564
   -12.2451 -12.2153 -11.9616 -11.9398 -11.6701 -11.6609 -11.5147 -11.4833
   -11.2629 -11.2517 -11.2242 -11.2107 -10.7981 -10.7697 -10.6694 -10.6528
   -10.4645 -10.4561 -10.2955 -10.2736 -10.0959 -10.0621  -9.8905  -9.8733
    -9.5783  -9.5638  -9.4868  -9.4725  -9.4345  -9.4251  -9.4131  -9.4117
    -9.1602  -9.1462  -9.1017  -9.0743  -9.0246  -8.9943  -8.9665  -8.9564
    -8.9200  -8.9050  -8.7229  -8.7178  -8.6072  -8.5947  -8.5171  -8.5154
    -8.5143  -8.5139  -8.3422  -8.3395  -8.2432  -8.2335  -8.1832  -8.1706
    -8.1173  -8.1156  -7.8918  -7.8742  -7.7782  -7.7757  -7.7072  -7.6910
    -7.5349  -7.5267  -7.4726  -7.4540  -7.4517  -7.4393  -7.2815  -7.2726
    -7.2068  -7.1832  -7.1324  -7.1322  -6.8565  -6.8504  -6.7235  -6.7170
    -6.6594  -6.6568  -6.5056  -6.4885  -6.4816  -6.4657  -6.1910  -6.1787
    -6.1567  -6.1295  -5.9888  -5.9874  -5.7226  -5.7021  -5.6904  -5.6678
    -5.5813  -5.5592  -5.2071  -5.2023  -4.9834  -4.9694  -4.8974  -4.8804
    -4.5963  -4.5890  -4.3798  -4.3757  -4.3422  -4.3395  -3.9929  -3.9741
    -3.3610  -3.3396  -3.1641  -3.1534  -1.1849  -1.1804  -0.8923  -0.8824
    -0.5174  -0.5115  -0.3282  -0.3252   0.0071   0.0228   0.0632   0.0920
     0.2900   0.3109   0.5189   0.5517   0.8635   0.8676   0.9337   0.9495
     1.0869   1.0874   1.2632   1.2800   1.2953   1.3238   1.4879   1.4959
     1.6995   1.7036   1.8981   1.9056   1.9129   1.9333   2.0338   2.0426
     2.0899   2.1019   2.1863   2.1892   2.3864   2.3953   2.3970   2.4130
     2.4582   2.4656   2.5472   2.5623   2.5648   2.5762   2.6088   2.6124
     2.6203   2.6373   2.8280   2.8427   2.8662   2.8912   2.9498   2.9704
     3.0042   3.0086   3.0482   3.0644   3.1435   3.1682   3.1761   3.1883
     3.3507   3.3698   3.4610   3.4743   3.4978   3.5104   3.5348   3.5506
     3.5780   3.6141   3.6347   3.6402   3.7052   3.7071   3.7200   3.7463
     3.8804   3.9069   3.9094   3.9590   3.9716   3.9963   4.0566   4.0650
     4.0877   4.0951   4.1763   4.1862   4.1967   4.1985   4.2592   4.2622
     4.2784   4.3077   4.3212   4.3214   4.3500   4.3829   4.4035   4.4118
     4.4426   4.4948   4.5293   4.5525   4.5888   4.6039   4.6198   4.6547
     4.7233   4.7701   4.8421   4.8474   4.8591   4.8696   4.8755   4.8771
     4.9649   4.9851   5.0499   5.0799   5.0897   5.0926   5.1537   5.1913
     5.1994   5.2127   5.2169   5.2515   5.2755   5.2788   5.3192   5.3298
     5.3523   5.3556   5.3616   5.3763   5.4362   5.4574   5.4850   5.4955
     5.5428   5.5514   5.5525   5.5775   5.6349   5.6642   5.6707   5.6959
     5.6980   5.7308   5.7551   5.7770   5.7772   5.8430   5.8483   5.8518
     5.9014   5.9176   5.9496   5.9566   5.9764   5.9933   6.0070   6.0323
     6.0827   6.1055   6.1230   6.1373   6.1562   6.1756   6.2052   6.2130
     6.2210   6.2211   6.2234   6.2301   6.2828   6.2886   6.2996   6.3009
     6.3178   6.3182   6.4234   6.4351   6.4515   6.4840   6.4878   6.4978
     6.5383   6.5516   6.5657   6.5859   6.5979   6.6061   6.6113   6.6157
     6.6404   6.6571   6.6841   6.6857   6.7574   6.7691   6.7695   6.7790
     6.7903   6.7994   6.8319   6.8341   6.8608   6.8658   6.9396   6.9647
     6.9864   6.9957   7.0220   7.0351   7.0919   7.1014   7.1107   7.1119
     7.1435   7.1477   7.1692   7.2060   7.2213   7.2423   7.2742   7.2797
     7.2832   7.2926   7.3370   7.3463   7.3673   7.3774   7.3860   7.3891
     7.4209   7.4260   7.4875   7.4884   7.4914   7.4995   7.5081   7.5180
     7.5792   7.5993   7.6308   7.6504   7.6681   7.6959   7.7269   7.7300
     7.7342   7.7378   7.7530   7.7669   7.7952   7.8285   7.8671   7.8968
     7.8977   7.8998   7.9212   7.9379   7.9739   8.0522   8.0531   8.0668
     8.0903   8.0914   8.1185   8.1265   8.1301   8.1503   8.1739   8.1761
     8.1916   8.2113   8.2552   8.2609   8.2903   8.2922   8.3044   8.3220
     8.3317   8.3412   8.3580   8.3713   8.3906   8.3939   8.4604   8.4906
     8.5055   8.5362   8.5491   8.5659   8.5681   8.5830   8.5890   8.6157
     8.6350   8.6586   8.6619   8.6747   8.6884   8.6901   8.7031   8.7167
     8.7210   8.7252   8.7423   8.7515

          k = 0.0000 0.0000-0.0303 (139578 PWs)   bands (ev):

   -21.3870 -21.3869 -20.9330 -20.9330 -20.5934 -20.5934 -20.3048 -20.3048
   -20.0259 -20.0259 -19.6680 -19.6680 -19.4532 -19.4531 -19.0223 -19.0223
   -18.7509 -18.7509 -18.4575 -18.4574 -18.3628 -18.3628 -17.9876 -17.9876
   -17.5668 -17.5667 -17.2684 -17.2683 -17.1961 -17.1961 -16.8649 -16.8649
   -16.6738 -16.6737 -16.5006 -16.5006 -16.3110 -16.3109 -15.9421 -15.9420
   -15.5799 -15.5799 -14.7739 -14.7739 -14.7516 -14.7516 -14.5203 -14.5203
   -14.0817 -14.0816 -14.0244 -14.0243 -13.8660 -13.8660 -13.7243 -13.7243
   -13.4342 -13.4342 -12.9925 -12.9925 -12.7348 -12.7348 -12.2607 -12.2606
   -12.2302 -12.2302 -11.9507 -11.9506 -11.6650 -11.6649 -11.4993 -11.4993
   -11.2579 -11.2579 -11.2178 -11.2178 -10.7831 -10.7831 -10.6612 -10.6612
   -10.4603 -10.4602 -10.2854 -10.2854 -10.0785 -10.0785  -9.8818  -9.8818
    -9.5676  -9.5676  -9.4819  -9.4819  -9.4257  -9.4257  -9.4185  -9.4185
    -9.1527  -9.1527  -9.0881  -9.0880  -9.0093  -9.0093  -8.9618  -8.9618
    -8.9124  -8.9124  -8.7204  -8.7203  -8.6009  -8.6009  -8.5157  -8.5157
    -8.5143  -8.5143  -8.3410  -8.3409  -8.2381  -8.2381  -8.1775  -8.1775
    -8.1164  -8.1163  -7.8830  -7.8830  -7.7767  -7.7767  -7.6990  -7.6989
    -7.5306  -7.5305  -7.4628  -7.4628  -7.4455  -7.4455  -7.2778  -7.2778
    -7.1948  -7.1948  -7.1325  -7.1325  -6.8533  -6.8532  -6.7200  -6.7200
    -6.6586  -6.6586  -6.4971  -6.4970  -6.4736  -6.4736  -6.1849  -6.1849
    -6.1436  -6.1436  -5.9883  -5.9883  -5.7122  -5.7121  -5.6791  -5.6791
    -5.5702  -5.5701  -5.2047  -5.2047  -4.9763  -4.9763  -4.8888  -4.8887
    -4.5926  -4.5926  -4.3776  -4.3776  -4.3409  -4.3408  -3.9835  -3.9834
    -3.3499  -3.3498  -3.1597  -3.1596  -1.1826  -1.1825  -0.8868  -0.8868
    -0.5145  -0.5144  -0.3269  -0.3268   0.0149   0.0150   0.0772   0.0772
     0.3001   0.3001   0.5350   0.5350   0.8657   0.8658   0.9416   0.9416
     1.0868   1.0868   1.2713   1.2714   1.3096   1.3096   1.4920   1.4920
     1.7016   1.7016   1.9021   1.9021   1.9233   1.9233   2.0392   2.0392
     2.0967   2.0967   2.1868   2.1869   2.3949   2.3949   2.4040   2.4040
     2.4589   2.4589   2.5560   2.5560   2.5692   2.5692   2.6146   2.6146
     2.6239   2.6239   2.8350   2.8351   2.8787   2.8787   2.9598   2.9599
     3.0073   3.0074   3.0558   3.0558   3.1557   3.1557   3.1803   3.1803
     3.3604   3.3604   3.4794   3.4794   3.4932   3.4932   3.5446   3.5446
     3.5983   3.5983   3.6358   3.6358   3.7054   3.7054   3.7303   3.7304
     3.8950   3.8951   3.9339   3.9340   3.9829   3.9830   4.0592   4.0593
     4.0916   4.0916   4.1878   4.1878   4.1935   4.1936   4.2720   4.2721
     4.2914   4.2914   4.3101   4.3102   4.3724   4.3724   4.4047   4.4048
     4.4670   4.4670   4.5569   4.5569   4.5811   4.5811   4.6335   4.6336
     4.7465   4.7466   4.8577   4.8578   4.8615   4.8615   4.8696   4.8697
     4.9712   4.9712   5.0654   5.0654   5.0976   5.0977   5.1831   5.1832
     5.1908   5.1908   5.2334   5.2334   5.2768   5.2769   5.3303   5.3303
     5.3553   5.3553   5.3613   5.3613   5.4465   5.4466   5.4906   5.4906
     5.5469   5.5469   5.5669   5.5669   5.6660   5.6660   5.6688   5.6688
     5.7153   5.7153   5.7661   5.7661   5.8083   5.8083   5.8503   5.8503
     5.9088   5.9088   5.9658   5.9658   5.9729   5.9729   6.0204   6.0205
     6.0933   6.0934   6.1298   6.1298   6.1689   6.1690   6.2093   6.2094
     6.2192   6.2192   6.2219   6.2220   6.2907   6.2908   6.3031   6.3031
     6.3144   6.3144   6.4284   6.4285   6.4689   6.4690   6.4896   6.4897
     6.5464   6.5465   6.5822   6.5822   6.5954   6.5955   6.6104   6.6104
     6.6498   6.6498   6.6846   6.6846   6.7672   6.7672   6.7704   6.7704
     6.7936   6.7937   6.8335   6.8335   6.8614   6.8614   6.9533   6.9534
     6.9949   6.9949   7.0233   7.0233   7.1026   7.1026   7.1073   7.1073
     7.1477   7.1478   7.1884   7.1884   7.2316   7.2317   7.2855   7.2855
     7.2900   7.2900   7.3418   7.3418   7.3665   7.3665   7.3902   7.3903
     7.4113   7.4113   7.4918   7.4919   7.4950   7.4950   7.5140   7.5141
     7.5901   7.5902   7.6534   7.6535   7.6619   7.6620   7.7345   7.7345
     7.7352   7.7352   7.7578   7.7579   7.8116   7.8117   7.8831   7.8831
     7.9134   7.9134   7.9160   7.9160   8.0162   8.0163   8.0569   8.0570
     8.1019   8.1019   8.1242   8.1242   8.1334   8.1335   8.1777   8.1777
     8.1925   8.1925   8.2736   8.2736   8.2738   8.2738   8.3120   8.3120
     8.3459   8.3459   8.3549   8.3549   8.3899   8.3900   8.4817   8.4818
     8.5356   8.5356   8.5449   8.5450   8.5870   8.5870   8.6000   8.6000
     8.6459   8.6460   8.6736   8.6736   8.6914   8.6915   8.7033   8.7033
     8.7244   8.7244   8.7385   8.7386

     the Fermi energy is    -2.8371 ev

     Writing output data file V9_m3.save/

     init_run     :     22.66s CPU     23.62s WALL (       1 calls)
     electrons    :  10629.26s CPU  10746.91s WALL (       1 calls)

     Called by init_run:
     wfcinit      :      0.00s CPU      0.00s WALL (       1 calls)
     potinit      :      1.35s CPU      1.49s WALL (       1 calls)
     hinit0       :     17.34s CPU     17.47s WALL (       1 calls)

     Called by electrons:
     c_bands      :  10629.24s CPU  10746.21s WALL (       1 calls)
     v_of_rho     :      1.05s CPU      1.11s WALL (       1 calls)
     newd         :      1.04s CPU      1.38s WALL (       1 calls)

     Called by c_bands:
     init_us_2    :      1.43s CPU      1.49s WALL (      26 calls)
     cegterg      :  10382.73s CPU  10487.62s WALL (      76 calls)

     Called by sum_band:

     Called by *egterg:
     h_psi        :   3414.88s CPU   3463.62s WALL (    1186 calls)
     s_psi        :    470.13s CPU    473.43s WALL (    1186 calls)
     g_psi        :     16.87s CPU     16.97s WALL (    1084 calls)
     cdiaghg      :   3136.72s CPU   3149.52s WALL (    1110 calls)

     Called by h_psi:
     h_psi:pot    :   3393.59s CPU   3434.92s WALL (    1186 calls)
     h_psi:calbec :    445.01s CPU    450.31s WALL (    1186 calls)
     vloc_psi     :   2478.77s CPU   2511.92s WALL (    1186 calls)
     add_vuspsi   :    469.78s CPU    472.61s WALL (    1186 calls)

     General routines
     calbec       :    445.00s CPU    450.24s WALL (    1186 calls)
     fft          :      1.12s CPU      1.20s WALL (      14 calls)
     ffts         :      0.01s CPU      0.01s WALL (       1 calls)
     fftw         :   1949.03s CPU   1974.49s WALL (  558844 calls)
     interpolate  :      0.07s CPU      0.08s WALL (       1 calls)
     davcio       :      0.00s CPU      7.94s WALL (      52 calls)

     Parallel routines
     fft_scatt_xy :    397.27s CPU    401.39s WALL (  558859 calls)
     fft_scatt_yz :    319.60s CPU    326.40s WALL (  558859 calls)

     PWSCF        :     2h57m CPU       57h 3m WALL

       5h

   This run was terminated on:  19: 2:16  20Apr2021            

=------------------------------------------------------------------------------=
   JOB DONE.
=------------------------------------------------------------------------------=
